   * xtb version 6.7.1 (edcfbbe) compiled by 'albert@albert-system' on 2024-07-22

   ID    Z sym.   atoms
    1    7 N      1, 21, 28, 36, 56, 73
    2    6 C      2-20, 22-27, 29-35, 37-55, 57-72, 74-76
    3    1 H      77-120

          program call               : xtb data2507/gas/TNPZ/TNPZ_gas_S0_finalOpt.xtbopt.xyz --gfn 2 --spinpol --tblite --uhf 2 --ohess vtight --parallel 40 --molden --ceasefiles --namespace data2507/gas/TNPZ/TNPZ_gas_T1_preOpt
 * total energy  :  -189.8034654 Eh     change        0.1273781E-07 Eh
 * total energy  :  -189.8064755 Eh     change       -0.3010067E-02 Eh
 * total energy  :  -189.8075316 Eh     change       -0.1056073E-02 Eh
 * total energy  :  -189.8076698 Eh     change       -0.1382118E-03 Eh
 * total energy  :  -189.8076675 Eh     change        0.2268804E-05 Eh
 * total energy  :  -189.8077329 Eh     change       -0.6543110E-04 Eh
 * total energy  :  -189.8077408 Eh     change       -0.7845766E-05 Eh
 * total energy  :  -189.8077450 Eh     change       -0.4209880E-05 Eh
 * total energy  :  -189.8077512 Eh     change       -0.6262416E-05 Eh
 * total energy  :  -189.8077535 Eh     change       -0.2272515E-05 Eh
 * total energy  :  -189.8077764 Eh     change       -0.7822890E-06 Eh
 * total energy  :  -189.8077780 Eh     change       -0.1622922E-05 Eh
 * total energy  :  -189.8077790 Eh     change       -0.9955755E-06 Eh
 * total energy  :  -189.8077805 Eh     change       -0.1503004E-05 Eh
 * total energy  :  -189.8077818 Eh     change       -0.1318236E-05 Eh
 * total energy  :  -189.8077829 Eh     change       -0.1104401E-05 Eh
 * total energy  :  -189.8077838 Eh     change       -0.8492353E-06 Eh
 * total energy  :  -189.8077838 Eh     change        0.1314515E-07 Eh
 * total energy  :  -189.8077838 Eh     change       -0.1409953E-07 Eh
   *** GEOMETRY OPTIMIZATION CONVERGED AFTER 44 ITERATIONS ***

 final structure:
================
120
 xtb: 6.7.1 (edcfbbe)
N           12.83894537786476       -6.53281876665904       -0.05277968853796
C           11.86649395059031       -5.92470655568054       -0.04943768768195
C           10.66902874902867       -5.17623400446590       -0.04750681147205
C           10.55916046275260       -4.03300210639535        0.74617937099551
C            9.38816181924560       -3.30597346072100        0.74281582142351
C            8.30194262814232       -3.69818471640459       -0.04226054410864
C            7.05677506334276       -2.92331547603957       -0.04015950063606
C            5.81236413706407       -3.57506671643006       -0.06473350749516
C            4.65523336707069       -2.84672613828700       -0.05738920963206
C            4.68268663437161       -1.44158510976674       -0.03517572242119
C            5.92519323829169       -0.76509512362156       -0.01625462972084
C            7.08942102308815       -1.54025150316356       -0.01543962146577
C            5.94379714196542        0.68025506000660       -0.00011853182106
C            7.12781543087633        1.42483427976696        0.00837188986463
C            7.13106347277851        2.80825425623903        0.03317371102030
C            8.39606844532052        3.55023850412283        0.04684213494952
C            8.54028683157711        4.69311967591918        0.83605548055396
C            9.72655299380005        5.39460347819155        0.85668192619566
C           10.80111040070524        4.96538250634334        0.07548815649394
C           12.01757063857112        5.68242603615885        0.08952701764190
N           13.00515096528180        6.26555700921096        0.10112142710749
C           10.66855787291557        3.82603189343919       -0.72029817061300
C            9.47880227537158        3.13011265584230       -0.72852307053835
C            5.90394086480165        3.49222695269959        0.04740674707361
C            4.72829594814921        2.79421557873006        0.03105015327732
C            4.71925906491422        1.38889782498984        0.00954082429700
C            3.46844903036412        0.70240566309479       -0.00311785374421
N            2.31979467935401        1.36104797735562        0.00874768521086
C            1.14031372265351        0.74327819770790       -0.00706245782801
C           -0.07098608873349        1.42577070185756       -0.00757917971314
C           -1.28549079131015        0.75392174912102       -0.03074769762637
C           -2.55399184199712        1.49210272799663       -0.09544744007570
C           -3.51500715713186        1.13842027336187       -1.04349129577662
C           -4.75363532911794        1.73593650073764       -1.04861148493640
C           -5.07270545641854        2.70854264524091       -0.09971775959854
N           -6.37318404428898        3.22172139634609       -0.05310373317013
C           -7.43700064885784        2.32775927159956       -0.23338896833787
C           -7.36719780272924        1.04564144838737        0.31271490019575
C           -8.40156948400256        0.15134023620661        0.12451621355975
C           -9.51748273062663        0.51602258210954       -0.61088782349638
C           -9.59422825003263        1.78969902642810       -1.15047964124904
C           -8.56528945949798        2.69346006170384       -0.96572943385317
C           -6.60346242541245        4.57367203807599        0.19994980114806
C           -7.73379980051787        4.98251967741176        0.90896830550625
C           -7.95450846080140        6.32384477107736        1.15173919756131
C           -7.05478366184255        7.27714751639755        0.70311560520094
C           -5.92848222347393        6.87622991968962        0.00295317622857
C           -5.70199821049355        5.53827915627795       -0.25249989040779
C           -4.09166743089275        3.12010230428721        0.80121324060941
C           -2.84803950915587        2.52053911991465        0.79582125911918
C           -1.30187299488937       -0.65251741991322       -0.02537022923516
C           -2.58744776730647       -1.36911053323303        0.03673738517070
C           -2.94923713508414       -2.28698392467173       -0.94510265903326
C           -4.19954114058474       -2.87072709029984       -0.93593865276843
C           -5.10866689195531       -2.57257852883513        0.07764157726732
N           -6.39683413348517       -3.12912388258755        0.05135625082409
C           -7.11121050546898       -3.09085529241920       -1.15108637063020
C           -7.94938123876311       -4.14210044975287       -1.52093149530983
C           -8.65841180223118       -4.07992836252149       -2.70478739644764
C           -8.53959514479632       -2.97940127462481       -3.53803642441770
C           -7.69836921946471       -1.93834863192220       -3.18037766909736
C           -6.98744250905556       -1.98886162147536       -1.99803551032633
C           -6.95965043818019       -3.64521323540139        1.21782692337300
C           -8.33711246499769       -3.59276215868062        1.43961220882712
C           -8.87597879396817       -4.10462428322957        2.60355151246068
C           -8.05910179304763       -4.67075001691179        3.56839079013214
C           -6.69114451168593       -4.72410125484781        3.35557386329756
C           -6.14257374524140       -4.22105798636936        2.19281134378125
C           -4.72676864431402       -1.70367379446424        1.09849044426076
C           -3.48635790371817       -1.10382770737974        1.06855636899012
C           -0.10674005917973       -1.35539172399464       -0.04352864022205
C            1.12246913730206       -0.70395330136686       -0.03829870013623
N            2.28485587286660       -1.35173945189794       -0.04899222307009
C            3.45039081082110       -0.72281805945304       -0.03002690173945
C            8.42329385947677       -4.84526689893106       -0.82923357242706
C            9.59080349999276       -5.57779609509362       -0.83829701798650
H           11.39361378447676       -3.72887775714885        1.36113098360987
H            9.30128497144025       -2.43444166975178        1.37484215698094
H            5.77434514058550       -4.65409912791451       -0.06164981841679
H            3.69125541166698       -3.33219580216190       -0.06572477376418
H            8.05367708790686       -1.05722575083385       -0.02108169283796
H            8.07904692644457        0.91679138371142        0.02166149027113
H            7.71801176185783        5.01890810871507        1.45565243811287
H            9.83472296664747        6.27420065166072        1.47435410551140
H           11.50041233879949        3.50038775274949       -1.32770946113868
H            9.37490346724423        2.26158736639554       -1.36211994294687
H            5.89408836646842        4.57188283516290        0.04380370993959
H            3.77727379364829        3.30466875392942        0.03176087052850
H           -0.04761456973440        2.50475765953119       -0.01845398859630
H           -3.28066303539104        0.39156626051176       -1.78666727708788
H           -5.49471385197834        1.44959657855945       -1.78068880052175
H           -6.49656183873963        0.75980862305001        0.88490848705956
H           -8.33853695396887       -0.83201569886308        0.56448686247812
H          -10.32162336029310       -0.18774943090314       -0.76244039026749
H          -10.45968873780304        2.08089995183228       -1.72721690886201
H           -8.62301001529846        3.68364519557644       -1.39365656851972
H           -8.43012746389807        4.24127541189419        1.27272766227075
H           -8.83208766287576        6.62632556778695        1.70389445099789
H           -7.22990711116007        8.32411368076944        0.89780101248146
H           -5.22414766725912        7.61244779857058       -0.35535901992318
H           -4.83012508808502        5.22963082052557       -0.81045342328161
H           -4.32200962124592        3.88914292986199        1.52399165162187
H           -2.10835150473410        2.81917115915651        1.52442399883499
H           -2.25349734383402       -2.51755001667328       -1.73902884660300
H           -4.48783644387124       -3.55675260474225       -1.71913115073295
H           -8.03533306376928       -5.00567207517043       -0.87771939459283
H           -9.30341751441714       -4.90075274982628       -2.98184941344715
H           -9.09731721540804       -2.93484255784920       -4.46101328497028
H           -7.60253012176606       -1.07492241395953       -3.82200536913215
H           -6.34039307311018       -1.17224566843300       -1.71346410678322
H           -8.98308117670696       -3.14813412964837        0.69656680040295
H           -9.94335457404822       -4.05330919748888        2.76080057756612
H           -8.48479531784283       -5.06771945073960        4.47713185998226
H           -6.04530449584375       -5.16923427211576        4.09801896024433
H           -5.07675934197971       -4.27585279004786        2.02667033616034
H           -5.41789680988432       -1.49064735326878        1.90121219145197
H           -3.20753951058224       -0.41128124343012        1.84911233590682
H           -0.11215140975497       -2.43475171593671       -0.03588424737889
H            7.59847290302405       -5.14994115934585       -1.45615044442597
H            9.68140604691830       -6.46060578934467       -1.45421532280446

 projected vibrational frequencies (cm⁻¹)
eigval :       -0.00    -0.00     0.00     0.00     0.00     0.00
eigval :        4.18     7.86     8.90    13.16    15.83    20.94
eigval :       22.43    24.38    25.54    32.78    38.15    39.46
eigval :       46.83    47.58    50.43    52.16    56.29    59.79
eigval :       61.93    69.03    70.76    76.11    80.12    83.44
eigval :       93.43    96.65   104.38   107.80   108.48   116.35
eigval :      116.93   124.22   131.65   145.78   152.44   169.27
eigval :      173.71   188.62   193.00   203.84   208.00   215.45
eigval :      217.41   229.08   233.01   235.36   247.42   252.40
eigval :      282.51   293.44   301.99   304.57   309.71   318.28
eigval :      325.41   334.64   340.77   347.37   361.06   362.88
eigval :      366.71   367.14   377.56   378.35   379.43   381.78
eigval :      385.41   386.74   388.58   390.10   398.12   404.04
eigval :      413.46   418.74   430.48   433.91   444.70   446.81
eigval :      466.03   475.61   476.73   484.45   485.77   491.58
eigval :      493.92   509.52   514.80   525.75   532.96   534.39
eigval :      538.70   540.25   546.33   547.33   565.41   580.11
eigval :      581.39   583.97   584.47   589.17   591.63   594.14
eigval :      594.78   602.21   603.91   610.10   613.94   616.10
eigval :      616.27   623.32   623.44   629.73   649.84   658.06
eigval :      658.70   659.28   659.95   670.38   673.45   677.78
eigval :      679.44   691.14   693.84   698.31   701.10   710.78
eigval :      711.93   722.59   734.27   743.32   755.69   756.12
eigval :      760.77   761.50   770.37   807.49   807.91   811.65
eigval :      812.63   814.72   819.73   829.79   834.48   835.55
eigval :      843.95   858.46   866.11   868.85   870.07   871.09
eigval :      872.50   872.94   875.24   875.89   875.97   889.64
eigval :      890.81   891.09   892.30   895.00   900.45   910.08
eigval :      910.70   915.27   915.39   916.81   917.99   918.72
eigval :      919.80   919.81   925.50   925.87   926.97   927.06
eigval :      927.67   927.98   928.07   928.37   928.75   929.32
eigval :      930.01   930.78   933.59   953.81   983.22   988.96
eigval :      996.07  1004.31  1005.12  1010.05  1014.33  1030.17
eigval :     1035.04  1059.81  1078.93  1079.12  1083.10  1083.72
eigval :     1084.03  1084.94  1096.40  1122.43  1122.72  1124.85
eigval :     1126.29  1136.21  1136.32  1136.85  1139.57  1155.88
eigval :     1156.31  1180.28  1180.43  1180.49  1181.11  1183.50
eigval :     1185.77  1188.17  1188.82  1193.21  1194.04  1195.37
eigval :     1197.15  1198.87  1212.34  1213.32  1214.21  1222.95
eigval :     1235.11  1237.07  1239.07  1244.17  1247.58  1258.07
eigval :     1265.51  1267.92  1268.23  1269.59  1273.52  1278.07
eigval :     1278.79  1280.20  1282.35  1283.74  1286.61  1305.15
eigval :     1305.29  1310.19  1312.07  1314.49  1316.78  1317.41
eigval :     1320.01  1323.97  1324.86  1326.10  1327.57  1328.27
eigval :     1328.79  1338.33  1346.30  1357.78  1383.93  1393.43
eigval :     1393.52  1402.82  1405.32  1410.04  1411.89  1422.73
eigval :     1423.81  1435.77  1436.19  1443.44  1443.85  1460.36
eigval :     1464.17  1469.97  1470.70  1473.43  1474.57  1479.94
eigval :     1487.00  1488.01  1490.00  1494.71  1506.03  1516.77
eigval :     1533.08  1537.84  1547.57  1548.35  1555.06  1556.87
eigval :     1572.62  1574.88  1575.42  1575.86  1579.04  1579.43
eigval :     1591.62  1591.72  1592.07  1592.49  1592.88  1594.45
eigval :     1599.85  1600.12  2369.92  2370.81  3076.02  3076.35
eigval :     3077.28  3077.41  3077.74  3077.90  3078.30  3078.56
eigval :     3078.81  3078.88  3079.61  3080.65  3080.75  3082.31
eigval :     3082.36  3082.97  3085.07  3085.11  3086.37  3087.13
eigval :     3087.90  3088.08  3088.36  3089.39  3089.76  3090.64
eigval :     3090.84  3090.90  3091.20  3091.88  3091.98  3092.45
eigval :     3094.02  3094.05  3094.09  3095.27  3096.37  3098.23
eigval :     3098.41  3098.77  3099.15  3099.58  3103.52  3106.45

   temp. (K)  partition function   enthalpy   heat capacity  entropy
                                   cal/mol     cal/K/mol   cal/K/mol   J/K/mol
 298.15  VIB  0.129E+32            36975.151    226.054    235.450
         ROT  0.500E+09              888.752      2.981     42.788
         INT  0.648E+40            37863.903    229.035    278.238
         TR   0.292E+29             1481.254      4.968     46.467
         TOT                       39345.1574   234.0032   324.7048  1358.5647

       T/K    H(0)-H(T)+PV         H(T)/Eh          T*S/Eh         G(T)/Eh
   ------------------------------------------------------------------------
    298.15    0.627005E-01    0.969493E+00    0.154278E+00    0.815215E+00
   ------------------------------------------------------------------------

         :::::::::::::::::::::::::::::::::::::::::::::::::::::
         ::                  THERMODYNAMIC                  ::
         :::::::::::::::::::::::::::::::::::::::::::::::::::::
         :: total free energy        -188.992568715575 Eh   ::
         ::.................................................::
         :: total energy             -189.807783868987 Eh   ::
         :: zero point energy           0.906792359766 Eh   ::
         :: G(RRHO) w/o ZPVE           -0.091577206354 Eh   ::
         :: G(RRHO) contrib.            0.815215153412 Eh   ::
         :::::::::::::::::::::::::::::::::::::::::::::::::::::

           -------------------------------------------------
          | TOTAL ENERGY             -189.807783868987 Eh   |
          | TOTAL ENTHALPY           -188.838291009881 Eh   |
          | TOTAL FREE ENERGY        -188.992568715575 Eh   |
          | GRADIENT NORM               0.000140287936 Eh/α |
           -------------------------------------------------

 * finished run on 2025/09/03 at 21:52:29.691
