   * xtb version 6.7.1 (edcfbbe) compiled by 'albert@albert-system' on 2024-07-22

   ID    Z sym.   atoms
    1    7 N      1, 21, 28, 36, 56, 73
    2    6 C      2-20, 22-27, 29-35, 37-55, 57-72, 74-76
    3    1 H      77-120

          program call               : xtb data2507/gas/TNPZ/TNPZ.xyz --gfn 2 --ohess vtight --parallel 40 --molden --ceasefiles --namespace data2507/gas/TNPZ/TNPZ_gas_S0_preOpt
          :  Hamiltonian                  GFN2-xTB          :
 * total energy  :  -189.8013808 Eh     change       -0.5480075E-08 Eh
 * total energy  :  -189.8259615 Eh     change       -0.2458071E-01 Eh
 * total energy  :  -189.8347423 Eh     change       -0.8780789E-02 Eh
 * total energy  :  -189.8378853 Eh     change       -0.3142979E-02 Eh
 * total energy  :  -189.8399997 Eh     change       -0.2114360E-02 Eh
 * total energy  :  -189.8411510 Eh     change       -0.1151383E-02 Eh
 * total energy  :  -189.8418190 Eh     change       -0.6679420E-03 Eh
 * total energy  :  -189.8422704 Eh     change       -0.4514206E-03 Eh
 * total energy  :  -189.8426903 Eh     change       -0.4198805E-03 Eh
 * total energy  :  -189.8431255 Eh     change       -0.4352552E-03 Eh
 * total energy  :  -189.8481519 Eh     change       -0.4297785E-06 Eh
 * total energy  :  -189.8481524 Eh     change       -0.4170404E-06 Eh
 * total energy  :  -189.8481528 Eh     change       -0.4211075E-06 Eh
 * total energy  :  -189.8481532 Eh     change       -0.4273850E-06 Eh
 * total energy  :  -189.8481536 Eh     change       -0.4438675E-06 Eh
 * total energy  :  -189.8481541 Eh     change       -0.4598938E-06 Eh
 * total energy  :  -189.8481546 Eh     change       -0.4591163E-06 Eh
 * total energy  :  -189.8481550 Eh     change       -0.4593661E-06 Eh
 * total energy  :  -189.8481550 Eh     change       -0.3798050E-08 Eh
   *** GEOMETRY OPTIMIZATION CONVERGED AFTER 122 ITERATIONS ***

 final structure:
================
120
 xtb: 6.7.1 (edcfbbe)
N           13.36352193901146       -6.33231481887464       -0.35629557965292
C           12.37926548913457       -5.74648718002175       -0.30339003526184
C           11.16605097780824       -5.02508826257472       -0.23944547434012
C           10.06698832886385       -5.43819054179505       -0.99408665496102
C            8.88471788183717       -4.73199297493441       -0.92587254936329
C            8.77218023244044       -3.60188156394328       -0.11510739452970
C            7.50987523576927       -2.85319502266228       -0.05500960227606
C            6.28589280987014       -3.52925284342212       -0.00724011702948
C            5.11247892512878       -2.81860720147717        0.03303915160195
C            5.11764743724916       -1.42069480124201        0.02216178745334
C            6.33860840749309       -0.71873176696151       -0.01193227818319
C            7.51751662051880       -1.46697131148529       -0.05202410986945
C            6.33639791053581        0.73839031754096       -0.01152026062424
C            7.51311989044915        1.49024989881666        0.02514047319161
C            7.50120548573148        2.87644271242152        0.02814012045110
C            8.76130397207030        3.62910396660825        0.08478140711001
C            8.87243736743409        4.75949749821654        0.89535114261570
C           10.05260360083876        5.46949713757668        0.96037747669452
C           11.15090409144307        5.06000619108124        0.20265945507656
C           12.36193831531362        5.78532687675081        0.26344399389559
N           13.34438128834655        6.37440044287596        0.31400470377783
C           11.05023908561155        3.93347279305602       -0.61496422084641
C            9.86635812137020        3.22821747887730       -0.66686707623069
C            6.27501909197849        3.54873302539276       -0.01619661743592
C            5.10368721919329        2.83448774079967       -0.05302413847713
C            5.11320024239973        1.43660051992116       -0.04203125294561
C            3.85925062655885        0.71826380330771       -0.04325710793297
N            2.72986216980108        1.40140498199860       -0.09796694421222
C            1.58085319886013        0.71445688100228       -0.06236704053049
C            0.34940579259567        1.39561020302077       -0.11126183054495
C           -0.83731863320052        0.71127871303655       -0.04436690742286
C           -2.10307665709339        1.45767108350144        0.00016830452646
C           -2.39221726836446        2.43984365136836       -0.94336138737347
C           -3.56580055671737        3.16042244409250       -0.87979190804237
C           -4.47280351202166        2.95075566437822        0.16160519258614
N           -5.63956369175584        3.70795193576664        0.24633578446610
C           -6.79129917997585        3.19131181636457        0.85354605876355
C           -7.15033815494318        1.85469809301197        0.68260729121690
C           -8.27542059077557        1.35115142916513        1.30683549367190
C           -9.07215783285355        2.17232487502419        2.08766456597321
C           -8.73059352274317        3.50520905702453        2.24571396752281
C           -7.59661191884324        4.01276590559287        1.64228899813413
C           -5.65567037218555        5.03141819072210       -0.22125705213356
C           -4.56867846554091        5.87723503902862       -0.00652602586999
C           -4.59820214948613        7.17783060474411       -0.47132358520289
C           -5.70915337356891        7.65690100284367       -1.14608436612414
C           -6.79468019601509        6.82218384665996       -1.35541015523290
C           -6.77111472478584        5.51776717322880       -0.90133397101601
C           -4.17561554876543        1.97646662108327        1.11747434585964
C           -3.01981211293193        1.23271052579488        1.02509131089052
C           -0.83506609990555       -0.71315576752305        0.04522442640642
C           -2.09877457941100       -1.46328463136695        0.00577194840360
C           -3.02074087855891       -1.24064525628957       -1.01496565487105
C           -4.17456799551088       -1.98803941630170       -1.10274014933473
C           -4.46436279428125       -2.96395636648466       -0.14626852443694
N           -5.62874464916102       -3.72527994051804       -0.22653835897042
C           -6.78500810456099       -3.21259121338183       -0.82843703695630
C           -7.59073146879430       -4.03665657911097       -1.61403899561677
C           -8.72932142993391       -3.53307627450757       -2.21208769504551
C           -9.07523523001372       -2.20158855345885       -2.05173403045261
C           -8.27809573963639       -1.37781913749261       -1.27405710174921
C           -7.14830100452519       -1.87742732323283       -0.65519117292521
C           -5.63787442389648       -5.04912660017556        0.24021434246650
C           -6.74835157559798       -5.54001777845301        0.92512737219035
C           -6.76495800065522       -6.84478645605943        1.37850927151052
C           -5.67731744793075       -7.67533338190058        1.16364326175651
C           -4.57130460789003       -7.19175102670274        0.48400424749791
C           -4.54877244235799       -5.89077645500952        0.01988453222276
C           -3.55222084111443       -3.17118869938729        0.89112749250438
C           -2.38073384784933       -2.44683786558260        0.95005351974454
C            0.35393378478611       -1.39398876380952        0.10756382473070
C            1.58317958267695       -0.70920482956700        0.05418821844324
N            2.73436353747980       -1.39271797260162        0.08581447837190
C            3.86151207921527       -0.70618942074005        0.02736187292087
C            9.87801348418371       -3.19736530718655        0.63345168378967
C           11.06401538230029       -3.89879441250125        0.57834458975050
H           10.15223210292485       -6.30839608777829       -1.62826620317188
H            8.04090692103509       -5.04397116405747       -1.52321146061310
H            6.27057576538930       -4.60869903914688        0.01635257743915
H            4.15640965533893       -3.31662427902274        0.06901738061200
H            8.47193199864136       -0.96852210748211       -0.11458933745954
H            8.46924649597735        0.99474911000485        0.08495857002746
H            8.02927493576702        5.06869120092632        1.49504852084869
H           10.13679189362911        6.33991599200886        1.59440551930789
H           11.90134036842668        3.62382494297426       -1.20364848200530
H            9.78613997794159        2.36792164723574       -1.31504536796278
H            6.25632548232361        4.62812438229188       -0.03983380219431
H            4.14598748810543        3.32955248767846       -0.08624627584028
H            0.36503158264423        2.47355457281134       -0.16882285495863
H           -1.69885142954815        2.61859582940545       -1.75261137892693
H           -3.78676118876042        3.89768696590216       -1.63742965386486
H           -6.53939724820507        1.21935578526253        0.05780234848797
H           -8.53651768633955        0.31074007301841        1.18057650408339
H           -9.95278288838242        1.77539120752912        2.56923775682842
H           -9.34436005157620        4.15294722590061        2.85414648153357
H           -7.32359448687078        5.04851618833829        1.78172151310027
H           -3.70639578270734        5.50845333458275        0.52955268390566
H           -3.75091565893629        7.82455684077837       -0.29697234987624
H           -5.72936920375937        8.67459522201438       -1.50510117540050
H           -7.66369730463166        7.18684210851553       -1.88294200271451
H           -7.61539245400106        4.86510237861232       -1.06939396004346
H           -4.85290948178356        1.81453101338205        1.94277886474758
H           -2.80423302420225        0.49022539692870        1.77910721082150
H           -2.81085130572811       -0.49706676992044       -1.76950628935254
H           -4.85599299563854       -1.82777100277580       -1.92496624912965
H           -7.31442909174183       -5.07129215095830       -1.75526606940119
H           -9.34335419994687       -4.18280657002620       -2.81812398204052
H           -9.95954334293476       -1.80775136670556       -2.52908266536828
H           -8.54257734364936       -0.33847926864851       -1.14601836356736
H           -6.53696790489212       -1.24011338233390       -0.03278525940114
H           -7.59425727004961       -4.89059173876919        1.09749316998514
H           -7.63014661478397       -7.21298755398624        1.90985817651162
H           -5.69207209612189       -8.69329903886917        1.52215537018859
H           -3.72244763446665       -7.83522311715083        0.30530910438214
H           -3.69036754000341       -5.51845416480081       -0.51995777275030
H           -3.76750402520751       -3.90960879664902        1.64927420257041
H           -1.68333510462695       -2.62377335243116        1.75622943108183
H            0.37296358470881       -2.47188283676082        0.16504376733935
H            9.79681382359035       -2.33727246648262        1.28177623977757
H           11.91574030090107       -3.58633607431612        1.16463681831351

          :  Hamiltonian                  GFN2-xTB          :
         :: gradient norm              0.000048223627 Eh/a0 ::
         :: HOMO-LUMO gap              1.263591622547 eV    ::
         :: SCC energy              -193.505871174323 Eh    ::
         :: -> dispersion             -0.175989591170 Eh    ::
         :: repulsion energy           3.657716147796 Eh    ::

    * Orbital Energies and Occupations

         #    Occupation            Energy/Eh            Energy/eV
      -------------------------------------------------------------
         1        2.0000           -0.6753925             -18.3784
       ...           ...                  ...                  ...
       165        2.0000           -0.4118817             -11.2079
       166        2.0000           -0.4101826             -11.1616
       167        2.0000           -0.4098157             -11.1517
       168        2.0000           -0.4096614             -11.1475
       169        2.0000           -0.4083400             -11.1115
       170        2.0000           -0.4082359             -11.1087
       171        2.0000           -0.4037074             -10.9854
       172        2.0000           -0.4034881             -10.9795
       173        2.0000           -0.3910608             -10.6413
       174        2.0000           -0.3901655             -10.6169
       175        2.0000           -0.3549804              -9.6595
       176        2.0000           -0.3523632              -9.5883
       177        2.0000           -0.3508394              -9.5468 (HOMO)
       178                         -0.3044032              -8.2832 (LUMO)
       179                         -0.2877831              -7.8310
       180                         -0.2775743              -7.5532
       181                         -0.2625131              -7.1433
       182                         -0.2613372              -7.1113
       183                         -0.2464735              -6.7069
       184                         -0.2464694              -6.7068
       185                         -0.2433827              -6.6228
       186                         -0.2379927              -6.4761
       187                         -0.2354295              -6.4064
       188                         -0.2353240              -6.4035
       ...                                ...                  ...
       348                          1.1705523              31.8523
      -------------------------------------------------------------
                  HL-Gap            0.0464361 Eh            1.2636 eV

     #   Z          covCN         q      C6AA      α(0)
     1   7 N        0.911    -0.234    26.120     7.392
     2   6 C        1.912     0.111    28.350     8.599
     3   6 C        2.974     0.018    27.603     8.618
     4   6 C        2.924    -0.020    28.510     8.756
     5   6 C        2.924    -0.030    28.757     8.794
     6   6 C        2.977     0.018    27.594     8.617
     7   6 C        2.976     0.010    27.793     8.648
     8   6 C        2.921    -0.033    28.822     8.804
     9   6 C        2.922    -0.028    28.689     8.784
    10   6 C        2.989    -0.001    28.038     8.686
    11   6 C        2.975     0.006    27.885     8.662
    12   6 C        2.928    -0.039    28.962     8.826
    13   6 C        2.975     0.006    27.885     8.662
    14   6 C        2.928    -0.039    28.962     8.826
    15   6 C        2.976     0.010    27.793     8.648
    16   6 C        2.977     0.018    27.594     8.617
    17   6 C        2.924    -0.030    28.757     8.794
    18   6 C        2.924    -0.020    28.510     8.756
    19   6 C        2.974     0.018    27.603     8.618
    20   6 C        1.912     0.111    28.350     8.599
    21   7 N        0.911    -0.234    26.120     7.392
    22   6 C        2.924    -0.020    28.516     8.757
    23   6 C        2.923    -0.031    28.768     8.796
    24   6 C        2.921    -0.033    28.822     8.804
    25   6 C        2.922    -0.028    28.689     8.784
    26   6 C        2.989    -0.001    28.038     8.686
    27   6 C        2.963     0.081    26.191     8.394
    28   7 N        1.848    -0.243    27.190     7.728
    29   6 C        2.966     0.080    26.208     8.397
    30   6 C        2.923    -0.049    29.218     8.864
    31   6 C        2.976     0.011    27.761     8.643
    32   6 C        2.978     0.003    27.947     8.672
    33   6 C        2.923    -0.034    28.838     8.806
    34   6 C        2.921    -0.050    29.244     8.868
    35   6 C        2.922     0.065    26.546     8.449
    36   7 N        2.752    -0.074    22.667     7.071
    37   6 C        2.924     0.065    26.555     8.451
    38   6 C        2.922    -0.047    29.175     8.858
    39   6 C        2.920    -0.031    28.761     8.795
    40   6 C        2.919    -0.038    28.948     8.823
    41   6 C        2.919    -0.029    28.721     8.788
    42   6 C        2.923    -0.047    29.176     8.858
    43   6 C        2.926     0.065    26.545     8.449
    44   6 C        2.922    -0.046    29.143     8.853
    45   6 C        2.920    -0.029    28.723     8.789
    46   6 C        2.919    -0.037    28.917     8.818
    47   6 C        2.920    -0.029    28.720     8.788
    48   6 C        2.923    -0.046    29.136     8.852
    49   6 C        2.921    -0.050    29.249     8.869
    50   6 C        2.924    -0.031    28.771     8.796
    51   6 C        2.976     0.011    27.761     8.643
    52   6 C        2.978     0.003    27.947     8.672
    53   6 C        2.924    -0.031    28.771     8.796
    54   6 C        2.921    -0.050    29.249     8.869
    55   6 C        2.922     0.065    26.546     8.449
    56   7 N        2.752    -0.074    22.667     7.071
    57   6 C        2.924     0.065    26.555     8.451
    58   6 C        2.923    -0.047    29.176     8.858
    59   6 C        2.919    -0.029    28.721     8.788
    60   6 C        2.919    -0.038    28.948     8.823
    61   6 C        2.920    -0.030    28.761     8.795
    62   6 C        2.922    -0.047    29.175     8.858
    63   6 C        2.926     0.065    26.545     8.449
    64   6 C        2.923    -0.046    29.136     8.852
    65   6 C        2.920    -0.029    28.720     8.788
    66   6 C        2.919    -0.037    28.917     8.818
    67   6 C        2.920    -0.029    28.723     8.789
    68   6 C        2.922    -0.046    29.143     8.853
    69   6 C        2.921    -0.050    29.244     8.868
    70   6 C        2.923    -0.034    28.838     8.806
    71   6 C        2.923    -0.049    29.219     8.864
    72   6 C        2.966     0.080    26.208     8.397
    73   7 N        1.848    -0.243    27.190     7.728
    74   6 C        2.963     0.081    26.191     8.394
    75   6 C        2.923    -0.031    28.768     8.796
    76   6 C        2.924    -0.020    28.516     8.757
    77   1 H        0.926     0.043     2.411     2.428
    78   1 H        0.926     0.042     2.426     2.436
    79   1 H        0.926     0.038     2.478     2.462
    80   1 H        0.926     0.062     2.174     2.306
    81   1 H        0.926     0.036     2.497     2.471
    82   1 H        0.926     0.036     2.497     2.471
    83   1 H        0.926     0.042     2.426     2.436
    84   1 H        0.926     0.043     2.411     2.428
    85   1 H        0.926     0.042     2.416     2.431
    86   1 H        0.926     0.039     2.457     2.451
    87   1 H        0.926     0.038     2.478     2.462
    88   1 H        0.926     0.062     2.174     2.306
    89   1 H        0.926     0.050     2.317     2.380
    90   1 H        0.926     0.034     2.535     2.490
    91   1 H        0.926     0.034     2.535     2.490
    92   1 H        0.926     0.032     2.555     2.500
    93   1 H        0.926     0.035     2.518     2.482
    94   1 H        0.926     0.031     2.576     2.510
    95   1 H        0.926     0.032     2.556     2.500
    96   1 H        0.926     0.031     2.569     2.506
    97   1 H        0.926     0.033     2.540     2.492
    98   1 H        0.926     0.033     2.541     2.493
    99   1 H        0.926     0.032     2.556     2.500
   100   1 H        0.926     0.033     2.542     2.493
   101   1 H        0.926     0.033     2.551     2.497
   102   1 H        0.926     0.033     2.542     2.493
   103   1 H        0.926     0.031     2.565     2.505
   104   1 H        0.926     0.031     2.565     2.505
   105   1 H        0.926     0.033     2.542     2.493
   106   1 H        0.926     0.031     2.569     2.506
   107   1 H        0.926     0.032     2.556     2.500
   108   1 H        0.926     0.031     2.576     2.510
   109   1 H        0.926     0.035     2.518     2.482
   110   1 H        0.926     0.032     2.555     2.500
   111   1 H        0.926     0.033     2.550     2.497
   112   1 H        0.926     0.033     2.542     2.493
   113   1 H        0.926     0.032     2.556     2.500
   114   1 H        0.926     0.033     2.541     2.493
   115   1 H        0.926     0.033     2.540     2.492
   116   1 H        0.926     0.034     2.535     2.490
   117   1 H        0.926     0.034     2.535     2.490
   118   1 H        0.926     0.050     2.317     2.380
   119   1 H        0.926     0.039     2.457     2.451
   120   1 H        0.926     0.042     2.416     2.431

molecular dipole:
                 x           y           z       tot (Debye)
 q only:       -3.434      -0.006       0.005
   full:       -4.161      -0.007       0.006      10.576

 projected vibrational frequencies (cm⁻¹)
eigval :       -0.00    -0.00    -0.00    -0.00     0.00     0.00
eigval :        4.47     8.92    10.79    13.83    15.32    22.64
eigval :       24.24    25.88    32.02    33.58    38.16    43.32
eigval :       44.18    48.19    49.00    49.58    56.80    59.48
eigval :       60.61    68.64    70.33    71.02    82.60    82.73
eigval :       92.72    94.16   102.25   109.29   110.44   114.61
eigval :      118.49   125.13   141.72   146.52   148.36   166.01
eigval :      166.55   184.33   193.04   203.34   217.98   218.43
eigval :      223.47   228.03   236.95   238.17   247.57   263.47
eigval :      285.55   286.41   305.82   306.56   318.48   320.76
eigval :      332.06   337.89   347.35   349.61   361.74   362.86
eigval :      366.06   366.75   378.68   378.87   379.14   382.36
eigval :      386.69   388.13   392.45   392.61   400.75   403.68
eigval :      412.44   419.10   436.21   438.28   448.60   452.69
eigval :      462.41   478.50   479.10   480.65   488.45   492.69
eigval :      495.18   510.44   512.71   531.96   533.97   534.45
eigval :      542.16   542.22   547.14   549.19   571.79   581.26
eigval :      583.30   584.12   584.48   587.77   592.29   593.92
eigval :      594.41   604.32   606.03   611.70   616.05   617.33
eigval :      624.31   626.30   634.28   646.51   659.14   661.14
eigval :      661.16   663.32   672.10   675.34   679.21   685.41
eigval :      690.20   693.69   703.81   707.90   715.44   716.76
eigval :      735.54   746.49   750.43   758.24   759.22   762.60
eigval :      764.78   769.01   770.53   809.75   812.07   815.08
eigval :      816.71   819.26   840.16   841.30   849.36   854.64
eigval :      863.59   867.74   869.89   870.18   872.16   876.15
eigval :      876.28   877.85   878.56   879.27   880.01   889.22
eigval :      893.32   894.45   894.56   895.10   902.33   909.71
eigval :      909.76   917.37   917.68   917.79   918.12   918.96
eigval :      925.34   925.56   925.72   927.87   928.48   928.48
eigval :      929.35   929.70   929.88   930.19   930.24   931.11
eigval :      931.78   944.28   947.89   959.80   983.72   990.65
eigval :     1001.36  1005.14  1006.25  1010.42  1012.29  1032.50
eigval :     1043.26  1064.10  1076.15  1081.91  1082.95  1083.05
eigval :     1085.18  1087.71  1098.24  1119.75  1121.62  1122.17
eigval :     1126.46  1135.81  1136.26  1144.62  1145.74  1154.83
eigval :     1155.28  1176.80  1180.65  1180.65  1184.14  1186.43
eigval :     1188.49  1188.53  1188.74  1192.39  1196.06  1197.17
eigval :     1197.75  1205.02  1210.63  1213.29  1216.97  1229.48
eigval :     1231.60  1234.07  1238.47  1256.30  1265.10  1266.93
eigval :     1269.84  1271.07  1274.67  1275.46  1276.02  1277.71
eigval :     1279.28  1280.49  1283.55  1284.95  1307.29  1310.88
eigval :     1313.28  1313.38  1314.10  1315.70  1316.76  1317.21
eigval :     1321.53  1325.78  1326.20  1326.48  1327.64  1329.90
eigval :     1331.46  1339.64  1363.74  1380.74  1388.23  1394.43
eigval :     1404.28  1410.79  1411.04  1424.09  1432.22  1434.29
eigval :     1436.63  1437.41  1442.83  1443.71  1452.10  1468.81
eigval :     1470.01  1471.10  1472.21  1475.24  1476.80  1488.45
eigval :     1490.89  1494.61  1498.41  1501.91  1524.16  1544.50
eigval :     1546.83  1552.88  1554.51  1555.98  1558.29  1577.97
eigval :     1578.04  1579.46  1581.66  1581.85  1584.88  1586.46
eigval :     1593.02  1593.96  1594.72  1595.91  1597.26  1597.45
eigval :     1601.63  1603.99  2373.74  2374.31  3076.21  3076.25
eigval :     3077.09  3077.13  3077.51  3077.70  3077.87  3077.93
eigval :     3078.29  3078.40  3081.18  3081.26  3082.13  3082.40
eigval :     3083.34  3083.40  3085.95  3086.21  3086.23  3086.26
eigval :     3086.79  3086.89  3089.33  3089.43  3090.50  3090.55
eigval :     3091.04  3091.04  3092.37  3092.57  3092.69  3093.11
eigval :     3093.94  3094.57  3094.72  3095.09  3095.12  3098.32
eigval :     3098.44  3098.86  3099.13  3105.68  3109.92  3109.97

   temp. (K)  partition function   enthalpy   heat capacity  entropy
                                   cal/mol     cal/K/mol   cal/K/mol   J/K/mol
 298.15  VIB  0.511E+31            36779.778    224.854    233.902
         ROT  0.264E+09              888.752      2.981     41.515
         INT  0.135E+40            37668.530    227.835    275.417
         TR   0.292E+29             1481.254      4.968     46.467
         TOT                       39149.7843   232.8031   321.8842  1346.7633

       T/K    H(0)-H(T)+PV         H(T)/Eh          T*S/Eh         G(T)/Eh
   ------------------------------------------------------------------------
    298.15    0.623892E-01    0.971828E+00    0.152938E+00    0.818890E+00
   ------------------------------------------------------------------------

         :::::::::::::::::::::::::::::::::::::::::::::::::::::
         ::                  THERMODYNAMIC                  ::
         :::::::::::::::::::::::::::::::::::::::::::::::::::::
         :: total free energy        -189.029264639948 Eh   ::
         ::.................................................::
         :: total energy             -189.848155026765 Eh   ::
         :: zero point energy           0.909438781296 Eh   ::
         :: G(RRHO) w/o ZPVE           -0.090548394479 Eh   ::
         :: G(RRHO) contrib.            0.818890386817 Eh   ::
         :::::::::::::::::::::::::::::::::::::::::::::::::::::

           -------------------------------------------------
          | TOTAL ENERGY             -189.848155026765 Eh   |
          | TOTAL ENTHALPY           -188.876327092961 Eh   |
          | TOTAL FREE ENERGY        -189.029264639948 Eh   |
          | GRADIENT NORM               0.000048224579 Eh/α |
          | HOMO-LUMO GAP               1.263591603828 eV   |
           -------------------------------------------------

 * finished run on 2025/09/03 at 21:32:06.524
