   * xtb version 6.7.1 (edcfbbe) compiled by 'albert@albert-system' on 2024-07-22

   ID    Z sym.   atoms
    1    6 C      1-7, 9, 10, 12-23, 25-35
    2    7 N      8, 11, 24
    3    1 H      36-58

          program call               : xtb data2507/toluene/DPA-DPQ/DPA-DPQ_toluene_T1_crest.xyz --gfn 2 --uhf 2 --gbsa toluene --ohess vtight --parallel 40 --molden --ceasefiles --namespace data2507/toluene/DPA-DPQ/DPA-DPQ_toluene_T1_finalOpt
      * Solvation model:               GBSA
        Solvent                        toluene
        Solvent mass                       9.2140E+01 g/mol
          :  Hamiltonian                  GFN2-xTB          :
 * total energy  :   -88.9899923 Eh     change       -0.6098162E-09 Eh
 * total energy  :   -88.9900391 Eh     change       -0.4681703E-04 Eh
 * total energy  :   -88.9900626 Eh     change       -0.2349597E-04 Eh
 * total energy  :   -88.9900698 Eh     change       -0.7256934E-05 Eh
 * total energy  :   -88.9900759 Eh     change       -0.6060170E-05 Eh
 * total energy  :   -88.9900808 Eh     change       -0.4920770E-05 Eh
 * total energy  :   -88.9900845 Eh     change       -0.3716564E-05 Eh
 * total energy  :   -88.9900863 Eh     change       -0.1797589E-05 Eh
 * total energy  :   -88.9900870 Eh     change       -0.6511079E-06 Eh
 * total energy  :   -88.9900870 Eh     change       -0.3279615E-07 Eh
 * total energy  :   -88.9900891 Eh     change       -0.5054315E-06 Eh
 * total energy  :   -88.9900894 Eh     change       -0.3177146E-06 Eh
 * total energy  :   -88.9900896 Eh     change       -0.2427408E-06 Eh
 * total energy  :   -88.9900899 Eh     change       -0.2790635E-06 Eh
 * total energy  :   -88.9900902 Eh     change       -0.2743674E-06 Eh
 * total energy  :   -88.9900905 Eh     change       -0.3085191E-06 Eh
 * total energy  :   -88.9900908 Eh     change       -0.2594607E-06 Eh
 * total energy  :   -88.9900910 Eh     change       -0.1912711E-06 Eh
 * total energy  :   -88.9900910 Eh     change       -0.2108550E-08 Eh
   *** GEOMETRY OPTIMIZATION CONVERGED AFTER 22 ITERATIONS ***

 final structure:
================
58
 xtb: 6.7.1 (edcfbbe)
C           -6.70156642255884       -2.45100847881713        0.35173010663015
C           -6.26841316612243       -1.74654559470463       -0.76011877590245
C           -4.98356304660780       -1.23965702571913       -0.80682246764388
C           -4.10694250050153       -1.43298912042000        0.25982740651556
C           -2.73179243408981       -0.91491194519521        0.20875922758771
C           -1.67815685240469       -1.77819840980690        0.51614421421989
C           -0.35144720400303       -1.37452470610113        0.46221944401413
N            0.66963858532181       -2.18287888114247        0.76818336383058
C            1.92031805157007       -1.76491767762941        0.64945566700251
C            2.21339018057933       -0.49399975666330        0.16088658119327
N            3.52021304453367       -0.05189693327916        0.05713391225999
C            4.52783135084998       -0.94564754329252       -0.32522985906904
C            5.78291318559686       -0.89906724480644        0.28514051851081
C            6.77093311586651       -1.78652572309206       -0.09541349780893
C            6.52415370083296       -2.73233340977610       -1.07847265067121
C            5.27713330582330       -2.78596762907761       -1.68309694823406
C            4.28298005730611       -1.90151354136698       -1.31301058481761
C            3.81724948472711        1.27565969602860        0.38569043017159
C            3.07155502644294        1.95227955279612        1.35112709470145
C            3.34545867646709        3.27626381066668        1.63768378258608
C            4.36740109925264        3.94005992956154        0.97894962739458
C            5.11299429335360        3.26993821433197        0.02031665290147
C            4.84367774671088        1.94978021514749       -0.27980748816205
N            1.21520580688836        0.33988336497434       -0.16664184186311
C           -0.05344591757955       -0.02962468396910        0.01045126259209
C           -1.11958653295784        0.81537203888239       -0.28017229057856
C           -2.44797326834905        0.40448802747026       -0.17338440560711
C           -3.51170177508375        1.39054711750488       -0.41978632683723
C           -4.56000782380248        1.55322446335622        0.48445362355539
C           -5.54785190420341        2.49174550543060        0.25377405422611
C           -5.50559485115923        3.28585401922701       -0.88098572501934
C           -4.46180449557183        3.14107422775946       -1.77999223940869
C           -3.46989390568263        2.20563693277939       -1.54942850452077
C           -4.54716950892186       -2.15810509971523        1.36584261681565
C           -5.83569223010201       -2.65696929963389        1.41339078023694
H           -7.70803137802906       -2.84161795964658        0.38896939441514
H           -6.93574547687502       -1.59108561627414       -1.59565095423240
H           -4.64695350540154       -0.69984251365211       -1.67986909312777
H           -1.88318060066352       -2.80350093833630        0.78468976890162
H            2.70672459938039       -2.42306662918508        0.98575892934383
H            5.96965056983727       -0.17159354767924        1.06098798552196
H            7.73669202875528       -1.74449448617975        0.38533690274682
H            7.29805957036223       -3.42497664289593       -1.37133637008724
H            5.07864227657634       -3.51692597521752       -2.45251546604284
H            3.31440685697416       -1.93408413098683       -1.79052515205665
H            2.28724287100377        1.43475762966129        1.88244735527753
H            2.76118199681003        3.78788414007579        2.38800530114918
H            4.58150467833056        4.97235969555231        1.20978335600000
H            5.90485422091146        3.78256252858320       -0.50511077764871
H            5.41093451465769        1.43732843710390       -1.04223643995418
H           -0.88975996437471        1.83622460079195       -0.54646337865005
H           -4.59050351435106        0.94626461202220        1.37749710852295
H           -6.35371696079132        2.60611278621648        0.96454223816544
H           -6.28076132945096        4.01620914806633       -1.06181374044960
H           -4.42088538851432        3.75907273147509       -2.66573753830931
H           -2.66356900474700        2.08553867608197       -2.25930320550447
H           -3.87637265358412       -2.31001206937752        2.19984936205162
H           -6.16634272423766       -3.20764119040771        2.28255464546530

          :  Hamiltonian                  GFN2-xTB          :
         :: gradient norm              0.000033428368 Eh/a0 ::
         :: HOMO-LUMO gap              1.068533480856 eV    ::
         :: SCC energy               -90.643210893135 Eh    ::
         :: -> dispersion             -0.077399838954 Eh    ::
         :: -> Gsolv                  -0.039623983219 Eh    ::
         :: repulsion energy           1.653119930412 Eh    ::

    * Orbital Energies and Occupations

         #    Occupation            Energy/Eh            Energy/eV
      -------------------------------------------------------------
         1        2.0000           -0.6862054             -18.6726
       ...           ...                  ...                  ...
        72        2.0000           -0.4211734             -11.4607
        73        2.0000           -0.4203287             -11.4377
        74        2.0000           -0.4187792             -11.3956
        75        2.0000           -0.4149234             -11.2906
        76        2.0000           -0.4123894             -11.2217
        77        2.0000           -0.4066105             -11.0644
        78        2.0000           -0.4025547             -10.9541
        79        2.0000           -0.4012677             -10.9191
        80        2.0000           -0.3892649             -10.5924
        81        2.0000           -0.3843462             -10.4586
        82        1.9997           -0.3726801             -10.1411
        83        1.0003           -0.3573997              -9.7253
        84        1.0000           -0.2927889              -7.9672 (HOMO)
        85                         -0.2535209              -6.8987 (LUMO)
        86                         -0.2433253              -6.6212
        87                         -0.2381027              -6.4791
        88                         -0.2324754              -6.3260
        89                         -0.2270364              -6.1780
        90                         -0.2236272              -6.0852
        91                         -0.2228721              -6.0647
        92                         -0.2179267              -5.9301
        93                         -0.2051546              -5.5825
        94                         -0.1962636              -5.3406
        95                         -0.1553588              -4.2275
       ...                                ...                  ...
       163                          0.7004539              19.0603
      -------------------------------------------------------------
                  HL-Gap            0.0392679 Eh            1.0685 eV

     #   Z          covCN         q      C6AA      α(0)
     1   6 C        2.920    -0.032    28.809     8.802
     2   6 C        2.918    -0.030    28.758     8.794
     3   6 C        2.924    -0.032    28.794     8.800
     4   6 C        2.977     0.013    27.719     8.636
     5   6 C        2.975    -0.000    28.027     8.684
     6   6 C        2.923    -0.071    29.767     8.947
     7   6 C        2.943     0.083    26.142     8.386
     8   7 N        1.844    -0.235    26.997     7.700
     9   6 C        2.879     0.019    27.593     8.611
    10   6 C        2.886     0.135    25.040     8.204
    11   7 N        2.754    -0.056    22.324     7.017
    12   6 C        2.925     0.062    26.621     8.461
    13   6 C        2.921    -0.043    29.059     8.840
    14   6 C        2.919    -0.026    28.644     8.777
    15   6 C        2.919    -0.030    28.760     8.794
    16   6 C        2.919    -0.026    28.645     8.777
    17   6 C        2.921    -0.042    29.042     8.837
    18   6 C        2.927     0.071    26.419     8.429
    19   6 C        2.921    -0.038    28.949     8.823
    20   6 C        2.919    -0.026    28.662     8.779
    21   6 C        2.919    -0.032    28.798     8.800
    22   6 C        2.919    -0.027    28.666     8.780
    23   6 C        2.921    -0.043    29.068     8.841
    24   7 N        1.849    -0.260    27.606     7.787
    25   6 C        2.940     0.090    25.995     8.362
    26   6 C        2.924    -0.071    29.767     8.947
    27   6 C        2.974    -0.002    28.063     8.689
    28   6 C        2.977     0.013    27.728     8.637
    29   6 C        2.924    -0.033    28.813     8.803
    30   6 C        2.918    -0.031    28.764     8.795
    31   6 C        2.920    -0.033    28.824     8.804
    32   6 C        2.918    -0.031    28.775     8.796
    33   6 C        2.925    -0.036    28.891     8.815
    34   6 C        2.925    -0.035    28.881     8.813
    35   6 C        2.918    -0.031    28.768     8.795
    36   1 H        0.926     0.032     2.553     2.499
    37   1 H        0.926     0.031     2.566     2.505
    38   1 H        0.926     0.028     2.621     2.532
    39   1 H        0.926     0.042     2.420     2.432
    40   1 H        0.926     0.040     2.450     2.448
    41   1 H        0.926     0.045     2.387     2.416
    42   1 H        0.926     0.049     2.326     2.385
    43   1 H        0.926     0.048     2.342     2.393
    44   1 H        0.926     0.047     2.362     2.404
    45   1 H        0.926     0.034     2.529     2.487
    46   1 H        0.926     0.033     2.544     2.494
    47   1 H        0.926     0.043     2.410     2.428
    48   1 H        0.926     0.045     2.382     2.413
    49   1 H        0.926     0.047     2.353     2.399
    50   1 H        0.926     0.043     2.403     2.424
    51   1 H        0.926     0.043     2.406     2.426
    52   1 H        0.926     0.027     2.633     2.538
    53   1 H        0.926     0.031     2.577     2.510
    54   1 H        0.926     0.032     2.562     2.503
    55   1 H        0.926     0.032     2.559     2.501
    56   1 H        0.926     0.030     2.583     2.513
    57   1 H        0.926     0.030     2.584     2.514
    58   1 H        0.926     0.032     2.553     2.499

molecular dipole:
                 x           y           z       tot (Debye)
 q only:        1.772       0.418      -0.095
   full:        1.748       0.330      -0.031       4.521

 projected vibrational frequencies (cm⁻¹)
eigval :       -0.00    -0.00     0.00     0.00     0.00     0.00
eigval :       14.71    20.43    31.20    45.91    48.58    53.92
eigval :       61.51    67.51    69.78    79.93    82.37    91.57
eigval :      141.12   162.65   171.42   194.07   221.83   229.29
eigval :      233.55   247.06   265.79   292.64   309.90   324.66
eigval :      350.11   356.65   374.29   374.92   378.05   382.69
eigval :      392.65   425.69   451.97   467.61   479.18   493.61
eigval :      515.51   519.78   541.37   552.69   573.36   580.90
eigval :      586.23   586.98   589.94   592.13   606.92   642.02
eigval :      651.08   656.09   663.39   666.71   677.40   681.73
eigval :      693.66   716.75   747.78   753.58   756.03   757.35
eigval :      761.26   790.33   812.26   824.55   843.45   864.11
eigval :      869.37   875.01   878.81   889.81   896.87   900.77
eigval :      902.50   906.35   919.22   923.63   925.67   927.08
eigval :      928.25   929.35   930.36   930.78   931.64   969.84
eigval :      974.46  1000.63  1002.51  1030.89  1071.59  1078.34
eigval :     1082.59  1082.93  1086.19  1118.35  1118.55  1119.27
eigval :     1124.88  1136.90  1174.47  1177.56  1178.78  1179.06
eigval :     1179.47  1191.34  1195.19  1198.36  1200.47  1209.07
eigval :     1244.18  1248.78  1262.93  1270.92  1273.55  1278.89
eigval :     1280.94  1286.63  1290.77  1303.04  1315.08  1317.96
eigval :     1319.09  1325.63  1350.72  1366.52  1390.02  1395.19
eigval :     1427.87  1428.75  1429.73  1438.79  1456.59  1457.56
eigval :     1473.16  1477.08  1484.61  1506.50  1513.59  1566.51
eigval :     1570.94  1575.71  1576.66  1578.28  1585.98  1593.61
eigval :     1595.61  3065.04  3065.05  3068.36  3069.41  3070.98
eigval :     3074.72  3075.16  3078.86  3080.49  3080.60  3081.92
eigval :     3082.32  3083.56  3083.90  3086.35  3088.57  3089.07
eigval :     3089.63  3090.94  3093.08  3094.11  3101.03  3102.31

   temp. (K)  partition function   enthalpy   heat capacity  entropy
                                   cal/mol     cal/K/mol   cal/K/mol   J/K/mol
 298.15  VIB  0.834E+12            15946.852    102.899     98.957
         ROT  0.345E+08              888.752      2.981     37.476
         INT  0.288E+20            16835.604    105.880    136.432
         TR   0.922E+28             1481.254      4.968     44.178
         TOT                       18316.8584   110.8480   180.6106   755.6746

       T/K    H(0)-H(T)+PV         H(T)/Eh          T*S/Eh         G(T)/Eh
   ------------------------------------------------------------------------
    298.15    0.291898E-01    0.473649E+00    0.858139E-01    0.387835E+00
   ------------------------------------------------------------------------

         :::::::::::::::::::::::::::::::::::::::::::::::::::::
         ::                  THERMODYNAMIC                  ::
         :::::::::::::::::::::::::::::::::::::::::::::::::::::
         :: total free energy         -88.602255585033 Eh   ::
         ::.................................................::
         :: total energy              -88.990090961476 Eh   ::
         :: zero point energy           0.444459505992 Eh   ::
         :: G(RRHO) w/o ZPVE           -0.056624129549 Eh   ::
         :: G(RRHO) contrib.            0.387835376443 Eh   ::
         :::::::::::::::::::::::::::::::::::::::::::::::::::::

           -------------------------------------------------
          | TOTAL ENERGY              -88.990090961476 Eh   |
          | TOTAL ENTHALPY            -88.516441683591 Eh   |
          | TOTAL FREE ENERGY         -88.602255585033 Eh   |
          | GRADIENT NORM               0.000033433030 Eh/α |
          | HOMO-LUMO GAP               1.068535054676 eV   |
           -------------------------------------------------

 * finished run on 2025/07/18 at 16:29:39.296
