   * xtb version 6.7.1 (edcfbbe) compiled by 'albert@albert-system' on 2024-07-22

   ID    Z sym.   atoms
    1    6 C      1-7, 9, 10, 12-23, 25-35
    2    7 N      8, 11, 24
    3    1 H      36-58

          program call               : xtb data2507/toluene/DPA-DPQ/DPA-DPQ_toluene_S0_crest.xyz --gfn 2 --gbsa toluene --ohess vtight --parallel 40 --molden --ceasefiles --namespace data2507/toluene/DPA-DPQ/DPA-DPQ_toluene_S0_finalOpt
      * Solvation model:               GBSA
        Solvent                        toluene
        Solvent mass                       9.2140E+01 g/mol
          :  Hamiltonian                  GFN2-xTB          :
 * total energy  :   -89.0551727 Eh     change       -0.8783871E-09 Eh
 * total energy  :   -89.0552107 Eh     change       -0.3796867E-04 Eh
 * total energy  :   -89.0552292 Eh     change       -0.1853551E-04 Eh
 * total energy  :   -89.0552392 Eh     change       -0.9940850E-05 Eh
 * total energy  :   -89.0552522 Eh     change       -0.1303992E-04 Eh
 * total energy  :   -89.0552632 Eh     change       -0.1101513E-04 Eh
 * total energy  :   -89.0552667 Eh     change       -0.3538549E-05 Eh
 * total energy  :   -89.0552679 Eh     change       -0.1132291E-05 Eh
 * total energy  :   -89.0552690 Eh     change       -0.1106104E-05 Eh
 * total energy  :   -89.0552703 Eh     change       -0.1290709E-05 Eh
 * total energy  :   -89.0552756 Eh     change       -0.7218954E-06 Eh
 * total energy  :   -89.0552764 Eh     change       -0.8258041E-06 Eh
 * total energy  :   -89.0552774 Eh     change       -0.9945839E-06 Eh
 * total energy  :   -89.0552786 Eh     change       -0.1143495E-05 Eh
 * total energy  :   -89.0552797 Eh     change       -0.1158628E-05 Eh
 * total energy  :   -89.0552807 Eh     change       -0.9201000E-06 Eh
 * total energy  :   -89.0552813 Eh     change       -0.6375226E-06 Eh
 * total energy  :   -89.0552819 Eh     change       -0.5782315E-06 Eh
 * total energy  :   -89.0552819 Eh     change       -0.1107881E-07 Eh
   *** GEOMETRY OPTIMIZATION CONVERGED AFTER 22 ITERATIONS ***

 final structure:
================
58
 xtb: 6.7.1 (edcfbbe)
C           -6.71805806929847       -2.43267644652554       -0.03388043497586
C           -6.24754396398005       -1.63025473727298        0.99273351917719
C           -4.95558785692990       -1.13957006192222        0.95662949771405
C           -4.11324160287456       -1.44810357147486       -0.10861857117487
C           -2.72587782385847       -0.95022564524184       -0.14203592844667
C           -1.69818555017187       -1.84271864695189       -0.34527579969592
C           -0.36136250594760       -1.42070896981911       -0.32289220703243
N            0.64054675248161       -2.30945430114117       -0.54728461346804
C            1.86001838235961       -1.87076928117347       -0.48273049152241
C            2.17054503123943       -0.50554831641586       -0.19403683991640
N            3.47204041976602       -0.07846705321001       -0.13592150374057
C            3.78025816695336        1.29568073638306       -0.25615777852836
C            4.71156171288605        1.87259654316783        0.60206531994730
C            5.03682326621431        3.21032701562351        0.47296431379241
C            4.43487640611438        3.98444794470079       -0.50504125998216
C            3.50652625341493        3.41111804021437       -1.35883050038017
C            3.18126049729759        2.07250052536711       -1.24221304536224
C            4.52253486527089       -0.97170585823620        0.15524020456771
C            5.72362020666408       -0.87314448393015       -0.54363325300994
C            6.76466394417681       -1.73608886902883       -0.25678146088611
C            6.62069476696440       -2.70598533779186        0.72243597837261
C            5.42988384356537       -2.80235008950377        1.42380078304480
C            4.38638974784481       -1.93710245821513        1.15028981119134
N            1.21155506526183        0.38215184400638       -0.01965660519877
C           -0.06305795531986       -0.05432275630541       -0.07684014786692
C           -1.12344833247121        0.84959921962300        0.10557365278634
C           -2.43131470322960        0.42503209908885        0.06985706519351
C           -3.51265752403546        1.41697160271964        0.21479955329603
C           -3.49774797834461        2.32497636880579        1.27016001359924
C           -4.50771775516178        3.26036215516629        1.40521532602491
C           -5.53837287348389        3.30971656205993        0.48129357000544
C           -5.55083381292740        2.42240007399063       -0.58256851299707
C           -4.54693324802706        1.48125413484566       -0.71552900875437
C           -4.58965471534568       -2.26788267856247       -1.12829256303233
C           -5.88503699453983       -2.75141768599396       -1.09348538785983
H           -7.72948424512354       -2.81089949664231       -0.00654448036688
H           -6.88982910882752       -1.38531551845190        1.82615045041469
H           -4.58887674907838       -0.52330678967771        1.76439392070011
H           -1.89894228958885       -2.89252431562482       -0.49953533970935
H            2.64465773346564       -2.58583809814710       -0.69403639260088
H            5.17635016260730        1.26931523819637        1.36841067931250
H            5.75947790529510        3.64951689288300        1.14470448017078
H            4.68781046900667        5.02947727623692       -0.60195443129612
H            3.03682996501400        4.00710051362281       -2.12742824566472
H            2.46261227373761        1.62550041253666       -1.91212972395093
H            5.83050860285086       -0.11760815181009       -1.30797430670380
H            7.69070759993556       -1.65371767482754       -0.80573088289140
H            7.43392037985686       -3.38086319782076        0.94154112861148
H            5.31301828983683       -3.54789490283235        2.19625357801427
H            3.46372912306909       -1.99984540475442        1.71023368052260
H           -0.88234997798696        1.89063082895706        0.26068515048319
H           -2.69905582366327        2.27982211688988        1.99698988679129
H           -4.49031818639702        3.95291406056559        2.23440276494759
H           -6.32771429659404        4.03929704387651        0.58805680883321
H           -6.34695919646385        2.46233580031349       -1.31179487340505
H           -4.55457961588471        0.79680762409259       -1.55106123889094
H           -3.94239427276365       -2.50910410023153       -1.95968948580038
H           -6.24537874923072       -3.37891673859668       -1.89598484650226

          :  Hamiltonian                  GFN2-xTB          :
         :: gradient norm              0.000074529900 Eh/a0 ::
         :: HOMO-LUMO gap              1.770786032893 eV    ::
         :: SCC energy               -90.711097606371 Eh    ::
         :: -> dispersion             -0.077522571470 Eh    ::
         :: -> Gsolv                  -0.039560186771 Eh    ::
         :: repulsion energy           1.655815720263 Eh    ::

    * Orbital Energies and Occupations

         #    Occupation            Energy/Eh            Energy/eV
      -------------------------------------------------------------
         1        2.0000           -0.6834621             -18.5979
       ...           ...                  ...                  ...
        71        2.0000           -0.4233193             -11.5191
        72        2.0000           -0.4201091             -11.4317
        73        2.0000           -0.4180268             -11.3751
        74        2.0000           -0.4169073             -11.3446
        75        2.0000           -0.4129838             -11.2379
        76        2.0000           -0.4110033             -11.1840
        77        2.0000           -0.4099701             -11.1559
        78        2.0000           -0.4067963             -11.0695
        79        2.0000           -0.4046765             -11.0118
        80        2.0000           -0.3958300             -10.7711
        81        2.0000           -0.3904850             -10.6256
        82        2.0000           -0.3687694             -10.0347
        83        2.0000           -0.3557356              -9.6801 (HOMO)
        84                         -0.2906604              -7.9093 (LUMO)
        85                         -0.2555043              -6.9526
        86                         -0.2392083              -6.5092
        87                         -0.2359314              -6.4200
        88                         -0.2299536              -6.2574
        89                         -0.2284908              -6.2176
        90                         -0.2271789              -6.1819
        91                         -0.2257293              -6.1424
        92                         -0.2216383              -6.0311
        93                         -0.2073444              -5.6421
        94                         -0.2028645              -5.5202
       ...                                ...                  ...
       163                          0.6968619              18.9626
      -------------------------------------------------------------
                  HL-Gap            0.0650752 Eh            1.7708 eV

     #   Z          covCN         q      C6AA      α(0)
     1   6 C        2.920    -0.031    28.769     8.796
     2   6 C        2.919    -0.030    28.737     8.791
     3   6 C        2.924    -0.031    28.775     8.797
     4   6 C        2.978     0.013    27.722     8.637
     5   6 C        2.976     0.004    27.921     8.667
     6   6 C        2.923    -0.051    29.258     8.870
     7   6 C        2.972     0.068    26.473     8.440
     8   7 N        1.839    -0.251    27.379     7.754
     9   6 C        2.899     0.044    27.005     8.521
    10   6 C        2.898     0.157    24.613     8.134
    11   7 N        2.756    -0.085    22.885     7.105
    12   6 C        2.927     0.073    26.374     8.422
    13   6 C        2.922    -0.044    29.087     8.844
    14   6 C        2.920    -0.028    28.709     8.787
    15   6 C        2.919    -0.034    28.839     8.806
    16   6 C        2.920    -0.028    28.692     8.784
    17   6 C        2.922    -0.036    28.908     8.817
    18   6 C        2.925     0.062    26.617     8.461
    19   6 C        2.922    -0.043    29.080     8.843
    20   6 C        2.919    -0.027    28.672     8.781
    21   6 C        2.919    -0.033    28.827     8.805
    22   6 C        2.919    -0.028    28.689     8.783
    23   6 C        2.921    -0.045    29.115     8.848
    24   7 N        1.850    -0.293    28.437     7.903
    25   6 C        2.964     0.083    26.141     8.386
    26   6 C        2.924    -0.055    29.373     8.888
    27   6 C        2.976     0.009    27.806     8.650
    28   6 C        2.979     0.013    27.716     8.636
    29   6 C        2.925    -0.034    28.836     8.806
    30   6 C        2.918    -0.029    28.736     8.791
    31   6 C        2.920    -0.030    28.759     8.794
    32   6 C        2.919    -0.029    28.731     8.790
    33   6 C        2.924    -0.030    28.760     8.795
    34   6 C        2.925    -0.034    28.852     8.809
    35   6 C        2.918    -0.030    28.741     8.791
    36   1 H        0.926     0.035     2.516     2.481
    37   1 H        0.926     0.034     2.529     2.487
    38   1 H        0.926     0.029     2.595     2.519
    39   1 H        0.926     0.049     2.330     2.387
    40   1 H        0.925     0.030     2.583     2.513
    41   1 H        0.926     0.036     2.508     2.477
    42   1 H        0.926     0.043     2.411     2.428
    43   1 H        0.926     0.042     2.416     2.431
    44   1 H        0.926     0.042     2.426     2.436
    45   1 H        0.926     0.034     2.533     2.489
    46   1 H        0.926     0.040     2.450     2.448
    47   1 H        0.926     0.046     2.364     2.405
    48   1 H        0.926     0.045     2.379     2.412
    49   1 H        0.926     0.043     2.403     2.424
    50   1 H        0.926     0.027     2.626     2.534
    51   1 H        0.926     0.049     2.332     2.388
    52   1 H        0.926     0.033     2.549     2.497
    53   1 H        0.926     0.036     2.507     2.476
    54   1 H        0.926     0.036     2.508     2.476
    55   1 H        0.926     0.035     2.521     2.483
    56   1 H        0.926     0.030     2.584     2.514
    57   1 H        0.926     0.032     2.555     2.500
    58   1 H        0.926     0.035     2.515     2.480

molecular dipole:
                 x           y           z       tot (Debye)
 q only:        0.489       0.479       0.087
   full:        0.517       0.372       0.107       1.642

 projected vibrational frequencies (cm⁻¹)
eigval :       -0.00    -0.00     0.00     0.00     0.00     0.00
eigval :       16.16    19.82    27.83    43.00    47.76    54.04
eigval :       56.46    63.61    66.34    71.94    77.42    91.50
eigval :      136.52   164.90   171.24   196.86   219.35   228.14
eigval :      235.36   247.68   261.83   302.50   311.02   331.92
eigval :      350.33   369.14   372.21   374.10   377.21   381.81
eigval :      408.69   422.83   447.56   470.75   483.63   497.31
eigval :      510.19   533.67   556.15   576.10   579.26   584.59
eigval :      588.17   590.80   592.16   600.42   614.83   652.12
eigval :      660.03   661.88   669.01   676.62   692.06   707.97
eigval :      725.56   746.36   756.98   757.87   759.59   761.44
eigval :      835.23   843.36   870.47   872.21   873.07   873.81
eigval :      876.92   877.33   882.62   895.08   899.02   901.40
eigval :      903.57   907.34   925.27   926.24   926.28   927.29
eigval :      928.28   928.78   929.66   929.85   930.25   970.45
eigval :      978.71  1003.34  1005.12  1035.10  1069.03  1081.03
eigval :     1082.86  1083.67  1085.80  1118.46  1120.17  1120.74
eigval :     1122.43  1175.62  1177.38  1179.09  1179.27  1180.69
eigval :     1185.05  1192.79  1195.58  1198.32  1203.53  1208.74
eigval :     1248.45  1253.91  1270.42  1277.44  1280.00  1280.22
eigval :     1284.77  1292.82  1311.29  1315.46  1316.65  1317.66
eigval :     1322.77  1344.64  1397.73  1411.46  1423.64  1427.05
eigval :     1432.14  1435.68  1444.53  1464.93  1468.42  1470.55
eigval :     1478.96  1486.47  1510.32  1556.05  1578.60  1579.46
eigval :     1580.48  1584.79  1590.09  1590.74  1595.38  1597.41
eigval :     1599.52  3044.42  3067.19  3068.69  3071.14  3071.63
eigval :     3071.71  3075.43  3076.76  3077.86  3078.32  3080.96
eigval :     3082.39  3083.64  3084.69  3084.97  3088.64  3090.25
eigval :     3090.64  3091.04  3091.26  3091.90  3098.37  3100.10

   temp. (K)  partition function   enthalpy   heat capacity  entropy
                                   cal/mol     cal/K/mol   cal/K/mol   J/K/mol
 298.15  VIB  0.113E+13            15827.045    101.271     98.576
         ROT  0.343E+08              888.752      2.981     37.464
         INT  0.389E+20            16715.798    104.252    136.040
         TR   0.922E+28             1481.254      4.968     44.178
         TOT                       18197.0515   109.2203   180.2178   754.0313

       T/K    H(0)-H(T)+PV         H(T)/Eh          T*S/Eh         G(T)/Eh
   ------------------------------------------------------------------------
    298.15    0.289988E-01    0.476093E+00    0.856273E-01    0.390466E+00
   ------------------------------------------------------------------------

         :::::::::::::::::::::::::::::::::::::::::::::::::::::
         ::                  THERMODYNAMIC                  ::
         :::::::::::::::::::::::::::::::::::::::::::::::::::::
         :: total free energy         -88.664815823636 Eh   ::
         ::.................................................::
         :: total energy              -89.055281881076 Eh   ::
         :: zero point energy           0.447094510474 Eh   ::
         :: G(RRHO) w/o ZPVE           -0.056628453034 Eh   ::
         :: G(RRHO) contrib.            0.390466057440 Eh   ::
         :::::::::::::::::::::::::::::::::::::::::::::::::::::

           -------------------------------------------------
          | TOTAL ENERGY              -89.055281881076 Eh   |
          | TOTAL ENTHALPY            -88.579188523188 Eh   |
          | TOTAL FREE ENERGY         -88.664815823636 Eh   |
          | GRADIENT NORM               0.000074523224 Eh/α |
          | HOMO-LUMO GAP               1.770786069006 eV   |
           -------------------------------------------------

 * finished run on 2025/07/18 at 16:26:31.560
