   * xtb version 6.7.1 (edcfbbe) compiled by 'albert@albert-system' on 2024-07-22

   ID    Z sym.   atoms
    1    6 C      1-7, 9, 10, 12-23, 25-35
    2    7 N      8, 11, 24
    3    1 H      36-58

          program call               : xtb data2507/toluene/DPA-DPQ/DPA-DPQ_toluene_S0_finalOpt.xtbopt.xyz --gfn 2 --uhf 2 --gbsa toluene --ohess vtight --parallel 40 --molden --ceasefiles --namespace data2507/toluene/DPA-DPQ/DPA-DPQ_toluene_T1_preOpt
      * Solvation model:               GBSA
        Solvent                        toluene
        Solvent mass                       9.2140E+01 g/mol
          :  Hamiltonian                  GFN2-xTB          :
 * total energy  :   -88.9828305 Eh     change       -0.4543921E-09 Eh
 * total energy  :   -88.9870874 Eh     change       -0.4256870E-02 Eh
 * total energy  :   -88.9885466 Eh     change       -0.1459214E-02 Eh
 * total energy  :   -88.9888955 Eh     change       -0.3489185E-03 Eh
 * total energy  :   -88.9891620 Eh     change       -0.2664655E-03 Eh
 * total energy  :   -88.9892963 Eh     change       -0.1343201E-03 Eh
 * total energy  :   -88.9894406 Eh     change       -0.1442440E-03 Eh
 * total energy  :   -88.9895782 Eh     change       -0.1376553E-03 Eh
 * total energy  :   -88.9896762 Eh     change       -0.9796728E-04 Eh
 * total energy  :   -88.9897251 Eh     change       -0.4890472E-04 Eh
 * total energy  :   -88.9900229 Eh     change       -0.7317064E-06 Eh
 * total energy  :   -88.9900236 Eh     change       -0.7071930E-06 Eh
 * total energy  :   -88.9900243 Eh     change       -0.6948318E-06 Eh
 * total energy  :   -88.9900250 Eh     change       -0.6793025E-06 Eh
 * total energy  :   -88.9900256 Eh     change       -0.6743828E-06 Eh
 * total energy  :   -88.9900263 Eh     change       -0.6688883E-06 Eh
 * total energy  :   -88.9900270 Eh     change       -0.6697039E-06 Eh
 * total energy  :   -88.9900276 Eh     change       -0.6699257E-06 Eh
 * total energy  :   -88.9900277 Eh     change       -0.5684186E-08 Eh
   *** GEOMETRY OPTIMIZATION CONVERGED AFTER 122 ITERATIONS ***

 final structure:
================
58
 xtb: 6.7.1 (edcfbbe)
C           -6.69640947398630       -2.46867959140178       -0.20307199752228
C           -6.25842486313701       -1.69533545308750        0.86000437116601
C           -4.97515516970510       -1.18273929620614        0.86646708546776
C           -4.10488905697267       -1.43663891990384       -0.19299130963539
C           -2.73009148155247       -0.91612578848446       -0.17730753050525
C           -1.67773738857964       -1.79051357047790       -0.45668783197043
C           -0.35066410402868       -1.38538383043513       -0.42394956765533
N            0.66863946729712       -2.20123781640536       -0.71362377240610
C            1.92029461621328       -1.78186912280607       -0.60872375865909
C            2.21625531253792       -0.50230181212420       -0.14485865254958
N            3.52173307445819       -0.05835033605858       -0.04498591095949
C            3.81252664800024        1.27779275754029       -0.34528156370250
C            4.83651123522690        1.93979512663403        0.33602944050924
C            5.10041768778544        3.26783433487709        0.06804910249072
C            4.35143605584590        3.95790275161017       -0.87374965236640
C            3.33262570893963        3.30580789513413       -1.54866750237896
C            3.06452234722210        1.97383705736314       -1.29480061342547
C            4.53978844045690       -0.95359420497046        0.30704267636523
C            5.78399368493182       -0.88787491770481       -0.32344684621607
C            6.78289729599051       -1.77762525901463        0.02162056021716
C            6.55775649754589       -2.74432221690744        0.98943833195090
C            5.32247661207224       -2.81519831015659        1.61589716447854
C            4.31770450576843       -1.92829831099694        1.28149523760292
N            1.21876841260147        0.34055272698812        0.16257591450400
C           -0.05018915226012       -0.02814901455854       -0.01160334590277
C           -1.11502829514604        0.82931606481546        0.24537911247215
C           -2.44396930505117        0.41786835590738        0.14991194556862
C           -3.50654780932983        1.41626607207479        0.34571610220137
C           -3.47095210312431        2.28323837723479        1.43621492324742
C           -4.46312003619866        3.22951761405230        1.61597522507204
C           -5.50048077821893        3.33355835579672        0.70398675148831
C           -5.53592585541357        2.48794073097994       -0.39321134561009
C           -4.54821412142288        1.53825941459739       -0.57268317429999
C           -4.55101623777171       -2.22816984242214       -1.25011292693444
C           -5.83749330598706       -2.73444570191718       -1.25706366412693
H           -7.70122043522322       -2.86524463823921       -0.20853193886671
H           -6.92006323361911       -1.49175546160509        1.68969001095112
H           -4.63418791853221       -0.59133046398363        1.70355974751039
H           -1.88349810433512       -2.82505690628898       -0.68630532823968
H            2.70416123751482       -2.44706125958721       -0.93702981541423
H            5.40598590521583        1.41125274277427        1.08576933005751
H            5.89021854734462        3.77082890378867        0.60575419937346
H            4.56092584729784        4.99651365478797       -1.07914455851787
H            2.74626929148943        3.83302888622240       -2.28646602509447
H            2.28328577331173        1.46596649798322       -1.83956811371936
H            5.95334295965659       -0.14335080138139       -1.08704175433104
H            7.73979378739074       -1.72104660990086       -0.47505746310761
H            7.33957727768624       -3.43954769121969        1.25380714668731
H            5.14136132306772       -3.56236653972664        2.37396428681824
H            3.35832839773355       -1.97471168522489        1.77598186535690
H           -0.88349821593877        1.85863230981266        0.47510936226469
H           -2.66984668133394        2.19545198060081        2.15658970623108
H           -4.42758103392402        3.88785461895688        2.47241560241973
H           -6.27585080759165        4.07235253887841        0.84528954187590
H           -6.33652996226609        2.57042204412031       -1.11430638443804
H           -4.57334444589918        0.89006749257378       -1.43654787196803
H           -3.88672024428594       -2.42728048668009       -2.07931923677759
H           -6.17201574303503       -3.33871073947714       -2.08827870749229

          :  Hamiltonian                  GFN2-xTB          :
         :: gradient norm              0.000062867689 Eh/a0 ::
         :: HOMO-LUMO gap              1.058222545992 eV    ::
         :: SCC energy               -90.643109690327 Eh    ::
         :: -> dispersion             -0.077430074151 Eh    ::
         :: -> Gsolv                  -0.039570376802 Eh    ::
         :: repulsion energy           1.653082036206 Eh    ::

    * Orbital Energies and Occupations

         #    Occupation            Energy/Eh            Energy/eV
      -------------------------------------------------------------
         1        2.0000           -0.6861878             -18.6721
       ...           ...                  ...                  ...
        72        2.0000           -0.4212235             -11.4621
        73        2.0000           -0.4203842             -11.4392
        74        2.0000           -0.4187004             -11.3934
        75        2.0000           -0.4147695             -11.2865
        76        2.0000           -0.4124029             -11.2221
        77        2.0000           -0.4065680             -11.0633
        78        2.0000           -0.4025292             -10.9534
        79        2.0000           -0.4012405             -10.9183
        80        2.0000           -0.3892339             -10.5916
        81        2.0000           -0.3841471             -10.4532
        82        1.9997           -0.3724006             -10.1335
        83        1.0003           -0.3572612              -9.7216
        84        1.0000           -0.2924740              -7.9586 (HOMO)
        85                         -0.2535851              -6.9004 (LUMO)
        86                         -0.2433222              -6.6211
        87                         -0.2381844              -6.4813
        88                         -0.2323994              -6.3239
        89                         -0.2272683              -6.1843
        90                         -0.2235493              -6.0831
        91                         -0.2227899              -6.0624
        92                         -0.2178700              -5.9285
        93                         -0.2047346              -5.5711
        94                         -0.1959652              -5.3325
        95                         -0.1548125              -4.2127
       ...                                ...                  ...
       163                          0.7007270              19.0678
      -------------------------------------------------------------
                  HL-Gap            0.0388889 Eh            1.0582 eV

     #   Z          covCN         q      C6AA      α(0)
     1   6 C        2.920    -0.032    28.809     8.802
     2   6 C        2.918    -0.030    28.759     8.794
     3   6 C        2.924    -0.032    28.796     8.800
     4   6 C        2.977     0.013    27.721     8.636
     5   6 C        2.975    -0.000    28.030     8.684
     6   6 C        2.922    -0.071    29.772     8.948
     7   6 C        2.943     0.083    26.143     8.386
     8   7 N        1.844    -0.235    27.000     7.701
     9   6 C        2.879     0.018    27.610     8.614
    10   6 C        2.886     0.135    25.041     8.204
    11   7 N        2.754    -0.056    22.317     7.016
    12   6 C        2.927     0.071    26.419     8.429
    13   6 C        2.922    -0.043    29.066     8.841
    14   6 C        2.919    -0.027    28.667     8.780
    15   6 C        2.919    -0.032    28.797     8.800
    16   6 C        2.919    -0.026    28.662     8.779
    17   6 C        2.921    -0.038    28.940     8.822
    18   6 C        2.925     0.061    26.625     8.462
    19   6 C        2.921    -0.042    29.055     8.839
    20   6 C        2.919    -0.026    28.644     8.776
    21   6 C        2.919    -0.030    28.759     8.794
    22   6 C        2.919    -0.026    28.646     8.777
    23   6 C        2.921    -0.042    29.042     8.837
    24   7 N        1.849    -0.260    27.604     7.787
    25   6 C        2.940     0.090    25.992     8.361
    26   6 C        2.924    -0.071    29.772     8.948
    27   6 C        2.974    -0.002    28.065     8.690
    28   6 C        2.977     0.013    27.726     8.637
    29   6 C        2.925    -0.036    28.892     8.815
    30   6 C        2.918    -0.031    28.775     8.797
    31   6 C        2.920    -0.033    28.825     8.804
    32   6 C        2.918    -0.031    28.765     8.795
    33   6 C        2.924    -0.033    28.813     8.803
    34   6 C        2.925    -0.035    28.883     8.813
    35   6 C        2.918    -0.031    28.769     8.796
    36   1 H        0.926     0.032     2.554     2.499
    37   1 H        0.926     0.031     2.567     2.506
    38   1 H        0.926     0.028     2.620     2.531
    39   1 H        0.926     0.042     2.420     2.433
    40   1 H        0.926     0.040     2.450     2.448
    41   1 H        0.926     0.043     2.407     2.426
    42   1 H        0.926     0.047     2.353     2.399
    43   1 H        0.926     0.045     2.382     2.413
    44   1 H        0.926     0.043     2.409     2.427
    45   1 H        0.926     0.034     2.530     2.487
    46   1 H        0.926     0.045     2.388     2.417
    47   1 H        0.926     0.049     2.326     2.385
    48   1 H        0.926     0.048     2.342     2.393
    49   1 H        0.926     0.047     2.361     2.403
    50   1 H        0.926     0.034     2.523     2.484
    51   1 H        0.926     0.043     2.407     2.426
    52   1 H        0.926     0.030     2.583     2.513
    53   1 H        0.926     0.032     2.559     2.502
    54   1 H        0.926     0.032     2.563     2.504
    55   1 H        0.926     0.031     2.578     2.511
    56   1 H        0.926     0.027     2.635     2.538
    57   1 H        0.926     0.030     2.582     2.513
    58   1 H        0.926     0.032     2.554     2.499

molecular dipole:
                 x           y           z       tot (Debye)
 q only:        1.792       0.423       0.086
   full:        1.766       0.336       0.024       4.571

 projected vibrational frequencies (cm⁻¹)
eigval :       -0.00    -0.00    -0.00     0.00     0.00     0.00
eigval :       11.46    20.87    28.98    44.44    46.61    52.28
eigval :       55.56    65.92    66.48    78.37    79.53    91.51
eigval :      140.39   162.64   171.55   193.83   221.38   229.74
eigval :      232.48   246.14   265.49   292.98   310.33   324.88
eigval :      350.42   355.42   371.63   374.94   375.68   381.93
eigval :      393.56   424.55   451.84   467.26   477.43   493.16
eigval :      514.98   519.87   541.14   552.80   572.73   580.35
eigval :      586.17   586.96   589.70   592.05   606.34   641.11
eigval :      650.97   655.86   663.01   665.20   675.86   680.60
eigval :      693.45   716.76   746.51   752.63   754.80   755.73
eigval :      759.24   797.52   819.34   825.46   843.65   863.67
eigval :      868.99   870.30   876.07   888.67   896.60   898.81
eigval :      900.83   906.40   919.30   922.58   925.59   926.13
eigval :      926.59   927.15   927.65   928.47   930.06   969.79
eigval :      974.45  1000.65  1002.42  1030.99  1071.83  1078.55
eigval :     1082.27  1082.50  1085.73  1118.06  1118.44  1118.70
eigval :     1124.89  1137.36  1175.39  1177.76  1178.02  1179.14
eigval :     1179.87  1191.37  1194.94  1197.60  1200.78  1209.33
eigval :     1243.93  1249.18  1263.04  1271.54  1273.33  1278.51
eigval :     1279.95  1286.75  1290.81  1302.95  1315.21  1318.09
eigval :     1319.02  1325.68  1350.67  1368.17  1390.13  1395.55
eigval :     1427.61  1428.62  1429.55  1438.77  1456.43  1457.60
eigval :     1472.80  1476.53  1484.16  1505.88  1513.05  1566.53
eigval :     1570.93  1575.26  1576.45  1578.27  1585.79  1593.43
eigval :     1595.39  3064.40  3065.32  3068.08  3069.46  3070.55
eigval :     3074.49  3075.39  3079.07  3079.94  3080.38  3081.84
eigval :     3082.17  3083.48  3084.32  3086.97  3088.55  3088.62
eigval :     3089.63  3090.66  3093.21  3094.35  3100.47  3102.29

   temp. (K)  partition function   enthalpy   heat capacity  entropy
                                   cal/mol     cal/K/mol   cal/K/mol   J/K/mol
 298.15  VIB  0.151E+13            15992.803    102.672     99.523
         ROT  0.345E+08              888.752      2.981     37.474
         INT  0.523E+20            16881.555    105.653    136.997
         TR   0.922E+28             1481.254      4.968     44.178
         TOT                       18362.8088   110.6214   181.1751   758.0368

       T/K    H(0)-H(T)+PV         H(T)/Eh          T*S/Eh         G(T)/Eh
   ------------------------------------------------------------------------
    298.15    0.292630E-01    0.473566E+00    0.860822E-01    0.387484E+00
   ------------------------------------------------------------------------

         :::::::::::::::::::::::::::::::::::::::::::::::::::::
         ::                  THERMODYNAMIC                  ::
         :::::::::::::::::::::::::::::::::::::::::::::::::::::
         :: total free energy         -88.602544073757 Eh   ::
         ::.................................................::
         :: total energy              -88.990027651178 Eh   ::
         :: zero point energy           0.444302732651 Eh   ::
         :: G(RRHO) w/o ZPVE           -0.056819155230 Eh   ::
         :: G(RRHO) contrib.            0.387483577421 Eh   ::
         :::::::::::::::::::::::::::::::::::::::::::::::::::::

           -------------------------------------------------
          | TOTAL ENERGY              -88.990027651178 Eh   |
          | TOTAL ENTHALPY            -88.516461920031 Eh   |
          | TOTAL FREE ENERGY         -88.602544073757 Eh   |
          | GRADIENT NORM               0.000062969854 Eh/α |
          | HOMO-LUMO GAP               1.058219919137 eV   |
           -------------------------------------------------

 * finished run on 2025/07/18 at 16:26:37.901
