   * xtb version 6.7.1 (edcfbbe) compiled by 'albert@albert-system' on 2024-07-22

   ID    Z sym.   atoms
    1    6 C      1-7, 9, 10, 12-23, 25-35
    2    7 N      8, 11, 24
    3    1 H      36-58

          program call               : xtb data2507/toluene/DPA-DPQ/DPA-DPQ.xyz --gfn 2 --gbsa toluene --ohess vtight --parallel 40 --molden --ceasefiles --namespace data2507/toluene/DPA-DPQ/DPA-DPQ_toluene_S0_preOpt
      * Solvation model:               GBSA
        Solvent                        toluene
        Solvent mass                       9.2140E+01 g/mol
          :  Hamiltonian                  GFN2-xTB          :
 * total energy  :   -89.0323649 Eh     change       -0.1131994E-08 Eh
 * total energy  :   -89.0461464 Eh     change       -0.1378155E-01 Eh
 * total energy  :   -89.0513351 Eh     change       -0.5188654E-02 Eh
 * total energy  :   -89.0526404 Eh     change       -0.1305295E-02 Eh
 * total energy  :   -89.0532874 Eh     change       -0.6470674E-03 Eh
 * total energy  :   -89.0534644 Eh     change       -0.1770060E-03 Eh
 * total energy  :   -89.0536475 Eh     change       -0.1831086E-03 Eh
 * total energy  :   -89.0538602 Eh     change       -0.2126592E-03 Eh
 * total energy  :   -89.0540996 Eh     change       -0.2394126E-03 Eh
 * total energy  :   -89.0543083 Eh     change       -0.2086888E-03 Eh
 * total energy  :   -89.0552705 Eh     change       -0.8310698E-06 Eh
 * total energy  :   -89.0552713 Eh     change       -0.7496211E-06 Eh
 * total energy  :   -89.0552720 Eh     change       -0.6802853E-06 Eh
 * total energy  :   -89.0552726 Eh     change       -0.6276021E-06 Eh
 * total energy  :   -89.0552732 Eh     change       -0.5946605E-06 Eh
 * total energy  :   -89.0552738 Eh     change       -0.5787669E-06 Eh
 * total energy  :   -89.0552743 Eh     change       -0.5748320E-06 Eh
 * total energy  :   -89.0552749 Eh     change       -0.5871564E-06 Eh
 * total energy  :   -89.0552749 Eh     change       -0.3960793E-08 Eh
   *** GEOMETRY OPTIMIZATION CONVERGED AFTER 68 ITERATIONS ***

 final structure:
================
58
 xtb: 6.7.1 (edcfbbe)
C           -6.66776205116286       -2.45488606034708       -0.29862256440269
C           -6.20301498573086       -1.75773989114154        0.80467283650078
C           -4.90738512256263       -1.27578406855932        0.82896830752567
C           -4.05534182928655       -1.48994402627823       -0.25140707835652
C           -2.66475052346203       -1.00003462027194       -0.22785571532096
C           -1.64066866967469       -1.88055159209577       -0.49246148999625
C           -0.30164676802931       -1.46984296277024       -0.42971784154473
N            0.69680026213998       -2.35013233121912       -0.69875734355031
C            1.91809274361705       -1.92293759188256       -0.60026240846377
C            2.23334339341781       -0.57575259400788       -0.24159835923921
N            3.53747776009774       -0.15577056054854       -0.17225017939398
C            3.84965540716760        1.21876347373519       -0.26916147126568
C            4.78600786961726        1.78065543744166        0.59341439869394
C            5.11373145536515        3.11945801081376        0.48235765342073
C            4.50937985861483        3.90946519096423       -0.48136581699720
C            3.57560964131655        3.35121142922211       -1.33926364472622
C            3.24800900642570        2.01182029427013       -1.24079800373293
C            4.58003810992040       -1.06130510089821        0.10570281360029
C            5.79093345298801       -0.95096605570467       -0.57432608245575
C            6.82336599860431       -1.82712356727682       -0.29665456646985
C            6.66109116998619       -2.82254226266618        0.65368805472300
C            5.45996577553087       -2.93182357070964        1.33529079213773
C            4.42499837386418       -2.05362278054057        1.07125575192020
N            1.27860789556128        0.30380810458200       -0.01274121763932
C            0.00227631850126       -0.12430031615024       -0.09217358450399
C           -1.05412681242887        0.76723197938202        0.16007122350596
C           -2.36393125518417        0.35164382762445        0.09597229913089
C           -3.43855991594685        1.33292084179499        0.33388858509872
C           -3.40701079792500        2.14388731929225        1.46532951326436
C           -4.40754929761251        3.07146570339708        1.69241236123714
C           -5.44596638633073        3.20996654944818        0.78641401853354
C           -5.47598905088583        2.41914607445322       -0.35066669489435
C           -4.48096089651210        1.48616706200863       -0.57656335774610
C           -4.52559743662007       -2.20636602157564       -1.34893867444850
C           -5.82489744814980       -2.67980573281478       -1.37437531694213
H           -7.68231475350698       -2.82507332671465       -0.31844504258111
H           -6.85308922412341       -1.58732342009797        1.65057892182612
H           -4.54593849016544       -0.74052042457473        1.69476479311526
H           -1.84628337757287       -2.91444052967149       -0.72694314419681
H            2.70137094721689       -2.63030183975401       -0.84085243861817
H            5.25285160743086        1.16510531083057        1.34861205812209
H            5.84049644712993        3.54718115887351        1.15704265541634
H            4.76475395269933        4.95510631154848       -0.56418588015810
H            3.10403639169308        3.95942740186758       -2.09704164061400
H            2.52576421675480        1.57594157550933       -1.91448692198434
H            5.91242866641821       -0.17587323402804       -1.31656064917099
H            7.75730095340588       -1.73503151926225       -0.83048681163193
H            7.46801340929118       -3.50719383589481        0.86570781668364
H            5.32833464772833       -3.69774906330597        2.08511181037890
H            3.49425244178071       -2.12656660146082        1.61639019482235
H           -0.80844547452256        1.79244970486984        0.39362346120828
H           -2.60198482584180        2.02842705674034        2.17735147992400
H           -4.37656861451788        3.68770369128726        2.57946629599833
H           -6.22784031025276        3.93366248932883        0.96447240884633
H           -6.27855609549745        2.52908902363404       -1.06542676194155
H           -4.50213514600831        0.87894931110437       -1.46953533526376
H           -3.87019723767306       -2.37390989049282       -2.19203518940227
H           -6.18047337709523       -3.22543994130147       -2.23660127797695

          :  Hamiltonian                  GFN2-xTB          :
         :: gradient norm              0.000052660915 Eh/a0 ::
         :: HOMO-LUMO gap              1.765381702475 eV    ::
         :: SCC energy               -90.711068537081 Eh    ::
         :: -> dispersion             -0.077505723864 Eh    ::
         :: -> Gsolv                  -0.039601128026 Eh    ::
         :: repulsion energy           1.655793619415 Eh    ::

    * Orbital Energies and Occupations

         #    Occupation            Energy/Eh            Energy/eV
      -------------------------------------------------------------
         1        2.0000           -0.6836796             -18.6039
       ...           ...                  ...                  ...
        71        2.0000           -0.4234524             -11.5227
        72        2.0000           -0.4202733             -11.4362
        73        2.0000           -0.4178552             -11.3704
        74        2.0000           -0.4168599             -11.3433
        75        2.0000           -0.4131248             -11.2417
        76        2.0000           -0.4110948             -11.1865
        77        2.0000           -0.4101052             -11.1595
        78        2.0000           -0.4069294             -11.0731
        79        2.0000           -0.4047223             -11.0131
        80        2.0000           -0.3959751             -10.7750
        81        2.0000           -0.3906900             -10.6312
        82        2.0000           -0.3688779             -10.0377
        83        2.0000           -0.3559412              -9.6857 (HOMO)
        84                         -0.2910646              -7.9203 (LUMO)
        85                         -0.2556524              -6.9567
        86                         -0.2390767              -6.5056
        87                         -0.2357741              -6.4157
        88                         -0.2300433              -6.2598
        89                         -0.2285064              -6.2180
        90                         -0.2272616              -6.1841
        91                         -0.2258610              -6.1460
        92                         -0.2216869              -6.0324
        93                         -0.2076045              -5.6492
        94                         -0.2030123              -5.5242
       ...                                ...                  ...
       163                          0.6963065              18.9475
      -------------------------------------------------------------
                  HL-Gap            0.0648766 Eh            1.7654 eV

     #   Z          covCN         q      C6AA      α(0)
     1   6 C        2.920    -0.031    28.768     8.796
     2   6 C        2.919    -0.029    28.735     8.791
     3   6 C        2.924    -0.031    28.772     8.796
     4   6 C        2.978     0.013    27.720     8.636
     5   6 C        2.976     0.005    27.915     8.667
     6   6 C        2.923    -0.051    29.257     8.870
     7   6 C        2.972     0.068    26.470     8.439
     8   7 N        1.839    -0.250    27.371     7.753
     9   6 C        2.899     0.045    26.999     8.520
    10   6 C        2.899     0.157    24.609     8.134
    11   7 N        2.756    -0.085    22.892     7.106
    12   6 C        2.927     0.073    26.371     8.422
    13   6 C        2.922    -0.044    29.087     8.844
    14   6 C        2.920    -0.028    28.707     8.786
    15   6 C        2.919    -0.034    28.841     8.807
    16   6 C        2.920    -0.028    28.693     8.784
    17   6 C        2.922    -0.037    28.913     8.818
    18   6 C        2.925     0.062    26.615     8.460
    19   6 C        2.922    -0.044    29.086     8.844
    20   6 C        2.919    -0.027    28.674     8.781
    21   6 C        2.919    -0.033    28.832     8.805
    22   6 C        2.919    -0.028    28.690     8.784
    23   6 C        2.921    -0.045    29.119     8.849
    24   7 N        1.850    -0.292    28.419     7.901
    25   6 C        2.965     0.083    26.141     8.386
    26   6 C        2.924    -0.055    29.370     8.887
    27   6 C        2.976     0.009    27.803     8.649
    28   6 C        2.979     0.013    27.717     8.636
    29   6 C        2.925    -0.034    28.836     8.806
    30   6 C        2.918    -0.029    28.735     8.790
    31   6 C        2.920    -0.030    28.757     8.794
    32   6 C        2.919    -0.029    28.731     8.790
    33   6 C        2.924    -0.030    28.759     8.794
    34   6 C        2.925    -0.034    28.851     8.808
    35   6 C        2.918    -0.030    28.740     8.791
    36   1 H        0.926     0.035     2.515     2.480
    37   1 H        0.926     0.034     2.528     2.486
    38   1 H        0.926     0.029     2.595     2.519
    39   1 H        0.926     0.049     2.328     2.386
    40   1 H        0.925     0.030     2.582     2.513
    41   1 H        0.926     0.036     2.504     2.475
    42   1 H        0.926     0.043     2.410     2.428
    43   1 H        0.926     0.042     2.416     2.431
    44   1 H        0.926     0.042     2.428     2.437
    45   1 H        0.926     0.032     2.552     2.498
    46   1 H        0.926     0.040     2.452     2.449
    47   1 H        0.926     0.046     2.367     2.406
    48   1 H        0.926     0.045     2.382     2.414
    49   1 H        0.926     0.043     2.406     2.426
    50   1 H        0.926     0.027     2.635     2.538
    51   1 H        0.926     0.049     2.329     2.387
    52   1 H        0.926     0.033     2.551     2.497
    53   1 H        0.926     0.036     2.506     2.476
    54   1 H        0.926     0.036     2.506     2.476
    55   1 H        0.926     0.035     2.519     2.482
    56   1 H        0.926     0.030     2.581     2.513
    57   1 H        0.926     0.032     2.556     2.500
    58   1 H        0.926     0.035     2.514     2.479

molecular dipole:
                 x           y           z       tot (Debye)
 q only:        0.452       0.471       0.111
   full:        0.481       0.364       0.125       1.566

 projected vibrational frequencies (cm⁻¹)
eigval :       -0.00    -0.00     0.00     0.00     0.00     0.00
eigval :       17.29    21.74    28.61    46.04    49.63    52.65
eigval :       62.85    65.67    67.90    76.25    78.39    93.29
eigval :      138.19   164.16   171.75   197.14   220.38   228.76
eigval :      234.94   248.35   262.51   302.40   311.50   331.88
eigval :      349.97   371.26   374.21   376.38   378.13   383.11
eigval :      408.61   424.31   449.41   471.77   484.85   497.58
eigval :      510.94   534.16   556.10   574.94   579.64   584.80
eigval :      588.61   590.77   592.49   601.25   615.97   652.53
eigval :      660.34   663.36   669.24   678.23   693.19   708.06
eigval :      725.27   747.63   757.35   758.14   759.72   763.87
eigval :      834.89   845.96   871.90   872.25   874.41   876.24
eigval :      877.52   880.08   885.85   894.89   898.03   902.61
eigval :      905.07   907.25   925.99   926.26   927.27   928.26
eigval :      928.55   928.84   929.91   930.60   932.22   970.53
eigval :      978.85  1003.63  1005.14  1034.95  1068.61  1080.80
eigval :     1082.47  1083.37  1085.53  1117.78  1119.26  1119.97
eigval :     1122.36  1174.95  1177.80  1178.39  1178.47  1178.55
eigval :     1184.84  1192.51  1194.61  1197.64  1202.70  1207.87
eigval :     1248.26  1254.20  1270.17  1276.92  1279.19  1280.22
eigval :     1284.51  1293.56  1311.27  1315.70  1316.60  1317.43
eigval :     1322.96  1344.03  1397.32  1411.03  1423.01  1426.98
eigval :     1432.17  1435.40  1444.15  1464.97  1468.35  1470.51
eigval :     1478.98  1486.59  1510.11  1556.10  1578.56  1579.27
eigval :     1580.51  1584.81  1590.23  1590.83  1595.48  1597.36
eigval :     1599.49  3044.20  3066.91  3067.96  3070.75  3071.39
eigval :     3071.97  3076.28  3076.66  3077.58  3077.92  3080.81
eigval :     3082.69  3083.98  3084.35  3085.46  3088.75  3090.09
eigval :     3090.26  3090.70  3091.24  3091.55  3097.69  3099.69

   temp. (K)  partition function   enthalpy   heat capacity  entropy
                                   cal/mol     cal/K/mol   cal/K/mol   J/K/mol
 298.15  VIB  0.691E+12            15776.726    101.459     98.058
         ROT  0.344E+08              888.752      2.981     37.464
         INT  0.237E+20            16665.479    104.440    135.522
         TR   0.922E+28             1481.254      4.968     44.178
         TOT                       18146.7325   109.4080   179.7001   751.8651

       T/K    H(0)-H(T)+PV         H(T)/Eh          T*S/Eh         G(T)/Eh
   ------------------------------------------------------------------------
    298.15    0.289187E-01    0.476148E+00    0.853813E-01    0.390767E+00
   ------------------------------------------------------------------------

         :::::::::::::::::::::::::::::::::::::::::::::::::::::
         ::                  THERMODYNAMIC                  ::
         :::::::::::::::::::::::::::::::::::::::::::::::::::::
         :: total free energy         -88.664508269363 Eh   ::
         ::.................................................::
         :: total energy              -89.055274913898 Eh   ::
         :: zero point energy           0.447229289338 Eh   ::
         :: G(RRHO) w/o ZPVE           -0.056462644803 Eh   ::
         :: G(RRHO) contrib.            0.390766644536 Eh   ::
         :::::::::::::::::::::::::::::::::::::::::::::::::::::

           -------------------------------------------------
          | TOTAL ENERGY              -89.055274913898 Eh   |
          | TOTAL ENTHALPY            -88.579126965647 Eh   |
          | TOTAL FREE ENERGY         -88.664508269363 Eh   |
          | GRADIENT NORM               0.000052662067 Eh/α |
          | HOMO-LUMO GAP               1.765381628740 eV   |
           -------------------------------------------------

 * finished run on 2025/07/18 at 16:23:48.965
