   * xtb version 6.7.1 (edcfbbe) compiled by 'albert@albert-system' on 2024-07-22

   ID    Z sym.   atoms
    1    6 C      1-5, 7-10, 12-17, 19-26, 28-36
    2    7 N      6, 11, 27
    3    8 O      18
    4    1 H      37-57

          program call               : xtb data2507/gas/SBDBQ-PXZ/SBDBQ-PXZ_gas_T1_crest.xyz --gfn 2 --spinpol --tblite --uhf 2 --ohess vtight --parallel 40 --molden --ceasefiles --namespace data2507/gas/SBDBQ-PXZ/SBDBQ-PXZ_gas_T1_finalOpt
 * total energy  :   -92.0333335 Eh     change       -0.4928282E-08 Eh
 * total energy  :   -92.0333593 Eh     change       -0.2573062E-04 Eh
 * total energy  :   -92.0333649 Eh     change       -0.5660451E-05 Eh
 * total energy  :   -92.0333665 Eh     change       -0.1623581E-05 Eh
 * total energy  :   -92.0333686 Eh     change       -0.2015091E-05 Eh
 * total energy  :   -92.0333703 Eh     change       -0.1760711E-05 Eh
 * total energy  :   -92.0333724 Eh     change       -0.2063074E-05 Eh
 * total energy  :   -92.0333736 Eh     change       -0.1256820E-05 Eh
 * total energy  :   -92.0333738 Eh     change       -0.1782865E-06 Eh
 * total energy  :   -92.0333745 Eh     change       -0.6563651E-06 Eh
 * total energy  :   -92.0333773 Eh     change       -0.5863392E-06 Eh
 * total energy  :   -92.0333778 Eh     change       -0.4778373E-06 Eh
 * total energy  :   -92.0333784 Eh     change       -0.6342453E-06 Eh
 * total energy  :   -92.0333789 Eh     change       -0.4871172E-06 Eh
 * total energy  :   -92.0333793 Eh     change       -0.3958195E-06 Eh
 * total energy  :   -92.0333796 Eh     change       -0.2976821E-06 Eh
 * total energy  :   -92.0333799 Eh     change       -0.2525296E-06 Eh
 * total energy  :   -92.0333801 Eh     change       -0.2324645E-06 Eh
 * total energy  :   -92.0333801 Eh     change       -0.1619799E-07 Eh
   *** GEOMETRY OPTIMIZATION CONVERGED AFTER 22 ITERATIONS ***

 final structure:
================
57
 xtb: 6.7.1 (edcfbbe)
C           -6.94715137325450        1.76991497339000       -1.56367801380464
C           -6.03800032380435        2.75075376942320       -1.20260685592983
C           -4.75513844617945        2.40454248996525       -0.82493574386804
C           -4.36712263437560        1.06528688113657       -0.79208494520600
C           -2.99466604369771        0.72881067774431       -0.41401368375393
N           -2.02240611474487        1.51338614804008       -0.87424467665864
C           -0.73416239189185        1.23553122501790       -0.68935715561056
C            0.29056917079008        2.04835089440443       -1.16735064569574
C            1.62064285725292        1.69903905273160       -0.99279283277807
C            1.95092974347678        0.52942326385264       -0.32482593106306
N            3.31260221852148        0.17211348325205       -0.15414421129995
C            4.14327310272305        0.92960317882478        0.66147455729819
C            3.67481001866701        2.02011796398680        1.38766539669263
C            4.53147833937297        2.75510527004471        2.18947549034827
C            5.86717810577434        2.41200702960564        2.28696238904067
C            6.34624503291085        1.31451229215411        1.58858516989851
C            5.49579749849047        0.57421911837848        0.78731710800700
O            6.02913652150883       -0.51145898438843        0.14379412489909
C            5.19217807752304       -1.25627250125907       -0.64506776688529
C            5.73961394115299       -2.35157234807022       -1.28841114145744
C            4.95492309575549       -3.13655464160703       -2.11900667624504
C            3.62498205228003       -2.81191094266193       -2.31098420726785
C            3.06970820202434       -1.71757090682006       -1.66959938132265
C            3.83682267620886       -0.93133676855053       -0.81548047474353
C            0.95206747802528       -0.30206148554565        0.18365796612534
C           -0.38791457811274        0.02131013946428        0.01827511992609
N           -1.37684314162075       -0.72330784674915        0.51451375283882
C           -2.65813444166514       -0.39486564085314        0.36401115266877
C           -3.65048239225946       -1.22317469452622        1.04848065618650
C           -4.74962508358874       -0.66037855455330        1.69698690119287
C           -5.65453753254952       -1.46736199571480        2.35799408322767
C           -5.47551563384086       -2.84155578751736        2.38957159955989
C           -4.37290447677963       -3.40515328441346        1.76850341219085
C           -3.46254327923085       -2.60406227426393        1.10703239528958
C           -5.28028953024397        0.08516495963948       -1.18016884464279
C           -6.56039371951457        0.43885116874631       -1.55874043914126
H           -7.95052744137920        2.04134378350216       -1.85665260699947
H           -6.33046866703952        3.79069544070087       -1.21651878959163
H           -4.04011186239774        3.16325513934576       -0.54421282372895
H            0.02343302823005        2.94736059227105       -1.69897785411935
H            2.40326585861141        2.33319275461582       -1.38087085728557
H            2.63182899579969        2.28695378209015        1.32434959503807
H            4.14487950776382        3.59851017025286        2.74034777544305
H            6.53701554596553        2.98566971252549        2.90765190469079
H            7.37914829916054        1.01234287394295        1.65457041188711
H            6.78338071346248       -2.56971554067868       -1.12872235084589
H            5.38866588889531       -3.98977729496831       -2.61593482551253
H            3.00853839789789       -3.40805149446791       -2.96585435491411
H            2.03431448011375       -1.46483957958305       -1.83283009674069
H            1.21078600702358       -1.19575276769325        0.72906110855233
H           -4.88558949366760        0.41093293380133        1.69194236367412
H           -6.50251267931299       -1.02153047510844        2.85699169007270
H           -6.18822833374494       -3.46894784411344        2.90404837883492
H           -4.22178328115620       -4.47442564340539        1.80097672140950
H           -2.59959770931935       -3.03537603555187        0.62231815012164
H           -4.98018552852623       -0.95212426163030       -1.19632332507889
H           -7.25983847708351       -0.32800232805688       -1.85802022012330

 projected vibrational frequencies (cm⁻¹)
eigval :       -0.00    -0.00    -0.00    -0.00     0.00     0.00
eigval :       13.34    18.15    25.01    40.17    43.05    47.87
eigval :       57.30    60.16    80.18    83.15   111.25   139.89
eigval :      143.48   168.19   180.18   215.02   233.79   246.72
eigval :      253.91   256.61   268.35   286.88   296.59   339.67
eigval :      355.03   371.23   379.00   381.58   396.61   403.94
eigval :      427.32   429.30   443.85   451.76   462.67   505.57
eigval :      510.68   513.57   523.24   541.72   548.19   552.39
eigval :      575.42   583.14   590.00   591.99   614.56   618.25
eigval :      626.07   660.48   664.39   666.14   666.40   668.42
eigval :      676.81   689.59   713.85   756.59   756.94   776.95
eigval :      777.88   788.77   793.24   800.09   828.99   850.03
eigval :      855.29   863.88   864.54   872.22   873.90   875.18
eigval :      897.07   897.94   899.15   900.60   915.57   915.69
eigval :      916.03   921.23   926.29   926.92   928.96   930.77
eigval :      972.92   992.84  1006.46  1080.21  1082.38  1086.98
eigval :     1087.84  1103.43  1110.95  1117.42  1119.60  1120.73
eigval :     1130.77  1166.48  1175.06  1180.90  1180.98  1181.98
eigval :     1192.69  1197.09  1202.24  1204.51  1223.02  1230.05
eigval :     1240.29  1252.58  1261.83  1269.60  1276.83  1281.09
eigval :     1286.39  1308.04  1312.00  1314.75  1319.30  1324.47
eigval :     1330.69  1343.59  1357.81  1394.89  1416.16  1422.04
eigval :     1430.19  1430.78  1443.27  1461.64  1465.18  1470.44
eigval :     1478.76  1489.95  1509.18  1526.33  1561.95  1571.08
eigval :     1572.87  1573.24  1582.45  1589.80  1590.23  1594.09
eigval :     3073.35  3073.49  3076.42  3076.87  3085.71  3086.32
eigval :     3089.56  3091.25  3092.07  3092.19  3092.24  3095.41
eigval :     3095.66  3101.31  3101.37  3101.88  3105.43  3109.46
eigval :     3111.29  3113.92  3114.37

   temp. (K)  partition function   enthalpy   heat capacity  entropy
                                   cal/mol     cal/K/mol   cal/K/mol   J/K/mol
 298.15  VIB  0.796E+12            15841.612    102.698     97.263
         ROT  0.372E+08              888.752      2.981     37.621
         INT  0.296E+20            16730.364    105.679    134.883
         TR   0.966E+28             1481.254      4.968     44.270
         TOT                       18211.6184   110.6474   179.1528   749.5754

       T/K    H(0)-H(T)+PV         H(T)/Eh          T*S/Eh         G(T)/Eh
   ------------------------------------------------------------------------
    298.15    0.290221E-01    0.457098E+00    0.851213E-01    0.371977E+00
   ------------------------------------------------------------------------

         :::::::::::::::::::::::::::::::::::::::::::::::::::::
         ::                  THERMODYNAMIC                  ::
         :::::::::::::::::::::::::::::::::::::::::::::::::::::
         :: total free energy         -91.661403327917 Eh   ::
         ::.................................................::
         :: total energy              -92.033380105548 Eh   ::
         :: zero point energy           0.428076000160 Eh   ::
         :: G(RRHO) w/o ZPVE           -0.056099222529 Eh   ::
         :: G(RRHO) contrib.            0.371976777631 Eh   ::
         :::::::::::::::::::::::::::::::::::::::::::::::::::::

           -------------------------------------------------
          | TOTAL ENERGY              -92.033380105548 Eh   |
          | TOTAL ENTHALPY            -91.576282044154 Eh   |
          | TOTAL FREE ENERGY         -91.661403327917 Eh   |
          | GRADIENT NORM               0.000067758673 Eh/α |
           -------------------------------------------------

 * finished run on 2025/08/30 at 12:41:57.179
