   * xtb version 6.7.1 (edcfbbe) compiled by 'albert@albert-system' on 2024-07-22

   ID    Z sym.   atoms
    1    6 C      1-5, 7-10, 12-17, 19-26, 28-36
    2    7 N      6, 11, 27
    3    8 O      18
    4    1 H      37-57

          program call               : xtb data2507/gas/SBDBQ-PXZ/SBDBQ-PXZ_gas_S0_crest.xyz --gfn 2 --ohess vtight --parallel 40 --molden --ceasefiles --namespace data2507/gas/SBDBQ-PXZ/SBDBQ-PXZ_gas_S0_finalOpt
          :  Hamiltonian                  GFN2-xTB          :
 * total energy  :   -92.0834117 Eh     change       -0.1526075E-08 Eh
 * total energy  :   -92.0834120 Eh     change       -0.3380115E-06 Eh
 * total energy  :   -92.0834123 Eh     change       -0.2429910E-06 Eh
 * total energy  :   -92.0834127 Eh     change       -0.4264334E-06 Eh
 * total energy  :   -92.0834130 Eh     change       -0.2753187E-06 Eh
 * total energy  :   -92.0834131 Eh     change       -0.1385127E-06 Eh
 * total energy  :   -92.0834132 Eh     change       -0.9551751E-07 Eh
   *** GEOMETRY OPTIMIZATION CONVERGED AFTER 7 ITERATIONS ***

 final structure:
================
57
 xtb: 6.7.1 (edcfbbe)
C           -6.91513420717378        1.66218009487525        1.67051709490696
C           -6.04300868647038        2.67393467484652        1.30337651038340
C           -4.75605535222286        2.36833956356694        0.90379654770206
C           -4.33247686360064        1.04251956207891        0.85189996527842
C           -2.95969391074543        0.74007986654047        0.43192093377773
N           -2.01912914627879        1.54797409246779        0.86183857396502
C           -0.73516570911331        1.23835233133235        0.61298335375426
C            0.30081393151174        2.09137173692523        1.04379933803272
C            1.60244086726475        1.72060519353613        0.86865582497247
C            1.93096384625199        0.48892554089287        0.25676860628083
N            3.28905623634587        0.13826337927448        0.12201289326175
C            3.80865611102565       -0.99369083445034        0.75741018396658
C            3.02920206052358       -1.83411383858391        1.54207233054729
C            3.58286449335099       -2.94229109453986        2.16493703365974
C            4.92560882977004       -3.22615842696421        2.02150762897491
C            5.72390464928816       -2.38153915616425        1.26488465888026
C            5.17771746013683       -1.27256456081336        0.64579785339283
O            6.04197893192535       -0.46669062184650       -0.05299025091315
C            5.51166185673505        0.62478834959182       -0.69322387409169
C            6.38345119400375        1.40663370955969       -1.42786270629648
C            5.91529609495914        2.50890255729449       -2.12782785520783
C            4.56817281253695        2.80738311215527       -2.10439318968316
C            3.68968684529374        2.02644624207893       -1.36880281821807
C            4.14828684204089        0.94174194678172       -0.63151132376685
C            0.94008200157533       -0.35090451299587       -0.19345198386053
C           -0.40691994961883        0.01572016287178       -0.03526884268076
N           -1.38180988028490       -0.75628581975248       -0.55280947018479
C           -2.63057277428495       -0.39493445466630       -0.38187929554548
C           -3.64794534659927       -1.18324486198322       -1.08703007510849
C           -4.73017601963856       -0.56858038510243       -1.71324216541443
C           -5.66681538603136       -1.33139480478291       -2.38415234314869
C           -5.53719948036550       -2.70991878948453       -2.43684115389968
C           -4.45321697387948       -3.32484943113627       -1.83205164917527
C           -3.50828841623204       -2.56654976479993       -1.16749576228952
C           -5.20814949642372        0.03070979810337        1.24039913123835
C           -6.49110013008354        0.34327701965817        1.64730894010786
H           -7.92139829500712        1.90082405128830        1.98181451529948
H           -6.36743220292215        3.70387599127551        1.33117435674563
H           -4.06425815231023        3.14663482007763        0.61973934710452
H            0.03512187157483        3.01809555330741        1.52773698607764
H            2.40616401495782        2.35520075149041        1.21255532644997
H            1.98137660068197       -1.61759895768725        1.67716180902336
H            2.95102586086068       -3.57841957165884        2.76550625775200
H            5.36019759464367       -4.08988919653969        2.49930549067818
H            6.78054881458609       -2.56168423424161        1.14765171343806
H            7.42625206556083        1.13277601514462       -1.44240220258006
H            6.60352448420409        3.11574260260128       -2.69466465746245
H            4.18500559555591        3.64812165294448       -2.66197097656227
H            2.63633662713984        2.25950572531786       -1.37449988772710
H            1.17179380785414       -1.28386142571400       -0.68356679493289
H           -4.82757668932558        0.50698260482075       -1.68856002163858
H           -6.50175239687359       -0.84782678148019       -2.86951897078652
H           -6.27629209608347       -3.30258848538271       -2.95541038558487
H           -4.34378183318863       -4.39833568170320       -1.88129829110355
H           -2.65581063761604       -3.03165070119759       -0.69638373017070
H           -4.87782692219494       -0.99778970465700        1.23980077793601
H           -7.16342838349061       -0.44621460417187        1.94939940504556

          :  Hamiltonian                  GFN2-xTB          :
         :: gradient norm              0.000026219160 Eh/a0 ::
         :: HOMO-LUMO gap              1.278288114724 eV    ::
         :: SCC energy               -93.725936299805 Eh    ::
         :: -> dispersion             -0.077414057591 Eh    ::
         :: repulsion energy           1.642523098261 Eh    ::

    * Orbital Energies and Occupations

         #    Occupation            Energy/Eh            Energy/eV
      -------------------------------------------------------------
         1        2.0000           -0.7261718             -19.7601
       ...           ...                  ...                  ...
        73        2.0000           -0.4252088             -11.5705
        74        2.0000           -0.4205420             -11.4435
        75        2.0000           -0.4175984             -11.3634
        76        2.0000           -0.4146713             -11.2838
        77        2.0000           -0.4140929             -11.2680
        78        2.0000           -0.4120146             -11.2115
        79        2.0000           -0.4109673             -11.1830
        80        2.0000           -0.4081951             -11.1076
        81        2.0000           -0.4026898             -10.9577
        82        2.0000           -0.3919100             -10.6644
        83        2.0000           -0.3879144             -10.5557
        84        2.0000           -0.3526962              -9.5974
        85        2.0000           -0.3418005              -9.3009 (HOMO)
        86                         -0.2948244              -8.0226 (LUMO)
        87                         -0.2658435              -7.2340
        88                         -0.2366621              -6.4399
        89                         -0.2311316              -6.2894
        90                         -0.2283913              -6.2148
        91                         -0.2272568              -6.1840
        92                         -0.2249180              -6.1203
        93                         -0.2236866              -6.0868
        94                         -0.2126627              -5.7868
        95                         -0.2100840              -5.7167
        96                         -0.1939156              -5.2767
       ...                                ...                  ...
       165                          0.6941993              18.8901
      -------------------------------------------------------------
                  HL-Gap            0.0469761 Eh            1.2783 eV

     #   Z          covCN         q      C6AA      α(0)
     1   6 C        2.920    -0.028    28.689     8.783
     2   6 C        2.919    -0.028    28.691     8.784
     3   6 C        2.925    -0.026    28.650     8.778
     4   6 C        2.982     0.008    27.836     8.654
     5   6 C        2.951     0.085    26.105     8.380
     6   7 N        1.851    -0.233    26.955     7.695
     7   6 C        2.964     0.076    26.294     8.411
     8   6 C        2.916    -0.040    28.993     8.830
     9   6 C        2.919    -0.039    28.979     8.828
    10   6 C        2.918     0.066    26.517     8.444
    11   7 N        2.752    -0.068    22.561     7.055
    12   6 C        2.921     0.043    27.047     8.528
    13   6 C        2.924    -0.059    29.476     8.903
    14   6 C        2.919    -0.038    28.947     8.823
    15   6 C        2.919    -0.040    28.993     8.830
    16   6 C        2.920    -0.056    29.390     8.890
    17   6 C        2.884     0.125    25.258     8.239
    18   8 O        1.709    -0.254    18.214     5.762
    19   6 C        2.884     0.125    25.255     8.239
    20   6 C        2.920    -0.056    29.398     8.891
    21   6 C        2.919    -0.040    28.992     8.830
    22   6 C        2.919    -0.039    28.960     8.825
    23   6 C        2.924    -0.059    29.467     8.902
    24   6 C        2.923     0.043    27.044     8.528
    25   6 C        2.920    -0.055    29.372     8.887
    26   6 C        2.964     0.078    26.247     8.403
    27   7 N        1.852    -0.235    27.005     7.702
    28   6 C        2.951     0.087    26.054     8.372
    29   6 C        2.982     0.008    27.834     8.654
    30   6 C        2.923    -0.029    28.724     8.789
    31   6 C        2.919    -0.028    28.697     8.785
    32   6 C        2.920    -0.027    28.684     8.783
    33   6 C        2.919    -0.027    28.688     8.783
    34   6 C        2.925    -0.026    28.643     8.777
    35   6 C        2.923    -0.029    28.732     8.790
    36   6 C        2.919    -0.028    28.699     8.785
    37   1 H        0.926     0.034     2.527     2.486
    38   1 H        0.926     0.035     2.510     2.478
    39   1 H        0.926     0.047     2.359     2.402
    40   1 H        0.926     0.057     2.236     2.338
    41   1 H        0.926     0.047     2.354     2.400
    42   1 H        0.926     0.036     2.505     2.475
    43   1 H        0.926     0.036     2.497     2.471
    44   1 H        0.926     0.038     2.472     2.459
    45   1 H        0.926     0.051     2.312     2.378
    46   1 H        0.926     0.051     2.313     2.379
    47   1 H        0.926     0.038     2.473     2.459
    48   1 H        0.926     0.036     2.501     2.473
    49   1 H        0.926     0.035     2.523     2.484
    50   1 H        0.926     0.059     2.210     2.325
    51   1 H        0.926     0.030     2.590     2.517
    52   1 H        0.926     0.034     2.536     2.490
    53   1 H        0.926     0.034     2.524     2.484
    54   1 H        0.926     0.036     2.505     2.475
    55   1 H        0.926     0.047     2.356     2.400
    56   1 H        0.926     0.029     2.594     2.519
    57   1 H        0.926     0.033     2.539     2.492

molecular dipole:
                 x           y           z       tot (Debye)
 q only:       -0.795       0.050       0.007
   full:       -0.880       0.083       0.022       2.248

 projected vibrational frequencies (cm⁻¹)
eigval :       -0.00    -0.00     0.00     0.00     0.00     0.00
eigval :       13.56    19.24    24.15    39.90    44.69    49.55
eigval :       60.21    62.67    79.01    82.31   115.23   140.10
eigval :      143.87   169.31   182.48   220.47   237.57   247.58
eigval :      254.30   262.54   272.83   294.72   312.84   339.77
eigval :      362.46   370.50   376.19   387.14   395.83   404.31
eigval :      427.15   429.88   444.47   455.81   466.06   507.26
eigval :      509.99   517.61   523.35   546.55   555.43   559.63
eigval :      576.39   586.01   591.09   595.60   621.26   627.44
eigval :      659.26   660.51   661.54   666.14   674.17   695.80
eigval :      702.59   715.23   750.06   759.68   776.47   778.48
eigval :      779.12   793.23   823.88   840.31   855.51   856.17
eigval :      862.90   865.46   875.85   876.87   885.36   896.91
eigval :      899.90   902.00   905.18   914.03   915.58   917.27
eigval :      926.04   927.96   928.86   931.85   932.67   942.44
eigval :      973.95   988.99  1018.25  1079.62  1082.52  1090.33
eigval :     1090.88  1098.44  1108.57  1114.73  1120.17  1120.51
eigval :     1145.16  1164.71  1175.68  1181.37  1181.39  1183.60
eigval :     1193.70  1196.53  1199.88  1202.09  1218.98  1241.27
eigval :     1247.75  1262.10  1268.67  1276.08  1277.98  1286.12
eigval :     1297.47  1311.13  1320.10  1322.34  1332.24  1340.68
eigval :     1351.91  1379.44  1405.18  1422.02  1427.70  1431.25
eigval :     1439.30  1444.71  1469.84  1476.91  1481.41  1487.82
eigval :     1503.30  1514.26  1529.16  1567.62  1580.33  1580.60
eigval :     1580.91  1589.43  1595.11  1595.26  1597.50  1603.45
eigval :     3074.84  3075.18  3078.06  3078.52  3085.58  3085.62
eigval :     3085.88  3088.89  3089.26  3092.81  3093.31  3098.21
eigval :     3099.06  3099.24  3099.41  3101.76  3103.24  3105.12
eigval :     3107.73  3112.82  3113.36

   temp. (K)  partition function   enthalpy   heat capacity  entropy
                                   cal/mol     cal/K/mol   cal/K/mol   J/K/mol
 298.15  VIB  0.556E+12            15666.778    101.717     96.229
         ROT  0.369E+08              888.752      2.981     37.608
         INT  0.205E+20            16555.530    104.698    133.837
         TR   0.966E+28             1481.254      4.968     44.270
         TOT                       18036.7842   109.6659   178.1061   745.1960

       T/K    H(0)-H(T)+PV         H(T)/Eh          T*S/Eh         G(T)/Eh
   ------------------------------------------------------------------------
    298.15    0.287434E-01    0.459312E+00    0.846240E-01    0.374688E+00
   ------------------------------------------------------------------------

         :::::::::::::::::::::::::::::::::::::::::::::::::::::
         ::                  THERMODYNAMIC                  ::
         :::::::::::::::::::::::::::::::::::::::::::::::::::::
         :: total free energy         -91.708724872888 Eh   ::
         ::.................................................::
         :: total energy              -92.083413201543 Eh   ::
         :: zero point energy           0.430568851583 Eh   ::
         :: G(RRHO) w/o ZPVE           -0.055880522928 Eh   ::
         :: G(RRHO) contrib.            0.374688328655 Eh   ::
         :::::::::::::::::::::::::::::::::::::::::::::::::::::

           -------------------------------------------------
          | TOTAL ENERGY              -92.083413201543 Eh   |
          | TOTAL ENTHALPY            -91.624100904693 Eh   |
          | TOTAL FREE ENERGY         -91.708724872888 Eh   |
          | GRADIENT NORM               0.000026203190 Eh/α |
          | HOMO-LUMO GAP               1.278284326406 eV   |
           -------------------------------------------------

 * finished run on 2025/08/30 at 12:38:34.592
