   * xtb version 6.7.1 (edcfbbe) compiled by 'albert@albert-system' on 2024-07-22

   ID    Z sym.   atoms
    1    6 C      1-5, 7-10, 12-17, 19-26, 28-36
    2    7 N      6, 11, 27
    3    8 O      18
    4    1 H      37-57

          program call               : xtb data2507/gas/SBDBQ-PXZ/SBDBQ-PXZ.xyz --gfn 2 --ohess vtight --parallel 40 --molden --ceasefiles --namespace data2507/gas/SBDBQ-PXZ/SBDBQ-PXZ_gas_S0_preOpt
          :  Hamiltonian                  GFN2-xTB          :
 * total energy  :   -92.0636491 Eh     change       -0.1585406E-08 Eh
 * total energy  :   -92.0753797 Eh     change       -0.1173058E-01 Eh
 * total energy  :   -92.0793850 Eh     change       -0.4005309E-02 Eh
 * total energy  :   -92.0803828 Eh     change       -0.9978408E-03 Eh
 * total energy  :   -92.0811260 Eh     change       -0.7431653E-03 Eh
 * total energy  :   -92.0813237 Eh     change       -0.1977393E-03 Eh
 * total energy  :   -92.0814630 Eh     change       -0.1393054E-03 Eh
 * total energy  :   -92.0815961 Eh     change       -0.1330662E-03 Eh
 * total energy  :   -92.0817201 Eh     change       -0.1239583E-03 Eh
 * total energy  :   -92.0818214 Eh     change       -0.1013473E-03 Eh
 * total energy  :   -92.0833355 Eh     change       -0.5737198E-06 Eh
 * total energy  :   -92.0833361 Eh     change       -0.5423291E-06 Eh
 * total energy  :   -92.0833366 Eh     change       -0.5300399E-06 Eh
 * total energy  :   -92.0833371 Eh     change       -0.5574379E-06 Eh
 * total energy  :   -92.0833377 Eh     change       -0.5916257E-06 Eh
 * total energy  :   -92.0833384 Eh     change       -0.6276510E-06 Eh
 * total energy  :   -92.0833390 Eh     change       -0.6463930E-06 Eh
 * total energy  :   -92.0833397 Eh     change       -0.6550755E-06 Eh
 * total energy  :   -92.0833397 Eh     change       -0.6051607E-08 Eh
   *** GEOMETRY OPTIMIZATION CONVERGED AFTER 122 ITERATIONS ***

 final structure:
================
57
 xtb: 6.7.1 (edcfbbe)
C           -6.68702060353724       -1.98774062987124        1.23162695693049
C           -5.81149836157467       -1.85857550815975        2.29731536627306
C           -4.51810263829541       -1.42224971580911        2.08234232421503
C           -4.09163180416591       -1.09407740109734        0.79780891890105
C           -2.71294749435746       -0.63478131551394        0.59265458412133
N           -1.77800451103417       -1.25521502413490        1.27281933131478
C           -0.49104073761126       -0.94826712723808        1.03389029342744
C            0.53896965668295       -1.58912105818915        1.75148309664509
C            1.84308818118766       -1.32712697660388        1.44628405909629
C            2.17986362253183       -0.41791593827763        0.41734048093808
N            3.54138029284186       -0.17429402859460        0.14503016276650
C            4.36628798837650       -1.21638458796777       -0.28419225006523
C            3.86868564711708       -2.48014725513242       -0.57674588557124
C            4.71291224950908       -3.49421240780617       -1.00322112707740
C            6.06374326420729       -3.25858567743215       -1.15806153921344
C            6.57070895725757       -1.99271016577473       -0.90314704038204
C            5.73346072396536       -0.97846146185762       -0.47762195798448
O            6.30094852242037        0.25400393410767       -0.27336778311864
C            5.47172220855922        1.27614191606613        0.11771041175959
C            6.05653484856034        2.51441653428786        0.30719279977978
C            5.29442054675708        3.59140591625838        0.73457527945944
C            3.94877880016422        3.41425189083416        0.98340324101544
C            3.35649825709567        2.17528807771917        0.79136666998262
C            4.09991060920918        1.09275555623695        0.33884684861562
C            1.19501622502353        0.22897631037881       -0.29032667863277
C           -0.15461907316032       -0.00976551764375        0.02006072065395
N           -1.12432546514812        0.67809073564112       -0.61336727703073
C           -2.37576579339528        0.41926580008388       -0.32034282910589
C           -3.38915068913903        1.27816902777157       -0.94512899148885
C           -4.47726312079284        1.75770356241739       -0.21928604690997
C           -5.41033697150631        2.57456730457241       -0.82887244593940
C           -5.27111590183287        2.91982858858735       -2.16351980682939
C           -4.18085702411017        2.46169667342963       -2.88482974522536
C           -3.23950539522661        1.65206070463214       -2.27821570851531
C           -4.97060856903369       -1.24466111521586       -0.27260335784951
C           -6.26001154239113       -1.69006388651942       -0.05247317079683
H           -7.69844784952929       -2.32714857515767        1.39967375277694
H           -6.13823951955054       -2.10067184829472        3.29802943854915
H           -3.82385194780401       -1.32130801140473        2.90267950764238
H            0.26680577022367       -2.28196964024809        2.53217026815756
H            2.64306459004783       -1.80556749367338        1.99228465429505
H            2.81175124941794       -2.67257177791998       -0.47721813281397
H            4.29994868685864       -4.46794980810504       -1.21736731771854
H            6.72523824653458       -4.04459807770433       -1.48645433637385
H            7.61765774318251       -1.76977820950921       -1.03298748330490
H            7.11404059836059        2.61239883933103        0.12065863136261
H            5.75909561138852        4.55404819767806        0.87812141802450
H            3.34442119434388        4.23732070998183        1.33240610082464
H            2.30669132949755        2.05015054230130        1.00427883224286
H            1.43269975231331        0.92824786922746       -1.07699239314472
H           -4.58239928377027        1.50423342685905        0.82551349608481
H           -6.25021494639824        2.94452599540520       -0.25943872048107
H           -6.00765308073537        3.55144498508588       -2.63785389218679
H           -4.06375333799820        2.73859144565329       -3.92231550883105
H           -2.38249081344767        1.29183254772562       -2.82669283128575
H           -4.63823736086383       -1.02899964084970       -1.27755767893876
H           -6.93525253722945       -1.80649721058780       -0.88736370904312

          :  Hamiltonian                  GFN2-xTB          :
         :: gradient norm              0.000060521137 Eh/a0 ::
         :: HOMO-LUMO gap              1.258747485057 eV    ::
         :: SCC energy               -93.725813857831 Eh    ::
         :: -> dispersion             -0.077423469330 Eh    ::
         :: repulsion energy           1.642474191473 Eh    ::

    * Orbital Energies and Occupations

         #    Occupation            Energy/Eh            Energy/eV
      -------------------------------------------------------------
         1        2.0000           -0.7257265             -19.7480
       ...           ...                  ...                  ...
        73        2.0000           -0.4234310             -11.5221
        74        2.0000           -0.4219756             -11.4825
        75        2.0000           -0.4173992             -11.3580
        76        2.0000           -0.4148193             -11.2878
        77        2.0000           -0.4136664             -11.2564
        78        2.0000           -0.4121494             -11.2152
        79        2.0000           -0.4106107             -11.1733
        80        2.0000           -0.4083611             -11.1121
        81        2.0000           -0.4029546             -10.9650
        82        2.0000           -0.3924630             -10.6795
        83        2.0000           -0.3876194             -10.5477
        84        2.0000           -0.3528086              -9.6004
        85        2.0000           -0.3414699              -9.2919 (HOMO)
        86                         -0.2952117              -8.0331 (LUMO)
        87                         -0.2657057              -7.2302
        88                         -0.2362182              -6.4278
        89                         -0.2314220              -6.2973
        90                         -0.2282564              -6.2112
        91                         -0.2272935              -6.1850
        92                         -0.2250634              -6.1243
        93                         -0.2239620              -6.0943
        94                         -0.2129238              -5.7940
        95                         -0.2100212              -5.7150
        96                         -0.1935354              -5.2664
       ...                                ...                  ...
       165                          0.6940549              18.8862
      -------------------------------------------------------------
                  HL-Gap            0.0462581 Eh            1.2587 eV

     #   Z          covCN         q      C6AA      α(0)
     1   6 C        2.920    -0.028    28.689     8.783
     2   6 C        2.919    -0.028    28.690     8.784
     3   6 C        2.925    -0.026    28.647     8.777
     4   6 C        2.982     0.008    27.834     8.654
     5   6 C        2.951     0.085    26.096     8.379
     6   7 N        1.851    -0.233    26.956     7.695
     7   6 C        2.964     0.077    26.289     8.410
     8   6 C        2.916    -0.040    28.991     8.829
     9   6 C        2.919    -0.039    28.972     8.827
    10   6 C        2.918     0.067    26.509     8.443
    11   7 N        2.752    -0.069    22.580     7.057
    12   6 C        2.923     0.043    27.044     8.528
    13   6 C        2.924    -0.059    29.474     8.903
    14   6 C        2.919    -0.039    28.962     8.825
    15   6 C        2.919    -0.040    28.996     8.830
    16   6 C        2.920    -0.056    29.400     8.892
    17   6 C        2.884     0.125    25.257     8.239
    18   8 O        1.709    -0.255    18.219     5.763
    19   6 C        2.884     0.125    25.261     8.240
    20   6 C        2.920    -0.056    29.392     8.890
    21   6 C        2.919    -0.040    28.995     8.830
    22   6 C        2.919    -0.038    28.945     8.823
    23   6 C        2.924    -0.059    29.478     8.904
    24   6 C        2.921     0.043    27.047     8.528
    25   6 C        2.920    -0.055    29.368     8.887
    26   6 C        2.964     0.079    26.242     8.403
    27   7 N        1.852    -0.235    27.004     7.702
    28   6 C        2.951     0.088    26.051     8.371
    29   6 C        2.982     0.008    27.833     8.654
    30   6 C        2.923    -0.029    28.723     8.789
    31   6 C        2.919    -0.028    28.697     8.785
    32   6 C        2.920    -0.027    28.684     8.783
    33   6 C        2.919    -0.027    28.687     8.783
    34   6 C        2.925    -0.026    28.640     8.776
    35   6 C        2.923    -0.029    28.728     8.790
    36   6 C        2.919    -0.028    28.698     8.785
    37   1 H        0.926     0.034     2.526     2.485
    38   1 H        0.926     0.036     2.509     2.477
    39   1 H        0.926     0.046     2.365     2.405
    40   1 H        0.926     0.057     2.234     2.337
    41   1 H        0.926     0.047     2.353     2.399
    42   1 H        0.926     0.034     2.529     2.487
    43   1 H        0.926     0.036     2.502     2.474
    44   1 H        0.926     0.038     2.475     2.460
    45   1 H        0.926     0.050     2.315     2.380
    46   1 H        0.926     0.050     2.314     2.379
    47   1 H        0.926     0.038     2.474     2.460
    48   1 H        0.926     0.037     2.494     2.469
    49   1 H        0.926     0.036     2.500     2.473
    50   1 H        0.926     0.059     2.207     2.323
    51   1 H        0.926     0.030     2.590     2.517
    52   1 H        0.926     0.034     2.535     2.490
    53   1 H        0.926     0.035     2.523     2.484
    54   1 H        0.926     0.036     2.505     2.475
    55   1 H        0.926     0.047     2.361     2.403
    56   1 H        0.926     0.030     2.593     2.518
    57   1 H        0.926     0.033     2.537     2.491

molecular dipole:
                 x           y           z       tot (Debye)
 q only:       -0.830      -0.017       0.043
   full:       -0.917      -0.041       0.071       2.339

 projected vibrational frequencies (cm⁻¹)
eigval :       -0.00    -0.00     0.00     0.00     0.00     0.00
eigval :       13.30    19.17    24.20    39.88    44.13    48.59
eigval :       58.74    63.87    78.39    80.39   114.79   139.58
eigval :      145.45   170.48   175.80   224.90   236.27   247.85
eigval :      253.68   260.40   270.95   293.54   313.07   340.88
eigval :      366.00   371.27   376.32   381.92   396.66   403.29
eigval :      426.31   429.38   442.98   455.83   468.94   509.07
eigval :      510.05   517.68   523.19   546.38   554.83   559.45
eigval :      578.95   584.00   591.19   595.07   621.33   626.90
eigval :      659.24   661.21   661.37   665.99   674.37   696.42
eigval :      702.46   715.91   750.07   759.69   777.08   778.63
eigval :      779.04   793.05   823.62   840.06   855.27   856.16
eigval :      863.17   865.20   875.93   876.95   885.50   896.78
eigval :      899.90   902.03   905.26   914.05   915.74   917.24
eigval :      925.40   927.92   928.90   931.87   932.70   942.66
eigval :      973.90   989.12  1018.54  1079.58  1082.59  1090.24
eigval :     1090.81  1098.27  1108.52  1114.54  1120.21  1120.57
eigval :     1145.19  1164.63  1175.66  1181.39  1181.40  1183.44
eigval :     1193.73  1196.49  1199.71  1201.87  1218.82  1240.82
eigval :     1246.97  1261.97  1268.97  1276.05  1278.00  1286.00
eigval :     1297.21  1311.01  1319.81  1322.06  1332.13  1340.79
eigval :     1352.00  1379.38  1405.31  1422.10  1427.61  1431.09
eigval :     1438.98  1444.59  1470.29  1477.12  1481.63  1488.15
eigval :     1503.51  1514.45  1530.34  1567.57  1580.43  1580.69
eigval :     1580.97  1589.49  1595.21  1595.57  1597.52  1603.61
eigval :     3074.93  3075.27  3078.10  3078.57  3085.54  3085.67
eigval :     3085.93  3088.78  3089.64  3092.80  3093.30  3097.89
eigval :     3098.56  3098.89  3099.43  3101.80  3103.32  3104.78
eigval :     3108.01  3112.72  3113.27

   temp. (K)  partition function   enthalpy   heat capacity  entropy
                                   cal/mol     cal/K/mol   cal/K/mol   J/K/mol
 298.15  VIB  0.612E+12            15678.246    101.673     96.351
         ROT  0.369E+08              888.752      2.981     37.606
         INT  0.226E+20            16566.999    104.654    133.958
         TR   0.966E+28             1481.254      4.968     44.270
         TOT                       18048.2526   109.6221   178.2271   745.7022

       T/K    H(0)-H(T)+PV         H(T)/Eh          T*S/Eh         G(T)/Eh
   ------------------------------------------------------------------------
    298.15    0.287617E-01    0.459308E+00    0.846814E-01    0.374627E+00
   ------------------------------------------------------------------------

         :::::::::::::::::::::::::::::::::::::::::::::::::::::
         ::                  THERMODYNAMIC                  ::
         :::::::::::::::::::::::::::::::::::::::::::::::::::::
         :: total free energy         -91.708713070225 Eh   ::
         ::.................................................::
         :: total energy              -92.083339666358 Eh   ::
         :: zero point energy           0.430546317410 Eh   ::
         :: G(RRHO) w/o ZPVE           -0.055919721277 Eh   ::
         :: G(RRHO) contrib.            0.374626596133 Eh   ::
         :::::::::::::::::::::::::::::::::::::::::::::::::::::

           -------------------------------------------------
          | TOTAL ENERGY              -92.083339666358 Eh   |
          | TOTAL ENTHALPY            -91.624031627741 Eh   |
          | TOTAL FREE ENERGY         -91.708713070225 Eh   |
          | GRADIENT NORM               0.000060520269 Eh/α |
          | HOMO-LUMO GAP               1.258747943767 eV   |
           -------------------------------------------------

 * finished run on 2025/08/30 at 12:36:21.747
