   * xtb version 6.7.1 (edcfbbe) compiled by 'albert@albert-system' on 2024-07-22

   ID    Z sym.   atoms
    1    6 C      1-5, 7-10, 12-17, 19-26, 28-36
    2    7 N      6, 11, 27
    3    8 O      18
    4    1 H      37-57

          program call               : xtb data2507/gas/SBDBQ-PXZ/SBDBQ-PXZ_gas_S0_finalOpt.xtbopt.xyz --gfn 2 --spinpol --tblite --uhf 2 --ohess vtight --parallel 40 --molden --ceasefiles --namespace data2507/gas/SBDBQ-PXZ/SBDBQ-PXZ_gas_T1_preOpt
 * total energy  :   -92.0285055 Eh     change       -0.9280257E-09 Eh
 * total energy  :   -92.0318820 Eh     change       -0.3376456E-02 Eh
 * total energy  :   -92.0329168 Eh     change       -0.1034850E-02 Eh
 * total energy  :   -92.0330785 Eh     change       -0.1616135E-03 Eh
 * total energy  :   -92.0331684 Eh     change       -0.8998941E-04 Eh
 * total energy  :   -92.0331958 Eh     change       -0.2739150E-04 Eh
 * total energy  :   -92.0332328 Eh     change       -0.3699949E-04 Eh
 * total energy  :   -92.0332748 Eh     change       -0.4198296E-04 Eh
 * total energy  :   -92.0333084 Eh     change       -0.3357501E-04 Eh
 * total energy  :   -92.0333237 Eh     change       -0.1533708E-04 Eh
 * total energy  :   -92.0333795 Eh     change       -0.3865180E-06 Eh
 * total energy  :   -92.0333798 Eh     change       -0.2461149E-06 Eh
 * total energy  :   -92.0333799 Eh     change       -0.1541829E-06 Eh
 * total energy  :   -92.0333801 Eh     change       -0.1233241E-06 Eh
 * total energy  :   -92.0333802 Eh     change       -0.1265641E-06 Eh
 * total energy  :   -92.0333806 Eh     change       -0.4409814E-06 Eh
 * total energy  :   -92.0333808 Eh     change       -0.1478174E-06 Eh
 * total energy  :   -92.0333809 Eh     change       -0.1089800E-06 Eh
 * total energy  :   -92.0333809 Eh     change       -0.6577949E-07 Eh
   *** GEOMETRY OPTIMIZATION CONVERGED AFTER 43 ITERATIONS ***

 final structure:
================
57
 xtb: 6.7.1 (edcfbbe)
C           -6.94078591301843        1.73811811579626        1.62812949398659
C           -6.02736017607773        2.72645712783653        1.29975991478070
C           -4.74635476379925        2.38737430776843        0.90962464899778
C           -4.36430801473408        1.04822781735862        0.83128313916960
C           -2.99338852153826        0.71922284048522        0.44148515578265
N           -2.01828536203622        1.48628149053564        0.92504754325854
C           -0.73107052102559        1.21117792094006        0.72957008939942
C            0.29639404800154        2.00561946655292        1.23203766407045
C            1.62533429754092        1.65931350762642        1.04357406228661
C            1.95185123359170        0.51170280065935        0.33668541721917
N            3.31239075358833        0.15774921499864        0.15087302841327
C            3.83573186066429       -0.96880818937113        0.77284463345860
C            3.06913610381654       -1.78165636159522        1.60215793091607
C            3.62348640188922       -2.89846022258299        2.20443374316681
C            4.95202662796523       -3.21968787336675        1.99760134025953
C            5.73628057319918       -2.40892127572656        1.19174613119836
C            5.18974531043400       -1.29112728548139        0.58751538775159
O            6.02633426331047       -0.52211863206573       -0.17815299997870
C            5.49418970095315        0.58664869101446       -0.78205770481890
C            6.34456730116042        1.35196847907519       -1.55953732982652
C            5.86678699355178        2.47440923849575       -2.21797947707657
C            4.53235929503536        2.81760599579996       -2.10476979588871
C            3.67575440045236        2.05749448538416       -1.32665238428416
C            4.14299578454420        0.94104883511821       -0.64015080519027
C            0.95011269457403       -0.30079559641428       -0.19634384915118
C           -0.38880047538871        0.01960820731387       -0.01738281141357
N           -1.38044440143221       -0.70683847240732       -0.53485063660319
C           -2.66060217356180       -0.38037757892535       -0.37166711225405
C           -3.65601297792359       -1.18492806436914       -1.07989419237560
C           -4.75245556516120       -0.59919481251333       -1.71237744961433
C           -5.66008774294626       -1.38312823633496       -2.39701416974365
C           -5.48657584615555       -2.75655362488943       -2.46800318346132
C           -4.38686473653974       -3.34232386184630       -1.86253044868016
C           -3.47366762830546       -2.56428036316942       -1.17781931191746
C           -5.28180005837471        0.05973795493018        1.18659611610330
C           -6.56009258102178        0.40626169545656        1.57775537381475
H           -7.94269840675281        2.00403600261495        1.93102589868692
H           -6.31498662030805        3.76667228481966        1.34920738691160
H           -4.02804359953478        3.15191585708993        0.65425570289733
H            0.03225299181420        2.88736258227901        1.79326223975171
H            2.41005240822255        2.27867563383458        1.45083943457190
H            2.03487592356667       -1.53207448608437        1.77699421185526
H            3.00743022056913       -3.51493218743448        2.84057651393563
H            5.38503955655734       -4.09032136028532        2.46403848487880
H            6.77902699728583       -2.62401661052606        1.02158968890687
H            7.37638746858651        1.04931369470319       -1.63890391180306
H            6.53655862203087        3.06741627346568       -2.82029395438074
H            4.14668935026340        3.68078167054147       -2.62480599970885
H            2.63372835088636        2.32489210758969       -1.25125770332511
H            1.20572482069887       -1.17674151935070       -0.77121188061229
H           -4.88411011480363        0.47206545923335       -1.67623607270661
H           -6.50579126810015       -0.91968957384396       -2.88366532657941
H           -6.20135185426032       -3.36596779731149       -3.00090688139224
H           -4.24022191750155       -4.41086661596530       -1.92538528711993
H           -2.61294168946621       -3.01294631338182       -0.70504659694306
H           -4.98651024327905       -0.97887184028542        1.16769647056475
H           -7.26286408619130       -0.36711975157371        1.85136529806867

 projected vibrational frequencies (cm⁻¹)
eigval :       -0.00    -0.00    -0.00     0.00     0.00     0.00
eigval :       13.47    18.66    25.15    40.13    43.03    47.91
eigval :       57.39    60.17    80.14    83.13   111.26   139.87
eigval :      143.50   168.16   180.13   214.99   233.79   246.66
eigval :      254.06   256.44   268.47   287.17   296.61   339.75
eigval :      354.95   371.25   379.01   381.64   396.08   404.54
eigval :      427.33   429.36   443.84   451.77   462.55   505.58
eigval :      510.69   513.61   523.23   541.67   548.27   552.24
eigval :      575.47   583.10   590.08   591.68   614.52   618.40
eigval :      626.06   660.64   664.41   666.14   666.41   668.34
eigval :      676.78   689.55   714.47   756.57   756.97   776.95
eigval :      777.88   788.19   793.26   800.37   829.23   849.99
eigval :      855.49   863.88   864.57   872.23   873.93   875.31
eigval :      897.07   897.96   899.19   900.63   915.57   915.67
eigval :      916.03   921.20   926.35   926.97   928.98   930.79
eigval :      972.94   992.71  1006.50  1080.26  1082.44  1087.07
eigval :     1088.14  1103.69  1111.02  1117.52  1119.54  1120.31
eigval :     1130.94  1165.19  1175.07  1180.99  1181.02  1182.01
eigval :     1192.64  1197.08  1203.14  1204.48  1223.11  1229.89
eigval :     1240.21  1255.94  1260.97  1269.50  1276.63  1281.10
eigval :     1286.41  1307.78  1311.56  1314.70  1319.31  1324.39
eigval :     1330.62  1344.22  1357.74  1395.17  1416.25  1422.11
eigval :     1430.17  1430.74  1443.30  1461.52  1465.18  1470.49
eigval :     1477.35  1489.69  1509.20  1526.31  1562.01  1571.10
eigval :     1572.99  1573.25  1583.10  1589.88  1590.35  1593.97
eigval :     3073.32  3073.48  3076.48  3076.94  3085.75  3086.32
eigval :     3089.59  3091.29  3092.11  3092.19  3092.27  3095.39
eigval :     3095.64  3101.34  3101.46  3101.92  3105.43  3109.61
eigval :     3111.39  3113.96  3114.42

   temp. (K)  partition function   enthalpy   heat capacity  entropy
                                   cal/mol     cal/K/mol   cal/K/mol   J/K/mol
 298.15  VIB  0.763E+12            15839.994    102.699     97.223
         ROT  0.372E+08              888.752      2.981     37.621
         INT  0.283E+20            16728.746    105.680    134.844
         TR   0.966E+28             1481.254      4.968     44.270
         TOT                       18210.0003   110.6485   179.1137   749.4119

       T/K    H(0)-H(T)+PV         H(T)/Eh          T*S/Eh         G(T)/Eh
   ------------------------------------------------------------------------
    298.15    0.290195E-01    0.457106E+00    0.851027E-01    0.372003E+00
   ------------------------------------------------------------------------

         :::::::::::::::::::::::::::::::::::::::::::::::::::::
         ::                  THERMODYNAMIC                  ::
         :::::::::::::::::::::::::::::::::::::::::::::::::::::
         :: total free energy         -91.661377920972 Eh   ::
         ::.................................................::
         :: total energy              -92.033380945307 Eh   ::
         :: zero point energy           0.428086263224 Eh   ::
         :: G(RRHO) w/o ZPVE           -0.056083238888 Eh   ::
         :: G(RRHO) contrib.            0.372003024335 Eh   ::
         :::::::::::::::::::::::::::::::::::::::::::::::::::::

           -------------------------------------------------
          | TOTAL ENERGY              -92.033380945307 Eh   |
          | TOTAL ENTHALPY            -91.576275199457 Eh   |
          | TOTAL FREE ENERGY         -91.661377920972 Eh   |
          | GRADIENT NORM               0.000047663007 Eh/α |
           -------------------------------------------------

 * finished run on 2025/08/30 at 12:38:40.841
