   * xtb version 6.7.1 (edcfbbe) compiled by 'albert@albert-system' on 2024-07-22

   ID    Z sym.   atoms
    1    7 N      1, 7, 21, 42
    2    6 C      2-6, 8-20, 22-41, 43-62
    3    1 H      63-96

          program call               : xtb data2507/gas/CCAPI/CCAPI_gas_S0_finalOpt.xtbopt.xyz --gfn 2 --spinpol --tblite --uhf 2 --ohess vtight --parallel 40 --molden --ceasefiles --namespace data2507/gas/CCAPI/CCAPI_gas_T1_preOpt
 * total energy  :  -153.2351311 Eh     change       -0.2482165E-07 Eh
 * total energy  :  -153.2399654 Eh     change       -0.4834326E-02 Eh
 * total energy  :  -153.2414020 Eh     change       -0.1436599E-02 Eh
 * total energy  :  -153.2413556 Eh     change        0.4647438E-04 Eh
 * total energy  :  -153.2415939 Eh     change       -0.2383208E-03 Eh
 * total energy  :  -153.2416468 Eh     change       -0.5290702E-04 Eh
 * total energy  :  -153.2417220 Eh     change       -0.7517876E-04 Eh
 * total energy  :  -153.2417638 Eh     change       -0.4183989E-04 Eh
 * total energy  :  -153.2418114 Eh     change       -0.4759556E-04 Eh
 * total energy  :  -153.2418418 Eh     change       -0.3038728E-04 Eh
 * total energy  :  -153.2421088 Eh     change       -0.7455901E-06 Eh
 * total energy  :  -153.2421096 Eh     change       -0.7873047E-06 Eh
 * total energy  :  -153.2421104 Eh     change       -0.7499251E-06 Eh
 * total energy  :  -153.2421108 Eh     change       -0.4596827E-06 Eh
 * total energy  :  -153.2421114 Eh     change       -0.5924563E-06 Eh
 * total energy  :  -153.2421120 Eh     change       -0.5463368E-06 Eh
 * total energy  :  -153.2421125 Eh     change       -0.5411009E-06 Eh
 * total energy  :  -153.2421124 Eh     change        0.9940044E-07 Eh
 * total energy  :  -153.2421125 Eh     change       -0.6037661E-07 Eh
   *** GEOMETRY OPTIMIZATION CONVERGED AFTER 69 ITERATIONS ***

 final structure:
================
96
 xtb: 6.7.1 (edcfbbe)
N           -1.72747342750578        6.04402432801944       -1.99425098133928
C           -2.18444367275541        5.04412902573007       -1.66357031104612
C           -2.75548919044994        3.81536404516004       -1.27376982817602
C           -3.70300749250243        3.21940435107410       -2.08586896704108
C           -4.24680432401697        1.98570476295487       -1.73956317862750
C           -3.87106570226108        1.35693943285402       -0.56974649874762
N           -4.35395134529537        0.06779625181830       -0.29012503287994
C           -3.56136909088365       -1.06379117408133       -0.20492692312640
C           -2.11459427214122       -1.04196613104216       -0.29656671426820
C           -1.42257249381855       -0.19745932743755       -1.16689372545226
C           -0.04899947895658       -0.12912426914222       -1.12647913022042
C            0.68920114104782       -0.91803640108005       -0.23677249273216
C            2.13785507401051       -0.78582182296391       -0.15432424505154
C            2.70863921255542        0.50096766254162        0.10422143608100
C            1.91816584303935        1.62841195087886        0.34617185647936
C            2.48426871390540        2.88715632792172        0.52455485205723
C            3.85322541093722        3.04314203654385        0.46250986904233
C            4.66864400046262        1.93114029026084        0.28088252592652
C            4.12622267788041        0.64989713382961        0.14581969368622
C            4.95043231210359       -0.50694411394522        0.01247179609140
N            6.33776344992928       -0.36977282386280        0.09301110167652
C            7.04351769261549        0.10279855985634        1.18303008595834
C            6.57382710955889        0.49240274493911        2.42949829864808
C            7.50372942650426        0.89365505267225        3.36920463994206
C            8.86766503701664        0.90087154152214        3.08493703188258
C            9.34113497055450        0.49450806349743        1.85183655848264
C            8.42641884139232        0.08875433766122        0.89059405938608
C            8.55322151632268       -0.40531638757528       -0.45421472011166
C            9.63357948393619       -0.61505476395248       -1.29931952340166
C            9.39278802230688       -1.09152393460698       -2.57400153407154
C            8.09518205990186       -1.34548376238972       -3.01330351319201
C            7.00339456442850       -1.14271162279227       -2.19134610953978
C            7.24225718731486       -0.68382765142172       -0.90353158562494
C            4.38923739573977       -1.80098057399323       -0.20235103376834
C            5.18274880133060       -2.95013795658356       -0.26052470336570
C            4.62638166797585       -4.19657374696870       -0.52803124529101
C            3.26993494876419       -4.30939447333827       -0.75158063816511
C            2.45212387076167       -3.18796299683124       -0.64908775731695
C            2.97494991323202       -1.93193439809995       -0.32806571959045
C           -0.00724334518906       -1.82171024128643        0.57467640801377
C           -1.38154028311542       -1.87976348710457        0.54792099772169
N           -4.26943130408362       -2.14254270086978        0.01157461572331
C           -5.56551103283333       -1.74012284917120        0.05941967343302
C           -6.72456134306923       -2.54711657025704        0.22860981239652
C           -6.62643673823720       -3.93626665665282        0.35964937055033
C           -7.75870119803352       -4.70154397265496        0.48604100470170
C           -9.00700535719952       -4.08250466682600        0.47814866032978
C           -9.11444322789241       -2.71656808771581        0.35626250912755
C           -7.98078891858033       -1.89869742446696        0.23515519669009
C           -8.05862266518693       -0.45064796856317        0.14364061319877
C           -9.28234004376466        0.22744338653749        0.23258374625626
C           -9.36068003389523        1.59969868723711        0.19661290836540
C           -8.20276215964343        2.36336309077937        0.08904483722370
C           -6.98446400325640        1.73841365888543       -0.01039136351108
C           -6.88584587194152        0.33949668764413       -0.00937710130939
C           -5.65055440168832       -0.35827341387937       -0.11343213653229
C           -2.94107327411237        1.96423048533929        0.31840436708629
C           -2.57693857725454        1.38420009405459        1.55091511904711
C           -1.63759734083053        1.97597076246925        2.35001295510357
C           -1.02946567540499        3.17708199655234        1.96189639769238
C           -1.38897647303658        3.78478716557783        0.78937124532792
C           -2.35356631693704        3.20078891336016       -0.05437262862553
H           -4.00410320394517        3.70161649300623       -3.00387220029562
H           -4.96053763248102        1.50724564224502       -2.39430767596555
H           -1.95889718739543        0.39616551689273       -1.89185986148929
H            0.47536449436533        0.52355805507529       -1.80931623111006
H            0.84502604001128        1.52790919689511        0.39995851334099
H            1.84197073900774        3.73694352152682        0.69841047418106
H            4.30076053775577        4.01940642878823        0.57056238510073
H            5.73879920105137        2.06657242009046        0.24630197370108
H            5.51799479732391        0.48477340507138        2.65374499667644
H            7.16607772334984        1.20640788171760        4.34599425527609
H            9.56303378215217        1.22358811486539        3.84526572848277
H           10.39925055494916        0.48660489708760        1.63842049043597
H           10.63838866898543       -0.40429253596915       -0.96587956770874
H           10.22019166454869       -1.26450582427910       -3.24576187041516
H            7.93901330415163       -1.70638897620740       -4.01890403332693
H            5.99908164318037       -1.33678701475040       -2.53596990406412
H            6.24749691469504       -2.87539506124840       -0.10066953653912
H            5.26563489343844       -5.06500246178210       -0.57699430926418
H            2.83312032672107       -5.26534847767780       -0.99803170861457
H            1.39328973874618       -3.29299859271529       -0.82671776783894
H            0.54441951470549       -2.43986967249443        1.26784371906873
H           -1.91860492993720       -2.55299571824618        1.19801194643421
H           -5.64101724997519       -4.37550219077237        0.34964685381918
H           -7.68847621195778       -5.77457945414774        0.58554957890719
H           -9.90170857772139       -4.68137345099798        0.56901723845406
H          -10.10193432417743       -2.28318718643214        0.35231494488152
H          -10.19773052394528       -0.33091531330367        0.34320577573302
H          -10.32222083284285        2.08623981861367        0.26753240615493
H           -8.26021783577727        3.44169503249631        0.08840411287479
H           -6.08718175748354        2.33409156021261       -0.07135431864113
H           -3.05103863940050        0.46643121918687        1.86458028328721
H           -1.36148097296481        1.51866490366717        3.28804965894686
H           -0.28316560135741        3.62490227497691        2.60066826232416
H           -0.94161832074898        4.72188233700295        0.49059631019867

 projected vibrational frequencies (cm⁻¹)
eigval :       -0.00    -0.00    -0.00     0.00     0.00     0.00
eigval :        8.16    10.54    14.29    20.29    25.27    26.84
eigval :       34.45    39.98    42.80    53.63    55.76    71.48
eigval :       77.21    78.95    87.02    89.20   100.47   108.01
eigval :      118.85   123.48   126.46   130.76   146.14   149.56
eigval :      156.87   160.25   168.43   187.15   194.32   197.41
eigval :      205.70   216.70   239.80   244.92   246.75   258.84
eigval :      271.87   277.75   300.00   306.29   311.36   350.94
eigval :      353.14   368.11   378.83   383.30   390.79   393.16
eigval :      395.31   398.04   403.00   410.86   413.05   414.80
eigval :      419.11   421.62   427.35   430.24   436.23   439.51
eigval :      448.24   461.35   471.15   476.95   502.05   510.78
eigval :      514.53   520.49   523.39   533.08   535.76   538.96
eigval :      542.40   570.48   574.65   582.75   584.56   586.25
eigval :      587.55   594.21   597.62   606.32   607.05   612.08
eigval :      628.05   641.77   649.74   660.29   669.60   671.95
eigval :      673.25   676.58   679.13   683.11   697.72   701.43
eigval :      705.43   709.93   712.26   727.32   735.11   736.79
eigval :      749.03   755.42   759.75   765.74   768.15   773.84
eigval :      778.47   779.50   782.60   787.05   821.41   838.63
eigval :      843.59   845.83   848.58   862.98   868.37   869.29
eigval :      871.84   875.32   878.03   881.14   890.86   892.77
eigval :      899.76   901.15   902.47   903.52   907.37   907.71
eigval :      908.15   910.71   915.11   918.12   920.96   921.76
eigval :      924.76   925.51   927.67   929.22   930.16   936.12
eigval :      941.73   949.89   999.26  1011.76  1014.59  1026.20
eigval :     1041.10  1058.10  1068.24  1071.56  1085.03  1086.51
eigval :     1100.37  1102.55  1107.15  1107.74  1117.43  1131.70
eigval :     1138.63  1142.20  1147.43  1151.46  1164.89  1170.90
eigval :     1176.40  1179.58  1179.72  1180.14  1182.01  1182.94
eigval :     1183.66  1185.49  1186.94  1194.90  1201.55  1211.63
eigval :     1218.70  1230.76  1235.16  1238.46  1253.76  1255.99
eigval :     1257.43  1258.09  1260.30  1267.71  1276.32  1283.57
eigval :     1288.94  1290.16  1297.32  1306.67  1308.17  1316.47
eigval :     1317.51  1326.14  1338.72  1344.98  1347.77  1351.46
eigval :     1352.60  1359.63  1364.84  1375.73  1378.37  1379.42
eigval :     1387.40  1404.38  1405.33  1407.15  1410.19  1419.47
eigval :     1421.77  1423.53  1428.62  1430.31  1435.38  1444.90
eigval :     1458.32  1466.14  1466.28  1485.68  1494.13  1500.29
eigval :     1509.54  1512.87  1523.62  1527.18  1530.77  1542.30
eigval :     1547.54  1551.15  1554.06  1562.62  1567.89  1571.28
eigval :     1574.46  1585.68  1589.21  1593.09  1598.97  1603.52
eigval :     1606.40  2350.02  3073.98  3078.12  3078.87  3080.20
eigval :     3080.73  3081.64  3082.00  3082.04  3083.72  3085.06
eigval :     3085.41  3086.27  3086.30  3086.52  3088.26  3089.67
eigval :     3090.35  3092.21  3093.14  3093.71  3093.83  3097.45
eigval :     3097.74  3098.05  3098.27  3098.67  3099.90  3101.12
eigval :     3102.20  3102.57  3103.50  3105.12  3108.12  3111.87

   temp. (K)  partition function   enthalpy   heat capacity  entropy
                                   cal/mol     cal/K/mol   cal/K/mol   J/K/mol
 298.15  VIB  0.289E+22            27951.081    179.107    172.928
         ROT  0.164E+09              888.752      2.981     40.572
         INT  0.474E+30            28839.833    182.087    213.501
         TR   0.214E+29             1481.254      4.968     45.846
         TOT                       30321.0871   187.0555   259.3472  1085.1087

       T/K    H(0)-H(T)+PV         H(T)/Eh          T*S/Eh         G(T)/Eh
   ------------------------------------------------------------------------
    298.15    0.483197E-01    0.771188E+00    0.123224E+00    0.647964E+00
   ------------------------------------------------------------------------

         :::::::::::::::::::::::::::::::::::::::::::::::::::::
         ::                  THERMODYNAMIC                  ::
         :::::::::::::::::::::::::::::::::::::::::::::::::::::
         :: total free energy        -152.594148762860 Eh   ::
         ::.................................................::
         :: total energy             -153.242112513616 Eh   ::
         :: zero point energy           0.722868253576 Eh   ::
         :: G(RRHO) w/o ZPVE           -0.074904502820 Eh   ::
         :: G(RRHO) contrib.            0.647963750756 Eh   ::
         :::::::::::::::::::::::::::::::::::::::::::::::::::::

           -------------------------------------------------
          | TOTAL ENERGY             -153.242112513616 Eh   |
          | TOTAL ENTHALPY           -152.470924532044 Eh   |
          | TOTAL FREE ENERGY        -152.594148762860 Eh   |
          | GRADIENT NORM               0.000049247678 Eh/α |
           -------------------------------------------------

 * finished run on 2025/09/13 at 00:58:47.955
