   * xtb version 6.7.1 (edcfbbe) compiled by 'albert@albert-system' on 2024-07-22

   ID    Z sym.   atoms
    1    7 N      1, 7, 21, 42
    2    6 C      2-6, 8-20, 22-41, 43-62
    3    1 H      63-96

          program call               : xtb data2507/gas/CCAPI/CCAPI_gas_T1_crest.xyz --gfn 2 --spinpol --tblite --uhf 2 --ohess vtight --parallel 40 --molden --ceasefiles --namespace data2507/gas/CCAPI/CCAPI_gas_T1_finalOpt
 * total energy  :  -153.2424251 Eh     change       -0.1685177E-07 Eh
 * total energy  :  -153.2424911 Eh     change       -0.6600412E-04 Eh
 * total energy  :  -153.2425057 Eh     change       -0.1460244E-04 Eh
 * total energy  :  -153.2425038 Eh     change        0.1942160E-05 Eh
 * total energy  :  -153.2425286 Eh     change       -0.2486826E-04 Eh
 * total energy  :  -153.2425319 Eh     change       -0.3289881E-05 Eh
 * total energy  :  -153.2425391 Eh     change       -0.7151198E-05 Eh
 * total energy  :  -153.2425423 Eh     change       -0.3286211E-05 Eh
 * total energy  :  -153.2425453 Eh     change       -0.2963979E-05 Eh
 * total energy  :  -153.2425468 Eh     change       -0.1457796E-05 Eh
 * total energy  :  -153.2425538 Eh     change       -0.7973359E-06 Eh
 * total energy  :  -153.2425551 Eh     change       -0.1278698E-05 Eh
 * total energy  :  -153.2425560 Eh     change       -0.9524289E-06 Eh
 * total energy  :  -153.2425566 Eh     change       -0.5637837E-06 Eh
 * total energy  :  -153.2425569 Eh     change       -0.3112184E-06 Eh
 * total energy  :  -153.2425571 Eh     change       -0.1809921E-06 Eh
 * total energy  :  -153.2425573 Eh     change       -0.2528060E-06 Eh
 * total energy  :  -153.2425573 Eh     change        0.3100922E-08 Eh
 * total energy  :  -153.2425573 Eh     change       -0.4774733E-08 Eh
   *** GEOMETRY OPTIMIZATION CONVERGED AFTER 23 ITERATIONS ***

 final structure:
================
96
 xtb: 6.7.1 (edcfbbe)
N           -1.77727305450746        6.26067410480608       -1.03145737221073
C           -2.22597021280409        5.21886596736848       -0.85414416273828
C           -2.78660249568976        3.94101233314906       -0.65334157932722
C           -3.73732868532417        3.47017379112976       -1.54064277477119
C           -4.27079993790486        2.19411057094787       -1.38432327405675
C           -3.88118421866926        1.39557064059462       -0.32806295643682
N           -4.35353684057866        0.07507410119535       -0.24661004258360
C           -3.55296635274630       -1.05006144716694       -0.34204543659973
C           -2.10785299973920       -1.00193951642518       -0.44364032878147
C           -1.43211163871226       -0.02763744627478       -1.18155264503082
C           -0.05910646837168        0.04767703158882       -1.14411865163089
C            0.69590203024039       -0.86002753646901       -0.39137452642181
C            2.14260982681649       -0.72905168153360       -0.30119994319107
C            2.70936292722892        0.51113324796934        0.13532493687269
C            1.91181375126624        1.57338423875334        0.57207608102129
C            2.46933707411795        2.76643635787475        1.01954728613107
C            3.83995638220385        2.90259172716357        1.09217433000347
C            4.66021760999945        1.84373857637070        0.72054750037658
C            4.12558341133620        0.65010566113494        0.22562710446358
C            4.95530200082630       -0.46508613366981       -0.09757890552429
N            6.34123717984241       -0.33778503221713        0.00675539292010
C            7.16002779334787       -1.07047173020816        0.84465181331007
C            6.81597508041741       -2.03169140112407        1.78463977507308
C            7.83478526545581       -2.59639914018424        2.52770304513911
C            9.16211283067952       -2.21183440820052        2.35071726787580
C            9.50668246322745       -1.24028271250720        1.42997791918742
C            8.50131251867487       -0.65997515092642        0.67009820304311
C            8.48492869459911        0.36572039890968       -0.33842140031635
C            9.47359312603593        1.12212411093493       -0.95112525715901
C            9.10288560157427        2.02959993165095       -1.92549596911631
C            7.76911246593117        2.17832639833458       -2.29959199900247
C            6.76707015150732        1.43526605782329       -1.70560492567384
C            7.13267464630435        0.53745327116535       -0.71253852969547
C            4.40090701990364       -1.70800963616174       -0.52740252648104
C            5.21094766811748       -2.77306782240276       -0.93311038558513
C            4.66065358809548       -3.95390070457435       -1.41796245115854
C            3.29217351033209       -4.07188687957840       -1.54608636941541
C            2.46647049673269       -3.01282837598612       -1.18415117293279
C            2.98558587980732       -1.83314544635270       -0.64227083647955
C            0.01504255257320       -1.88486739732566        0.27821212782858
C           -1.35855387458664       -1.95223330435891        0.25548870160985
N           -4.25214899960689       -2.15482365117232       -0.28520286560046
C           -5.54997391856518       -1.77431078072833       -0.16447846711634
C           -6.70269366667151       -2.60602363016072       -0.11003542604516
C           -6.59549275472274       -3.99812609746238       -0.19409186643973
C           -7.72213525908999       -4.78176539445227       -0.17656370862448
C           -8.97396603054312       -4.17773364746026       -0.07884584654424
C           -9.09029210371463       -2.81002857071442        0.01095965147297
C           -7.96253645820096       -1.97527292088488        0.00687597127450
C           -8.04975344490610       -0.53090253728612        0.13937377143458
C           -9.27618184169259        0.11664033765799        0.34362716366584
C           -9.36250737113857        1.47755815771034        0.51984437945635
C           -8.21013832758366        2.25702683352666        0.51926669850193
C           -6.98957434875802        1.66357910718818        0.31259230833770
C           -6.88323124337300        0.28182117811972        0.09782422594164
C           -5.64522697004865       -0.38277226258006       -0.12391273566519
C           -2.94771141788871        1.86569441068025        0.63631241145741
C           -2.57002668125521        1.10557480097541        1.76220182411275
C           -1.62877337386910        1.57472388849530        2.63692671003529
C           -1.03207745890892        2.82607428252074        2.43467421787005
C           -1.40414812878642        3.60397985589805        1.37164931034498
C           -2.37115194500014        3.14929576925403        0.45432562746491
H           -4.04886027005808        4.08571272550216       -2.37128447862523
H           -4.98718378212451        1.81683535861277       -2.09950529675645
H           -1.98146512095243        0.66361464981043       -1.80281823941598
H            0.45216765076354        0.80058726916122       -1.72625694352972
H            0.83806496322336        1.46572269451721        0.58300105966458
H            1.82023081052381        3.57522737454016        1.31851922400938
H            4.28344342716485        3.82002400851297        1.44831414042806
H            5.72904072712122        1.95073922966514        0.82367410091419
H            5.78785618714540       -2.32850344257330        1.92590620690784
H            7.59682335367652       -3.35056054174468        3.26290045376283
H            9.93037354883867       -2.67814069582595        2.94915115129580
H           10.53402323503615       -0.93347020291660        1.30485820553903
H           10.50923097182338        0.99802616635116       -0.67311492145525
H            9.85692192918873        2.63029862463177       -2.41164124142910
H            7.51295359127400        2.88821581041362       -3.07174645698243
H            5.73484524690204        1.54991290829999       -1.99948405107855
H            6.28487680864303       -2.68127225641572       -0.88000574678666
H            5.31169960585181       -4.76548646141685       -1.70566175179021
H            2.85488369487331       -4.97664574454202       -1.94058239383049
H            1.40340249543094       -3.09859728231774       -1.34663572908210
H            0.57922355291301       -2.59588702622710        0.86391659969640
H           -1.88306633674285       -2.72235799339096        0.79964701955386
H           -5.60777317835820       -4.42371767176281       -0.27988242750439
H           -7.64483936176226       -5.85685658653952       -0.24322156639132
H           -9.86435754574412       -4.78974971046233       -0.07321364186420
H          -10.08020157638092       -2.38808302586545        0.08178877677266
H          -10.18719801567464       -0.45861431514439        0.37635820953052
H          -10.32587895778755        1.94049246727091        0.67448139418740
H           -8.27356283251670        3.32219175199904        0.68509842929803
H           -6.09631972491471        2.26793629829673        0.33481937718867
H           -3.03536194916759        0.14667561146286        1.93382733287694
H           -1.34233723238216        0.98071725303097        3.49153106912012
H           -0.28452728153379        3.17610763458006        3.13047070075491
H           -0.96519093222544        4.57925151114272        1.21766971724625

 projected vibrational frequencies (cm⁻¹)
eigval :       -0.00    -0.00    -0.00    -0.00     0.00     0.00
eigval :        8.11    10.77    14.16    19.47    24.56    29.42
eigval :       35.00    37.68    44.07    53.54    57.16    71.44
eigval :       76.10    78.91    86.96    90.99    99.60   108.06
eigval :      116.81   122.08   124.63   128.79   142.69   147.13
eigval :      154.01   166.65   169.69   189.19   194.30   197.60
eigval :      207.47   224.17   235.10   244.33   246.10   260.89
eigval :      272.22   277.66   299.94   305.97   311.24   345.29
eigval :      360.49   371.21   378.62   384.66   387.08   391.01
eigval :      394.85   400.85   402.28   407.18   411.13   413.78
eigval :      420.92   423.97   430.24   432.25   437.08   439.57
eigval :      448.17   461.31   472.81   476.68   500.06   510.42
eigval :      514.99   519.98   523.86   533.25   536.34   538.86
eigval :      542.05   569.84   575.00   583.81   584.62   585.79
eigval :      587.55   591.35   598.49   606.70   610.42   613.84
eigval :      624.48   639.50   649.46   660.35   670.47   672.97
eigval :      673.45   675.40   678.87   683.04   697.99   701.57
eigval :      706.47   710.11   711.89   727.34   735.12   737.05
eigval :      750.71   755.48   759.65   765.58   768.08   773.71
eigval :      778.40   779.51   782.47   787.05   821.57   838.33
eigval :      843.21   845.73   848.65   862.81   868.44   869.39
eigval :      870.85   875.16   877.78   881.27   889.96   892.83
eigval :      899.57   901.19   902.41   903.48   907.20   907.96
eigval :      908.18   910.46   914.97   917.90   920.86   921.70
eigval :      924.58   925.36   927.52   929.15   930.01   936.11
eigval :      941.73   950.16   999.18  1011.59  1014.61  1026.34
eigval :     1040.96  1058.54  1067.79  1071.32  1084.98  1086.64
eigval :     1100.64  1105.06  1107.96  1109.89  1119.11  1132.13
eigval :     1138.47  1142.12  1146.67  1151.51  1165.49  1170.84
eigval :     1176.32  1179.36  1179.40  1179.87  1182.50  1182.87
eigval :     1184.43  1185.38  1186.53  1194.68  1201.78  1211.69
eigval :     1218.67  1230.64  1234.99  1240.39  1253.70  1255.98
eigval :     1257.51  1259.55  1260.54  1268.22  1280.28  1283.48
eigval :     1288.41  1289.93  1297.05  1306.87  1308.51  1316.30
eigval :     1318.12  1326.04  1338.73  1344.65  1347.49  1350.94
eigval :     1352.39  1359.54  1362.59  1375.82  1377.95  1379.94
eigval :     1386.82  1404.24  1405.47  1407.97  1410.27  1419.19
eigval :     1421.06  1423.30  1428.78  1430.02  1435.28  1444.86
eigval :     1457.77  1465.95  1466.45  1485.61  1497.76  1499.96
eigval :     1509.02  1512.90  1525.95  1526.36  1530.81  1541.59
eigval :     1546.91  1550.74  1553.94  1562.37  1567.47  1571.27
eigval :     1573.37  1585.75  1588.67  1592.79  1598.62  1603.14
eigval :     1606.16  2349.37  3073.78  3077.93  3078.93  3080.18
eigval :     3080.89  3081.35  3081.71  3081.88  3083.33  3085.14
eigval :     3085.17  3086.07  3086.32  3086.44  3088.06  3089.77
eigval :     3090.62  3092.20  3093.14  3093.54  3093.88  3097.28
eigval :     3097.82  3097.95  3098.53  3099.19  3100.03  3100.88
eigval :     3101.95  3102.63  3102.79  3104.96  3108.10  3111.76

   temp. (K)  partition function   enthalpy   heat capacity  entropy
                                   cal/mol     cal/K/mol   cal/K/mol   J/K/mol
 298.15  VIB  0.288E+22            27948.523    179.111    172.970
         ROT  0.164E+09              888.752      2.981     40.571
         INT  0.473E+30            28837.275    182.092    213.541
         TR   0.214E+29             1481.254      4.968     45.846
         TOT                       30318.5289   187.0597   259.3878  1085.2785

       T/K    H(0)-H(T)+PV         H(T)/Eh          T*S/Eh         G(T)/Eh
   ------------------------------------------------------------------------
    298.15    0.483157E-01    0.771201E+00    0.123244E+00    0.647957E+00
   ------------------------------------------------------------------------

         :::::::::::::::::::::::::::::::::::::::::::::::::::::
         ::                  THERMODYNAMIC                  ::
         :::::::::::::::::::::::::::::::::::::::::::::::::::::
         :: total free energy        -152.594599814040 Eh   ::
         ::.................................................::
         :: total energy             -153.242557308614 Eh   ::
         :: zero point energy           0.722885352968 Eh   ::
         :: G(RRHO) w/o ZPVE           -0.074927858394 Eh   ::
         :: G(RRHO) contrib.            0.647957494574 Eh   ::
         :::::::::::::::::::::::::::::::::::::::::::::::::::::

           -------------------------------------------------
          | TOTAL ENERGY             -153.242557308614 Eh   |
          | TOTAL ENTHALPY           -152.471356304438 Eh   |
          | TOTAL FREE ENERGY        -152.594599814040 Eh   |
          | GRADIENT NORM               0.000135842246 Eh/α |
           -------------------------------------------------

 * finished run on 2025/09/13 at 01:06:46.741
