   * xtb version 6.7.1 (edcfbbe) compiled by 'albert@albert-system' on 2024-07-22

   ID    Z sym.   atoms
    1    7 N      1, 7, 21, 42
    2    6 C      2-6, 8-20, 22-41, 43-62
    3    1 H      63-96

          program call               : xtb data2507/gas/CCAPI/CCAPI_gas_S0_crest.xyz --gfn 2 --ohess vtight --parallel 40 --molden --ceasefiles --namespace data2507/gas/CCAPI/CCAPI_gas_S0_finalOpt
          :  Hamiltonian                  GFN2-xTB          :
 * total energy  :  -153.3032406 Eh     change       -0.5804026E-08 Eh
 * total energy  :  -153.3032405 Eh     change        0.1340795E-06 Eh
 * total energy  :  -153.3032412 Eh     change       -0.6859079E-06 Eh
 * total energy  :  -153.3032440 Eh     change       -0.2790074E-05 Eh
 * total energy  :  -153.3032461 Eh     change       -0.2129824E-05 Eh
 * total energy  :  -153.3032520 Eh     change       -0.5884658E-05 Eh
 * total energy  :  -153.3032554 Eh     change       -0.3391441E-05 Eh
 * total energy  :  -153.3032572 Eh     change       -0.1823440E-05 Eh
 * total energy  :  -153.3032591 Eh     change       -0.1890358E-05 Eh
 * total energy  :  -153.3032622 Eh     change       -0.3105576E-05 Eh
 * total energy  :  -153.3032728 Eh     change       -0.3239617E-05 Eh
 * total energy  :  -153.3032749 Eh     change       -0.2083443E-05 Eh
 * total energy  :  -153.3032766 Eh     change       -0.1712732E-05 Eh
 * total energy  :  -153.3032783 Eh     change       -0.1627214E-05 Eh
 * total energy  :  -153.3032795 Eh     change       -0.1242746E-05 Eh
 * total energy  :  -153.3032808 Eh     change       -0.1341634E-05 Eh
 * total energy  :  -153.3032820 Eh     change       -0.1180945E-05 Eh
 * total energy  :  -153.3032829 Eh     change       -0.8861511E-06 Eh
 * total energy  :  -153.3032829 Eh     change       -0.7322228E-08 Eh
   *** GEOMETRY OPTIMIZATION CONVERGED AFTER 22 ITERATIONS ***

 final structure:
================
96
 xtb: 6.7.1 (edcfbbe)
N           -1.58879826666269        5.90282410511385       -2.09062142156769
C           -2.06806521555600        4.92279454779604       -1.73610805279219
C           -2.66870719008765        3.71623747120691       -1.31511580524868
C           -3.60949112541358        3.11008750796703       -2.12307104339267
C           -4.18401050103358        1.89808246173498       -1.74367729069673
C           -3.84282745923867        1.30602066275330       -0.54658604783480
N           -4.35031593063500        0.03732326611110       -0.22773932946092
C           -3.56992468439012       -1.09680946605931       -0.08817128551946
C           -2.11634539127396       -1.07038078583586       -0.16519469387874
C           -1.44116024895297       -0.34041399051025       -1.14086588122300
C           -0.06380161276718       -0.26321873902411       -1.12287150722479
C            0.67247097801898       -0.91674539860854       -0.13831096649409
C            2.14040422449319       -0.77699282353030       -0.09124985394363
C            2.70398528311595        0.48401251747873        0.15927701057182
C            1.90428856702280        1.62981583284094        0.41253202008054
C            2.46626814481017        2.85495743270196        0.60101205694723
C            3.86488655261584        3.01415179381845        0.54762355390667
C            4.67050778154839        1.93586219635469        0.34779697244482
C            4.12508237569048        0.63745716277200        0.17287794279265
C            4.93895642639908       -0.49159096726315       -0.00183027992037
N            6.33812529861934       -0.34880485913316        0.03856603906277
C            7.08096885604753        0.01625422144280        1.14119722469172
C            6.65530776966463        0.29724377027610        2.43131827893506
C            7.61709863425880        0.62742534553259        3.36591223062439
C            8.96965923827974        0.67301089078394        3.03241401458470
C            9.39835409403053        0.38272308192187        1.75266629705333
C            8.45104737766484        0.04846654614250        0.79345255886298
C            8.52660481963748       -0.31117451120607       -0.59514254583523
C            9.57369770793104       -0.44408517745349       -1.49806318260794
C            9.28372296164005       -0.80719775148114       -2.79798067209793
C            7.97004132324839       -1.03067553961753       -3.20678511868707
C            6.91102983927453       -0.90424643681727       -2.32933017237790
C            7.19942881566650       -0.55142277753416       -1.01903817978690
C            4.38175130840500       -1.76008661065258       -0.22039298159879
C            5.18681017729867       -2.92067380890364       -0.35818827724394
C            4.62844267502390       -4.13514198735337       -0.61304672258138
C            3.23247077748017       -4.25924452643199       -0.75820425094240
C            2.42482172349308       -3.17498590420057       -0.60178495016962
C            2.96097166715208       -1.89586387162076       -0.29784789452074
C           -0.00226003039765       -1.69191600066644        0.80179922115450
C           -1.37932996964450       -1.77178217299789        0.78720442155679
N           -4.28739887757982       -2.16110907267699        0.14444815380439
C           -5.58447310390858       -1.74785469649010        0.15207609799173
C           -6.75289229205739       -2.54053310417676        0.32388939510776
C           -6.66898034378597       -3.92457974677996        0.50848880843756
C           -7.80994123634768       -4.67621940390644        0.63658382033793
C           -9.05299877681590       -4.04912416182080        0.57630547664667
C           -9.14676530449704       -2.68826041020179        0.40154946095953
C           -8.00389305621521       -1.88332927248335        0.27739934833273
C           -8.06875036523960       -0.43943760447423        0.13163006973516
C           -9.28899971517816        0.25054155878980        0.16477447226064
C           -9.35488509819399        1.62089104183796        0.07755909348931
C           -8.18840299827656        2.37188597751242       -0.02763564830383
C           -6.97323177482814        1.73479843791264       -0.07342480487797
C           -6.88677439405432        0.33640976821324       -0.01977404424723
C           -5.65538224122386       -0.37449461557212       -0.06892019873878
C           -2.91866564503926        1.92848565728030        0.33678746959456
C           -2.59350610817385        1.38859065043047        1.59879313516985
C           -1.66342615364687        1.99391656370537        2.39656550949963
C           -1.02536693718085        3.17072459502005        1.97844430937709
C           -1.34661128341891        3.74025073279103        0.77749022190844
C           -2.30197792097822        3.14041094571434       -0.06711974866315
H           -3.88453563250628        3.56370803863856       -3.06356549227912
H           -4.89445945528159        1.41069756816559       -2.39531949708824
H           -1.99027881178258        0.15946649267235       -1.92502545352602
H            0.45392979054695        0.30836760943728       -1.87956857537963
H            0.83139434539422        1.51478147170063        0.45767113773337
H            1.84179730077198        3.71625938460689        0.78543599027787
H            4.29202333377912        3.99774157268521        0.67341907514419
H            5.74221689387760        2.06015274979792        0.31562939849156
H            5.60774638680826        0.26131867792178        2.69143755884698
H            7.31508285576978        0.85442799643796        4.37776999136726
H            9.69058397217209        0.93704198471064        3.79187592881346
H           10.44717625449718        0.41203951244726        1.49820083355217
H           10.59136035378331       -0.26456233601658       -1.18533701930650
H           10.08406599222245       -0.91776256118159       -3.51452234669787
H            7.77628479228368       -1.30764164558475       -4.23257776692004
H            5.89365313919014       -1.07627860625437       -2.64806128705654
H            6.25735868339551       -2.82830866677530       -0.25559931059857
H            5.25205541651414       -5.01084810727721       -0.71359689928890
H            2.80860095091849       -5.22497611612541       -0.99039317957273
H            1.35561288514793       -3.27332030683119       -0.71386784064566
H            0.56258877743969       -2.21470496718088        1.55995346684821
H           -1.90577147680932       -2.36166967900559        1.52162406684979
H           -5.68724847058277       -4.37111670040884        0.53806624852259
H           -7.75071923969076       -5.74522130362082        0.77766509166136
H           -9.95418140426362       -4.63799518300561        0.66805242775866
H          -10.13029457273415       -2.24814517004712        0.35813698440703
H          -10.21141585467581       -0.29676259216073        0.27174546993038
H          -10.31371676791093        2.11691295429702        0.10634498825918
H           -8.23710453067970        3.44989667039332       -0.06815401230542
H           -6.06950054951881        2.32127475089539       -0.13232101649495
H           -3.09377630331072        0.49346878953011        1.93581750939784
H           -1.41733181248299        1.56912086522610        3.35779823408268
H           -0.28735419564530        3.62927530124661        2.61897592027974
H           -0.87750883847370        4.65866774809366        0.45530991731557

          :  Hamiltonian                  GFN2-xTB          :
         :: gradient norm              0.000066127784 Eh/a0 ::
         :: HOMO-LUMO gap              1.511591221923 eV    ::
         :: SCC energy              -156.255227915177 Eh    ::
         :: -> dispersion             -0.154948668043 Eh    ::
         :: repulsion energy           2.951944993589 Eh    ::

    * Orbital Energies and Occupations

         #    Occupation            Energy/Eh            Energy/eV
      -------------------------------------------------------------
         1        2.0000           -0.6969008             -18.9636
       ...           ...                  ...                  ...
       131        2.0000           -0.4140281             -11.2663
       132        2.0000           -0.4129986             -11.2383
       133        2.0000           -0.4107051             -11.1759
       134        2.0000           -0.4082814             -11.1099
       135        2.0000           -0.4073476             -11.0845
       136        2.0000           -0.4020623             -10.9407
       137        2.0000           -0.4005908             -10.9006
       138        2.0000           -0.3863395             -10.5128
       139        2.0000           -0.3848732             -10.4729
       140        2.0000           -0.3763235             -10.2403
       141        2.0000           -0.3732952             -10.1579
       142        2.0000           -0.3697197             -10.0606
       143        2.0000           -0.3589302              -9.7670 (HOMO)
       144                         -0.3033802              -8.2554 (LUMO)
       145                         -0.2903320              -7.9003
       146                         -0.2637231              -7.1763
       147                         -0.2597888              -7.0692
       148                         -0.2535001              -6.8981
       149                         -0.2465320              -6.7085
       150                         -0.2424976              -6.5987
       151                         -0.2406199              -6.5476
       152                         -0.2402984              -6.5389
       153                         -0.2365135              -6.4359
       154                         -0.2285097              -6.2181
       ...                                ...                  ...
       282                          1.1615394              31.6071
      -------------------------------------------------------------
                  HL-Gap            0.0555500 Eh            1.5116 eV

     #   Z          covCN         q      C6AA      α(0)
     1   7 N        0.911    -0.234    26.117     7.391
     2   6 C        1.913     0.114    28.295     8.591
     3   6 C        2.970     0.009    27.809     8.650
     4   6 C        2.926    -0.021    28.525     8.759
     5   6 C        2.918    -0.039    28.979     8.828
     6   6 C        2.909     0.069    26.465     8.436
     7   7 N        2.842    -0.045    22.112     6.984
     8   6 C        3.191     0.130    24.712     8.108
     9   6 C        2.974     0.001    28.005     8.680
    10   6 C        2.922    -0.034    28.847     8.808
    11   6 C        2.924    -0.032    28.792     8.800
    12   6 C        2.978     0.017    27.615     8.620
    13   6 C        2.976    -0.007    28.196     8.710
    14   6 C        2.984     0.007    27.865     8.659
    15   6 C        2.917    -0.034    28.844     8.807
    16   6 C        2.915    -0.029    28.716     8.787
    17   6 C        2.915    -0.028    28.694     8.784
    18   6 C        2.917    -0.031    28.774     8.796
    19   6 C        2.983     0.001    27.999     8.680
    20   6 C        2.911     0.046    26.966     8.515
    21   7 N        2.803    -0.044    22.093     6.981
    22   6 C        3.080     0.048    26.844     8.494
    23   6 C        2.909    -0.050    29.230     8.865
    24   6 C        2.925    -0.033    28.830     8.805
    25   6 C        2.920    -0.041    29.029     8.835
    26   6 C        2.912    -0.033    28.828     8.804
    27   6 C        3.068    -0.019    28.400     8.738
    28   6 C        3.068    -0.019    28.401     8.739
    29   6 C        2.912    -0.033    28.828     8.804
    30   6 C        2.920    -0.041    29.026     8.835
    31   6 C        2.925    -0.033    28.824     8.804
    32   6 C        2.909    -0.049    29.225     8.864
    33   6 C        3.080     0.048    26.842     8.494
    34   6 C        2.983     0.001    27.999     8.680
    35   6 C        2.917    -0.031    28.779     8.797
    36   6 C        2.915    -0.028    28.695     8.784
    37   6 C        2.914    -0.028    28.702     8.785
    38   6 C        2.917    -0.034    28.849     8.808
    39   6 C        2.983     0.007    27.853     8.657
    40   6 C        2.923    -0.031    28.774     8.797
    41   6 C        2.925    -0.028    28.699     8.785
    42   7 N        1.893    -0.286    28.260     7.881
    43   6 C        3.209     0.057    26.114     8.320
    44   6 C        2.986     0.003    27.950     8.672
    45   6 C        2.922    -0.031    28.767     8.796
    46   6 C        2.917    -0.029    28.734     8.790
    47   6 C        2.917    -0.032    28.793     8.799
    48   6 C        2.922    -0.034    28.854     8.809
    49   6 C        2.979    -0.001    28.044     8.687
    50   6 C        2.980     0.003    27.959     8.674
    51   6 C        2.922    -0.033    28.822     8.804
    52   6 C        2.917    -0.032    28.802     8.801
    53   6 C        2.917    -0.031    28.772     8.796
    54   6 C        2.919    -0.039    28.974     8.827
    55   6 C        2.978    -0.002    28.077     8.692
    56   6 C        3.070     0.020    27.497     8.598
    57   6 C        2.986     0.004    27.929     8.669
    58   6 C        2.917    -0.029    28.724     8.789
    59   6 C        2.916    -0.025    28.621     8.773
    60   6 C        2.916    -0.022    28.549     8.762
    61   6 C        2.918    -0.030    28.751     8.793
    62   6 C        2.992     0.018    27.587     8.616
    63   1 H        0.926     0.048     2.341     2.392
    64   1 H        0.926     0.048     2.347     2.396
    65   1 H        0.926     0.026     2.643     2.543
    66   1 H        0.926     0.035     2.518     2.482
    67   1 H        0.926     0.026     2.642     2.542
    68   1 H        0.926     0.031     2.572     2.508
    69   1 H        0.926     0.035     2.521     2.483
    70   1 H        0.926     0.038     2.473     2.459
    71   1 H        0.926     0.023     2.695     2.567
    72   1 H        0.926     0.028     2.621     2.531
    73   1 H        0.926     0.027     2.627     2.535
    74   1 H        0.926     0.030     2.584     2.514
    75   1 H        0.926     0.030     2.584     2.514
    76   1 H        0.926     0.027     2.625     2.533
    77   1 H        0.926     0.028     2.613     2.528
    78   1 H        0.926     0.023     2.687     2.563
    79   1 H        0.926     0.037     2.486     2.466
    80   1 H        0.926     0.034     2.536     2.490
    81   1 H        0.926     0.033     2.538     2.491
    82   1 H        0.926     0.036     2.506     2.476
    83   1 H        0.926     0.039     2.458     2.452
    84   1 H        0.926     0.050     2.323     2.383
    85   1 H        0.926     0.051     2.306     2.375
    86   1 H        0.926     0.032     2.561     2.503
    87   1 H        0.926     0.030     2.590     2.516
    88   1 H        0.926     0.032     2.560     2.502
    89   1 H        0.926     0.036     2.503     2.474
    90   1 H        0.926     0.031     2.575     2.509
    91   1 H        0.926     0.029     2.603     2.523
    92   1 H        0.926     0.022     2.705     2.572
    93   1 H        0.926     0.039     2.457     2.451
    94   1 H        0.926     0.041     2.434     2.440
    95   1 H        0.926     0.043     2.407     2.426
    96   1 H        0.926     0.046     2.375     2.410

molecular dipole:
                 x           y           z       tot (Debye)
 q only:       -0.390      -0.486       0.531
   full:       -0.831      -0.450       0.552       2.782

 projected vibrational frequencies (cm⁻¹)
eigval :       -0.00    -0.00    -0.00     0.00     0.00     0.00
eigval :        8.91    10.63    13.59    20.40    24.96    28.08
eigval :       30.51    37.08    45.04    52.75    58.96    69.45
eigval :       75.90    77.61    87.41    87.99    99.08   108.94
eigval :      118.50   121.91   123.83   129.66   143.48   148.11
eigval :      157.05   159.13   166.85   185.23   190.91   197.17
eigval :      206.47   212.20   234.65   242.61   247.02   256.28
eigval :      271.30   277.27   301.02   307.19   311.21   350.37
eigval :      369.38   374.44   376.07   387.03   393.72   395.57
eigval :      400.95   402.92   406.91   412.10   416.20   421.02
eigval :      422.88   428.72   430.14   435.42   439.87   447.75
eigval :      451.34   458.96   460.83   478.85   504.95   511.40
eigval :      517.84   520.85   530.09   534.07   537.52   541.32
eigval :      542.36   575.73   582.48   584.81   586.39   588.14
eigval :      589.54   600.27   604.82   610.22   614.47   617.95
eigval :      640.81   642.58   650.05   660.49   671.26   672.77
eigval :      677.31   680.62   684.91   693.74   699.98   704.69
eigval :      706.72   708.57   730.54   734.94   736.32   739.18
eigval :      756.03   766.03   767.71   774.04   775.06   776.03
eigval :      779.23   780.30   782.95   788.33   820.16   843.38
eigval :      853.67   863.30   867.31   869.58   873.17   874.28
eigval :      875.56   879.45   881.19   887.33   901.04   901.90
eigval :      902.20   902.41   907.85   913.40   915.37   917.31
eigval :      918.60   921.04   921.15   921.57   922.68   924.99
eigval :      926.89   927.95   928.34   929.97   932.70   934.53
eigval :      936.40   942.88  1002.15  1012.24  1016.41  1025.77
eigval :     1042.95  1058.86  1068.08  1071.59  1084.03  1084.66
eigval :     1085.54  1085.85  1100.43  1107.89  1134.55  1136.51
eigval :     1141.06  1144.05  1150.89  1151.56  1170.84  1173.51
eigval :     1177.17  1179.84  1181.21  1181.91  1182.45  1183.12
eigval :     1185.38  1187.84  1194.40  1195.57  1210.78  1218.00
eigval :     1229.33  1231.41  1235.46  1238.92  1253.77  1254.63
eigval :     1257.45  1259.37  1263.77  1270.83  1283.32  1287.46
eigval :     1294.53  1306.34  1306.73  1310.22  1314.64  1326.73
eigval :     1339.48  1343.45  1347.28  1349.53  1353.05  1358.68
eigval :     1362.70  1381.33  1384.78  1386.90  1388.81  1398.97
eigval :     1407.95  1408.63  1416.33  1420.50  1428.20  1429.48
eigval :     1430.71  1432.44  1435.94  1447.90  1453.52  1471.91
eigval :     1475.75  1487.11  1489.13  1502.61  1514.83  1518.70
eigval :     1526.53  1531.93  1539.96  1549.26  1554.95  1558.01
eigval :     1563.82  1567.06  1573.47  1575.04  1589.69  1594.79
eigval :     1598.11  1599.29  1605.37  1606.09  1607.56  1615.44
eigval :     1621.65  2366.07  3074.31  3075.21  3075.85  3078.13
eigval :     3078.37  3079.33  3079.75  3080.36  3080.79  3082.15
eigval :     3083.93  3085.56  3085.83  3086.31  3086.83  3087.59
eigval :     3088.19  3088.59  3088.74  3090.98  3094.19  3094.54
eigval :     3095.95  3096.14  3096.38  3098.48  3098.65  3099.89
eigval :     3100.85  3101.26  3103.54  3105.13  3105.39  3112.26

   temp. (K)  partition function   enthalpy   heat capacity  entropy
                                   cal/mol     cal/K/mol   cal/K/mol   J/K/mol
 298.15  VIB  0.310E+22            27850.897    178.012    172.583
         ROT  0.163E+09              888.752      2.981     40.555
         INT  0.504E+30            28739.649    180.993    213.138
         TR   0.214E+29             1481.254      4.968     45.846
         TOT                       30220.9033   185.9610   258.9845  1083.5911

       T/K    H(0)-H(T)+PV         H(T)/Eh          T*S/Eh         G(T)/Eh
   ------------------------------------------------------------------------
    298.15    0.481601E-01    0.773861E+00    0.123052E+00    0.650809E+00
   ------------------------------------------------------------------------

         :::::::::::::::::::::::::::::::::::::::::::::::::::::
         ::                  THERMODYNAMIC                  ::
         :::::::::::::::::::::::::::::::::::::::::::::::::::::
         :: total free energy        -152.652473818806 Eh   ::
         ::.................................................::
         :: total energy             -153.303282921586 Eh   ::
         :: zero point energy           0.725700918905 Eh   ::
         :: G(RRHO) w/o ZPVE           -0.074891816126 Eh   ::
         :: G(RRHO) contrib.            0.650809102780 Eh   ::
         :::::::::::::::::::::::::::::::::::::::::::::::::::::

           -------------------------------------------------
          | TOTAL ENERGY             -153.303282921586 Eh   |
          | TOTAL ENTHALPY           -152.529421927701 Eh   |
          | TOTAL FREE ENERGY        -152.652473818806 Eh   |
          | GRADIENT NORM               0.000066132215 Eh/α |
          | HOMO-LUMO GAP               1.511592720155 eV   |
           -------------------------------------------------

 * finished run on 2025/09/13 at 00:58:28.778
