   * xtb version 6.7.1 (edcfbbe) compiled by 'albert@albert-system' on 2024-07-22

   ID    Z sym.   atoms
    1    7 N      1, 7, 21, 42
    2    6 C      2-6, 8-20, 22-41, 43-62
    3    1 H      63-96

          program call               : xtb data2507/gas/CCAPI/CCAPI.xyz --gfn 2 --ohess vtight --parallel 40 --molden --ceasefiles --namespace data2507/gas/CCAPI/CCAPI_gas_S0_preOpt
          :  Hamiltonian                  GFN2-xTB          :
 * total energy  :  -153.2697097 Eh     change       -0.2132367E-08 Eh
 * total energy  :  -153.2917860 Eh     change       -0.2207629E-01 Eh
 * total energy  :  -153.2981962 Eh     change       -0.6410216E-02 Eh
 * total energy  :  -153.2993231 Eh     change       -0.1126857E-02 Eh
 * total energy  :  -153.2994914 Eh     change       -0.1683317E-03 Eh
 * total energy  :  -153.3001058 Eh     change       -0.6143780E-03 Eh
 * total energy  :  -153.3003818 Eh     change       -0.2760438E-03 Eh
 * total energy  :  -153.3008447 Eh     change       -0.4628892E-03 Eh
 * total energy  :  -153.3011626 Eh     change       -0.3178619E-03 Eh
 * total energy  :  -153.3014797 Eh     change       -0.3171754E-03 Eh
 * total energy  :  -153.3030793 Eh     change       -0.1664670E-05 Eh
 * total energy  :  -153.3030807 Eh     change       -0.1395830E-05 Eh
 * total energy  :  -153.3030819 Eh     change       -0.1206957E-05 Eh
 * total energy  :  -153.3030829 Eh     change       -0.1021826E-05 Eh
 * total energy  :  -153.3030838 Eh     change       -0.8616842E-06 Eh
 * total energy  :  -153.3030845 Eh     change       -0.7358088E-06 Eh
 * total energy  :  -153.3030852 Eh     change       -0.6402452E-06 Eh
 * total energy  :  -153.3030857 Eh     change       -0.5372655E-06 Eh
 * total energy  :  -153.3030857 Eh     change       -0.2078281E-08 Eh
   *** GEOMETRY OPTIMIZATION CONVERGED AFTER 68 ITERATIONS ***

 final structure:
================
96
 xtb: 6.7.1 (edcfbbe)
N           -1.80754366506856        6.13373301309950       -1.69719573104788
C           -2.26730444276826        5.11955031451450       -1.42191966146696
C           -2.84452157892358        3.87178060429056       -1.09969875120642
C           -3.76522999479994        3.30990389461629       -1.96110927202333
C           -4.31709034986840        2.06086312535668       -1.68120175698805
C           -3.97308797399604        1.38621686615037       -0.52950965236282
N           -4.45649586781962        0.08687629152688       -0.31298248825465
C           -3.65536334683805       -1.03987588784204       -0.25833119007813
C           -2.20229559728386       -0.98660504835467       -0.32391810756704
C           -1.52826824977208       -0.15820270206520       -1.21841503219625
C           -0.15143171358750       -0.07266933126247       -1.18502851274913
C            0.58485392933613       -0.81647250476911       -0.26756222645784
C            2.05302979629382       -0.67719314385156       -0.19964441774694
C            2.61078003496512        0.53048432358346        0.24716358943212
C            1.80443783667246        1.62647803736842        0.65357916835910
C            2.36198479487713        2.78543938579973        1.09867660643560
C            3.76156643248168        2.91425238829901        1.19274198727658
C            4.57146373587900        1.88325584457151        0.82853854558661
C            4.03104130084460        0.66834538581610        0.33273854529589
C            4.84947001824953       -0.40359116573857       -0.05258078012438
N            6.24853420927388       -0.26772343589220        0.02246374969735
C            7.08092654138786       -0.96025433644523        0.87543025474800
C            6.75806768947736       -1.89705617624295        1.84634291626115
C            7.79281073392068       -2.43812722209184        2.58392386057884
C            9.11604544613077       -2.05645597478921        2.36890438369800
C            9.44026671564289       -1.11657651196949        1.41113043626766
C            8.41824753175124       -0.55767412526599        0.65458653457404
C            8.37929547844176        0.42396995328973       -0.39323218503896
C            9.35081035038304        1.16852265944623       -1.04987697586320
C            8.95572429322326        2.03983771833600       -2.04509148540635
C            7.61295571665805        2.17189783772903       -2.39494570608235
C            6.62761509374518        1.44289258767017       -1.75847683131511
C            7.01957744915785        0.57401022605704       -0.75057732281646
C            4.29824985904240       -1.60725845269290       -0.51573096345269
C            5.11052989113508       -2.68613982351722       -0.95175375763356
C            4.55572760756663       -3.84170835403558       -1.40848207202593
C            3.15521459688596       -3.98401206782131       -1.46685547128835
C            2.34259618984647       -2.96573712918696       -1.07315642119797
C            2.87722609678520       -1.74630534075061       -0.58015383187641
C           -0.08757736928848       -1.68560707942985        0.58782194876300
C           -1.46383706763725       -1.77290494060095        0.55883804304605
N           -4.35396233091447       -2.13203279289725       -0.11110726694669
C           -5.65818387821339       -1.74453077660814       -0.07576387440431
C           -6.81198904905998       -2.56919341225360        0.03275180839097
C           -6.70272734980238       -3.96153764045977        0.11093754770045
C           -7.82967329803532       -4.74143686881820        0.18106382774973
C           -9.08394519745842       -4.13420082018549        0.16958904255797
C           -9.20260943400522       -2.76590787797140        0.09897483452488
C           -8.07473175748052       -1.93320849733920        0.03565323936218
C           -8.16598913269979       -0.48384252581333       -0.00130420019492
C           -9.39884973881133        0.17923522267625        0.07958085064686
C           -9.48995620576529        1.55083109175937        0.09515773721994
C           -8.33739892435046        2.32886981291588        0.05046801533186
C           -7.11058194827659        1.71939563131281       -0.03942154692872
C           -6.99833914213269        0.32275166351294       -0.09082836942640
C           -5.75399716137910       -0.35969584841096       -0.19041137888516
C           -3.07016048975678        1.95818717569207        0.40824645805460
C           -2.74510135783395        1.32958908414047        1.62847624904046
C           -1.83962128521498        1.89370228531185        2.48268494157604
C           -1.22525550905950        3.11330310536332        2.16360312176679
C           -1.54334002740458        3.76427523838130        1.00391329336965
C           -2.47636662975083        3.21020975224589        0.10470013429779
H           -4.04200786883149        3.82852536225060       -2.86686472972532
H           -5.01175235946338        1.61025714405877       -2.37496098885464
H           -2.07673096656198        0.41198711389901       -1.95340513513094
H            0.36529771014290        0.57601016872635       -1.87754552478490
H            0.73004456410765        1.52585591358279        0.60810161486172
H            1.73339610225655        3.61286064691430        1.39196394271427
H            4.18560340824631        3.83481284285522        1.56500181920791
H            5.64279020858150        1.97955569590258        0.91801111712306
H            5.73304912701670       -2.19264835493613        2.01453471896485
H            7.57232179871115       -3.17239560626511        3.34472081887745
H            9.89667379973625       -2.50395811316656        2.96607096927127
H           10.46530658375626       -0.81783780627923        1.25072630152228
H           10.39216702398743        1.06313499274003       -0.78502241329136
H            9.69583978976880        2.62866808216053       -2.56634775539994
H            7.33751363869867        2.85865972992860       -3.18167842790148
H            5.58772707491480        1.54523143120318       -2.03126002379605
H            6.18389769161034       -2.57528772939152       -0.92504595472067
H            5.18533427578912       -4.65407814876202       -1.73946308609845
H            2.73233307125226       -4.90524190135812       -1.83932484130186
H            1.27006324674668       -3.06924696549651       -1.13980546405451
H            0.47848204909382       -2.27898846685989        1.29112273283328
H           -1.98944867925068       -2.43661398880045        1.22786715345987
H           -5.71300847136267       -4.39108219676189        0.10655792831003
H           -7.75088852739048       -5.81685556440421        0.23981996604052
H           -9.97416503307763       -4.74458830825212        0.21706401427511
H          -10.19401914025852       -2.34172187160638        0.09034808902119
H          -10.31122219914023       -0.39132495768014        0.14181188610144
H          -10.45788839041187        2.02561396137270        0.15768191112653
H           -8.40598318730656        3.40580747326137        0.09074952802034
H           -6.21777556702466        2.32510914827803       -0.05164235103597
H           -3.22652778751062        0.39918697997378        1.88872917676171
H           -1.59459894784449        1.40291968554563        3.41222649198299
H           -0.50861245986478        3.53943632381595        2.84918159617044
H           -1.08943888405866        4.71331657809431        0.75765648890522

          :  Hamiltonian                  GFN2-xTB          :
         :: gradient norm              0.000132855854 Eh/a0 ::
         :: HOMO-LUMO gap              1.502339646692 eV    ::
         :: SCC energy              -156.255265734535 Eh    ::
         :: -> dispersion             -0.154525022116 Eh    ::
         :: repulsion energy           2.952180012413 Eh    ::

    * Orbital Energies and Occupations

         #    Occupation            Energy/Eh            Energy/eV
      -------------------------------------------------------------
         1        2.0000           -0.6968767             -18.9630
       ...           ...                  ...                  ...
       131        2.0000           -0.4152549             -11.2997
       132        2.0000           -0.4125374             -11.2257
       133        2.0000           -0.4108400             -11.1795
       134        2.0000           -0.4086897             -11.1210
       135        2.0000           -0.4072979             -11.0831
       136        2.0000           -0.4019852             -10.9386
       137        2.0000           -0.4006272             -10.9016
       138        2.0000           -0.3863460             -10.5130
       139        2.0000           -0.3848312             -10.4718
       140        2.0000           -0.3760672             -10.2333
       141        2.0000           -0.3734227             -10.1613
       142        2.0000           -0.3699720             -10.0674
       143        2.0000           -0.3586161              -9.7584 (HOMO)
       144                         -0.3034062              -8.2561 (LUMO)
       145                         -0.2902574              -7.8983
       146                         -0.2641860              -7.1889
       147                         -0.2598377              -7.0705
       148                         -0.2535107              -6.8984
       149                         -0.2465909              -6.7101
       150                         -0.2422542              -6.5921
       151                         -0.2406706              -6.5490
       152                         -0.2403261              -6.5396
       153                         -0.2365845              -6.4378
       154                         -0.2287897              -6.2257
       ...                                ...                  ...
       282                          1.1616596              31.6104
      -------------------------------------------------------------
                  HL-Gap            0.0552099 Eh            1.5023 eV

     #   Z          covCN         q      C6AA      α(0)
     1   7 N        0.911    -0.233    26.114     7.391
     2   6 C        1.913     0.114    28.296     8.591
     3   6 C        2.970     0.009    27.808     8.650
     4   6 C        2.926    -0.021    28.525     8.759
     5   6 C        2.918    -0.039    28.979     8.828
     6   6 C        2.909     0.069    26.463     8.435
     7   7 N        2.842    -0.045    22.112     6.984
     8   6 C        3.191     0.130    24.718     8.109
     9   6 C        2.974     0.001    28.010     8.681
    10   6 C        2.921    -0.034    28.849     8.808
    11   6 C        2.924    -0.032    28.797     8.800
    12   6 C        2.978     0.018    27.609     8.619
    13   6 C        2.977    -0.007    28.187     8.709
    14   6 C        2.984     0.007    27.863     8.659
    15   6 C        2.917    -0.034    28.839     8.806
    16   6 C        2.915    -0.029    28.713     8.787
    17   6 C        2.915    -0.028    28.694     8.784
    18   6 C        2.917    -0.031    28.774     8.796
    19   6 C        2.983     0.001    27.994     8.679
    20   6 C        2.911     0.046    26.962     8.514
    21   7 N        2.803    -0.045    22.104     6.983
    22   6 C        3.080     0.048    26.844     8.494
    23   6 C        2.909    -0.050    29.233     8.866
    24   6 C        2.925    -0.033    28.830     8.805
    25   6 C        2.920    -0.042    29.032     8.836
    26   6 C        2.912    -0.033    28.829     8.804
    27   6 C        3.068    -0.019    28.404     8.739
    28   6 C        3.068    -0.019    28.405     8.739
    29   6 C        2.912    -0.033    28.829     8.804
    30   6 C        2.920    -0.041    29.028     8.835
    31   6 C        2.925    -0.033    28.824     8.804
    32   6 C        2.909    -0.050    29.229     8.865
    33   6 C        3.080     0.048    26.844     8.494
    34   6 C        2.983     0.001    27.992     8.679
    35   6 C        2.917    -0.031    28.779     8.797
    36   6 C        2.915    -0.028    28.691     8.783
    37   6 C        2.914    -0.028    28.697     8.784
    38   6 C        2.917    -0.034    28.845     8.807
    39   6 C        2.984     0.007    27.852     8.657
    40   6 C        2.923    -0.031    28.774     8.797
    41   6 C        2.926    -0.028    28.698     8.785
    42   7 N        1.893    -0.286    28.266     7.882
    43   6 C        3.209     0.057    26.117     8.321
    44   6 C        2.986     0.003    27.951     8.672
    45   6 C        2.922    -0.031    28.767     8.796
    46   6 C        2.917    -0.029    28.734     8.790
    47   6 C        2.917    -0.032    28.793     8.799
    48   6 C        2.922    -0.034    28.854     8.809
    49   6 C        2.979    -0.001    28.044     8.687
    50   6 C        2.980     0.003    27.959     8.674
    51   6 C        2.922    -0.033    28.822     8.804
    52   6 C        2.917    -0.032    28.802     8.801
    53   6 C        2.917    -0.031    28.772     8.796
    54   6 C        2.919    -0.039    28.974     8.827
    55   6 C        2.978    -0.002    28.078     8.692
    56   6 C        3.070     0.020    27.496     8.598
    57   6 C        2.986     0.004    27.926     8.668
    58   6 C        2.917    -0.029    28.723     8.789
    59   6 C        2.916    -0.025    28.619     8.773
    60   6 C        2.916    -0.022    28.549     8.762
    61   6 C        2.918    -0.030    28.756     8.794
    62   6 C        2.991     0.019    27.586     8.616
    63   1 H        0.926     0.048     2.341     2.392
    64   1 H        0.926     0.048     2.348     2.396
    65   1 H        0.926     0.026     2.644     2.543
    66   1 H        0.926     0.034     2.525     2.485
    67   1 H        0.926     0.026     2.638     2.540
    68   1 H        0.926     0.031     2.575     2.509
    69   1 H        0.926     0.034     2.524     2.485
    70   1 H        0.926     0.038     2.470     2.458
    71   1 H        0.926     0.023     2.694     2.567
    72   1 H        0.926     0.028     2.619     2.531
    73   1 H        0.926     0.027     2.629     2.536
    74   1 H        0.926     0.030     2.586     2.515
    75   1 H        0.926     0.030     2.586     2.515
    76   1 H        0.926     0.027     2.625     2.534
    77   1 H        0.926     0.028     2.610     2.526
    78   1 H        0.926     0.023     2.690     2.565
    79   1 H        0.926     0.038     2.482     2.464
    80   1 H        0.926     0.034     2.533     2.489
    81   1 H        0.926     0.034     2.536     2.490
    82   1 H        0.926     0.036     2.508     2.476
    83   1 H        0.926     0.039     2.464     2.455
    84   1 H        0.926     0.050     2.315     2.379
    85   1 H        0.926     0.051     2.307     2.375
    86   1 H        0.926     0.032     2.561     2.503
    87   1 H        0.926     0.030     2.590     2.517
    88   1 H        0.926     0.032     2.560     2.502
    89   1 H        0.926     0.036     2.503     2.474
    90   1 H        0.926     0.031     2.574     2.509
    91   1 H        0.926     0.029     2.603     2.523
    92   1 H        0.926     0.022     2.706     2.573
    93   1 H        0.926     0.039     2.458     2.451
    94   1 H        0.926     0.041     2.433     2.439
    95   1 H        0.926     0.043     2.412     2.428
    96   1 H        0.926     0.046     2.371     2.408

molecular dipole:
                 x           y           z       tot (Debye)
 q only:       -0.398      -0.522       0.482
   full:       -0.839      -0.494       0.502       2.785

 projected vibrational frequencies (cm⁻¹)
eigval :       -0.00    -0.00    -0.00     0.00     0.00     0.00
eigval :        7.87    10.39    13.23    19.19    23.55    28.72
eigval :       30.66    35.56    45.84    51.06    59.83    68.41
eigval :       75.03    77.07    87.59    87.88    98.59   107.82
eigval :      113.21   120.21   123.53   128.59   141.87   147.11
eigval :      154.80   160.74   168.01   186.32   189.11   197.18
eigval :      205.63   213.11   232.15   242.43   246.83   256.16
eigval :      271.01   277.00   301.05   306.92   311.04   346.65
eigval :      372.33   374.08   377.47   387.14   393.60   395.40
eigval :      400.37   402.92   409.31   411.71   415.34   417.74
eigval :      422.64   428.84   429.94   435.19   440.08   447.96
eigval :      449.54   458.77   461.00   478.57   502.92   510.94
eigval :      517.78   520.64   527.55   534.09   539.74   541.34
eigval :      542.51   575.58   582.16   584.83   586.80   588.00
eigval :      589.87   598.54   604.07   610.20   617.21   620.35
eigval :      639.62   641.20   649.86   660.64   671.31   672.59
eigval :      677.45   680.58   684.65   693.12   700.15   704.92
eigval :      706.78   708.34   730.49   734.93   736.66   739.17
eigval :      755.96   766.01   767.52   773.54   774.98   775.78
eigval :      779.07   780.21   782.93   788.49   819.32   843.34
eigval :      853.59   863.18   867.03   869.33   873.32   874.23
eigval :      875.54   878.68   880.82   887.57   900.91   901.86
eigval :      902.21   902.35   907.82   913.29   915.32   917.15
eigval :      918.20   920.85   920.95   921.46   921.83   924.95
eigval :      927.18   927.81   928.00   929.27   931.95   934.59
eigval :      935.73   942.84  1002.21  1012.15  1016.42  1025.82
eigval :     1042.92  1058.69  1067.87  1071.37  1084.08  1084.68
eigval :     1085.39  1085.90  1100.46  1107.90  1134.74  1136.21
eigval :     1141.07  1144.12  1150.76  1151.56  1170.83  1173.62
eigval :     1176.97  1179.78  1181.22  1181.66  1182.64  1183.10
eigval :     1185.32  1187.99  1194.21  1195.42  1210.88  1218.03
eigval :     1229.24  1231.65  1235.33  1239.00  1253.78  1254.63
eigval :     1257.43  1259.53  1263.60  1270.57  1283.34  1287.75
eigval :     1295.08  1306.70  1306.83  1310.64  1314.32  1326.92
eigval :     1339.45  1343.60  1347.50  1349.75  1352.95  1358.58
eigval :     1362.83  1381.36  1384.72  1386.94  1388.76  1398.85
eigval :     1407.91  1408.58  1416.50  1420.55  1428.38  1429.52
eigval :     1430.71  1432.50  1435.96  1448.19  1453.55  1471.88
eigval :     1476.00  1487.41  1489.36  1502.66  1514.82  1518.49
eigval :     1527.01  1532.23  1540.36  1548.54  1555.00  1558.16
eigval :     1563.84  1567.02  1573.38  1574.66  1589.77  1594.82
eigval :     1598.34  1599.34  1605.33  1606.12  1607.82  1615.62
eigval :     1621.95  2366.23  3074.30  3075.23  3075.97  3078.14
eigval :     3078.57  3079.33  3079.73  3080.04  3080.81  3082.17
eigval :     3084.04  3085.41  3085.53  3086.37  3086.83  3087.64
eigval :     3088.25  3088.57  3088.83  3091.62  3094.09  3094.51
eigval :     3096.08  3096.21  3096.36  3098.54  3098.70  3100.02
eigval :     3100.93  3101.86  3103.52  3105.16  3105.46  3112.29

   temp. (K)  partition function   enthalpy   heat capacity  entropy
                                   cal/mol     cal/K/mol   cal/K/mol   J/K/mol
 298.15  VIB  0.469E+22            27884.289    177.989    173.124
         ROT  0.164E+09              888.752      2.981     40.566
         INT  0.768E+30            28773.041    180.970    213.690
         TR   0.214E+29             1481.254      4.968     45.846
         TOT                       30254.2949   185.9385   259.5367  1085.9016

       T/K    H(0)-H(T)+PV         H(T)/Eh          T*S/Eh         G(T)/Eh
   ------------------------------------------------------------------------
    298.15    0.482133E-01    0.773834E+00    0.123314E+00    0.650520E+00
   ------------------------------------------------------------------------

         :::::::::::::::::::::::::::::::::::::::::::::::::::::
         ::                  THERMODYNAMIC                  ::
         :::::::::::::::::::::::::::::::::::::::::::::::::::::
         :: total free energy        -152.652566070676 Eh   ::
         ::.................................................::
         :: total energy             -153.303085722119 Eh   ::
         :: zero point energy           0.725620634451 Eh   ::
         :: G(RRHO) w/o ZPVE           -0.075100983008 Eh   ::
         :: G(RRHO) contrib.            0.650519651444 Eh   ::
         :::::::::::::::::::::::::::::::::::::::::::::::::::::

           -------------------------------------------------
          | TOTAL ENERGY             -153.303085722119 Eh   |
          | TOTAL ENTHALPY           -152.529251799880 Eh   |
          | TOTAL FREE ENERGY        -152.652566070676 Eh   |
          | GRADIENT NORM               0.000132878635 Eh/α |
          | HOMO-LUMO GAP               1.502338458834 eV   |
           -------------------------------------------------

 * finished run on 2025/09/13 at 00:52:25.781
