   * xtb version 6.7.1 (edcfbbe) compiled by 'albert@albert-system' on 2024-07-22

   ID    Z sym.   atoms
    1    6 C      1-6, 8-18, 20, 21, 23, 25-40, 42-44, 46
    2   16 S      7, 41
    3    7 N      19, 22, 24, 45
    4    1 H      47-68

          program call               : xtb data2507/toluene/BTCZPZ1/BTCZPZ1.xyz --gfn 2 --gbsa toluene --ohess vtight --parallel 40 --molden --ceasefiles --namespace data2507/toluene/BTCZPZ1/BTCZPZ1_toluene_S0_preOpt
      * Solvation model:               GBSA
        Solvent                        toluene
        Solvent mass                       9.2140E+01 g/mol
          :  Hamiltonian                  GFN2-xTB          :
 * total energy  :  -115.1540366 Eh     change       -0.4385768E-08 Eh
 * total energy  :  -115.2017944 Eh     change       -0.4775775E-01 Eh
 * total energy  :  -115.2222171 Eh     change       -0.2042272E-01 Eh
 * total energy  :  -115.2285293 Eh     change       -0.6312200E-02 Eh
 * total energy  :  -115.2312990 Eh     change       -0.2769718E-02 Eh
 * total energy  :  -115.2317684 Eh     change       -0.4693571E-03 Eh
 * total energy  :  -115.2320168 Eh     change       -0.2484487E-03 Eh
 * total energy  :  -115.2321839 Eh     change       -0.1670929E-03 Eh
 * total energy  :  -115.2323416 Eh     change       -0.1576872E-03 Eh
 * total energy  :  -115.2325191 Eh     change       -0.1774839E-03 Eh
 * total energy  :  -115.2333318 Eh     change       -0.2065842E-05 Eh
 * total energy  :  -115.2333332 Eh     change       -0.1371719E-05 Eh
 * total energy  :  -115.2333341 Eh     change       -0.9685877E-06 Eh
 * total energy  :  -115.2333351 Eh     change       -0.9255499E-06 Eh
 * total energy  :  -115.2333358 Eh     change       -0.7222381E-06 Eh
 * total energy  :  -115.2333363 Eh     change       -0.5253956E-06 Eh
 * total energy  :  -115.2333367 Eh     change       -0.3357112E-06 Eh
 * total energy  :  -115.2333368 Eh     change       -0.1179764E-06 Eh
 * total energy  :  -115.2333368 Eh     change       -0.6914354E-07 Eh
   *** GEOMETRY OPTIMIZATION CONVERGED AFTER 38 ITERATIONS ***

 final structure:
================
68
 xtb: 6.7.1 (edcfbbe)
C            6.84756504731976        3.43305685884218        0.27931117034028
C            7.80132774057685        2.44069827286724        0.07290786706636
C            7.43060672233683        1.11651862083499       -0.04321731366409
C            6.08473664113754        0.76725651715880        0.04371968428800
C            5.13907804182390        1.78301267572519        0.25413351685397
C            5.50616319099999        3.11264357850831        0.37184533332250
S            3.49773901411712        1.16625525042722        0.33799335145614
C            4.07766527685028       -0.46932019089258        0.06748681812548
C            5.47740237298551       -0.53648863323792       -0.04612487443439
C            6.12053514684613       -1.77095254232637       -0.18966133969102
C            5.39676585223630       -2.94077780565850       -0.18147362371766
C            4.00898305479904       -2.88301106287970       -0.06372931130991
C            2.99882132951917       -3.89989593378776        0.04306414094114
C            3.03929086661471       -5.28909488432604        0.02377765215201
C            1.85415305486218       -5.98491746010286        0.15731434993046
C            0.64064971013392       -5.31618122283179        0.30537585834708
C            0.57592305003443       -3.93500869677015        0.32623505482957
C            1.76413141399949       -3.23524375814402        0.19839737382299
N            1.97670192876470       -1.86288852101294        0.14968806871715
C            0.97601679248033       -0.90739503535637        0.08238470975001
C            0.99842376852002        0.11681970207390       -0.87201844664183
N            0.03542561879613        1.01110856985273       -0.94403901568309
C           -0.97598777392009        0.90746377767539       -0.08241327628698
N           -1.97670364927853        1.86291658549039       -0.14977880279573
C           -1.76416713759890        3.23527224323395       -0.19867527966348
C           -0.57597926450848        3.93505141941877       -0.32662426401202
C           -0.64074347742544        5.31622537206531       -0.30596849211328
C           -1.85426344516173        5.98495095507243       -0.15799643230528
C           -3.03938020741698        5.28911529433262       -0.02434274743951
C           -2.99887163397706        3.89991470653684       -0.04342508629342
C           -4.00900765643610        2.88301945288177        0.06351038393037
C           -5.39679047718284        2.94077931502820        0.18125136810169
C           -6.12053896304778        1.77094270540921        0.18960350312784
C           -5.47738330668630        0.53647219228171        0.04623162177142
C           -6.08469904840292       -0.76729471423392       -0.04341478686730
C           -7.43056067019841       -1.11656610803685        0.04361647033845
C           -7.80126103413064       -2.44077222831022       -0.07227696495264
C           -6.84748676731412       -3.43314685361260       -0.27855041051022
C           -5.50609405884046       -3.11272375260217       -0.37118422344098
C           -5.13902993004337       -1.78306616985632       -0.25370413749460
S           -3.49770520657033       -1.16629118790212       -0.33770467301302
C           -4.07764567097067        0.46931212073577       -0.06739292277800
C           -3.33684755096325        1.64207641514228       -0.01805282173084
C           -0.99836538360741       -0.11671819064466        0.87202670678946
N           -0.03537882355725       -1.01102214466269        0.94403158024595
C            3.33684907042901       -1.64206518749425        0.01799249839197
H            7.15551324037489        4.46396600105484        0.36701559581189
H            8.84399094999085        2.71222430483978        0.00353044823111
H            8.17385993451192        0.35099880878940       -0.20406783363691
H            4.75746398963664        3.87325990781163        0.53188723593394
H            7.19490781100377       -1.79470913100917       -0.27952211293734
H            5.89143376682230       -3.89646820414324       -0.25247350035696
H            3.97833670923580       -5.80718230837173       -0.09483653177074
H            1.86325604230573       -7.06453036900689        0.14731706553289
H           -0.26973820077287       -5.88762426872807        0.40786468932731
H           -0.36125251684044       -3.41532708148315        0.44884293060930
H            1.78562462877834        0.20022214686133       -1.60793921723278
H            0.36120904628647        3.41537820123138       -0.44916639702448
H            0.26962802136277        5.88767730530527       -0.40855265973330
H           -1.86339563698547        7.06456513481122       -0.14816047599518
H           -3.97843948513621        5.80719423126799        0.09420203715683
H           -5.89147385204966        3.89647082512696        0.25212471194070
H           -7.19491133009622        1.79469102984566        0.27946951376723
H           -8.17382174141265       -0.35103440459894        0.20437258604927
H           -8.84391674164430       -2.71230645294652       -0.00281805136006
H           -7.15541852015836       -4.46407628618659       -0.36607353294127
H           -4.75738631896882       -3.87335179393145       -0.53112955131447
H           -1.78553336518925       -0.20008291345311        1.60798621414154

          :  Hamiltonian                  GFN2-xTB          :
         :: gradient norm              0.000043154638 Eh/a0 ::
         :: HOMO-LUMO gap              2.024796913273 eV    ::
         :: SCC energy              -117.261672707792 Eh    ::
         :: -> dispersion             -0.107824830779 Eh    ::
         :: -> Gsolv                  -0.050267558022 Eh    ::
         :: repulsion energy           2.028335861592 Eh    ::

    * Orbital Energies and Occupations

         #    Occupation            Energy/Eh            Energy/eV
      -------------------------------------------------------------
         1        2.0000           -0.7364243             -20.0391
       ...           ...                  ...                  ...
        95        2.0000           -0.4284487             -11.6587
        96        2.0000           -0.4277347             -11.6393
        97        2.0000           -0.4205462             -11.4436
        98        2.0000           -0.4198194             -11.4239
        99        2.0000           -0.4150762             -11.2948
       100        2.0000           -0.4150690             -11.2946
       101        2.0000           -0.3959279             -10.7737
       102        2.0000           -0.3946355             -10.7386
       103        2.0000           -0.3846300             -10.4663
       104        2.0000           -0.3844929             -10.4626
       105        2.0000           -0.3816744             -10.3859
       106        2.0000           -0.3770387             -10.2597
       107        2.0000           -0.3680021             -10.0138 (HOMO)
       108                         -0.2935922              -7.9891 (LUMO)
       109                         -0.2766917              -7.5292
       110                         -0.2696856              -7.3385
       111                         -0.2608872              -7.0991
       112                         -0.2410385              -6.5590
       113                         -0.2401390              -6.5345
       114                         -0.2351755              -6.3995
       115                         -0.2349402              -6.3930
       116                         -0.2306773              -6.2770
       117                         -0.2305662              -6.2740
       118                         -0.2160532              -5.8791
       ...                                ...                  ...
       216                          0.7371923              20.0600
      -------------------------------------------------------------
                  HL-Gap            0.0744099 Eh            2.0248 eV

     #   Z          covCN         q      C6AA      α(0)
     1   6 C        2.924    -0.030    28.742     8.792
     2   6 C        2.918    -0.033    28.826     8.804
     3   6 C        2.918    -0.032    28.803     8.801
     4   6 C        3.103    -0.002    27.935     8.661
     5   6 C        3.003     0.043    27.016     8.526
     6   6 C        2.935    -0.038    28.953     8.825
     7  16 S        2.199    -0.149   147.330    20.429
     8   6 C        2.990     0.018    27.603     8.618
     9   6 C        3.099    -0.006    28.047     8.679
    10   6 C        2.917    -0.043    29.064     8.841
    11   6 C        2.911    -0.038    28.948     8.822
    12   6 C        3.065    -0.017    28.359     8.732
    13   6 C        3.068    -0.015    28.304     8.724
    14   6 C        2.913    -0.033    28.813     8.802
    15   6 C        2.920    -0.038    28.939     8.822
    16   6 C        2.925    -0.031    28.776     8.797
    17   6 C        2.910    -0.046    29.147     8.853
    18   6 C        3.071     0.053    26.732     8.478
    19   7 N        2.803    -0.056    22.317     7.016
    20   6 C        2.898     0.153    24.679     8.145
    21   6 C        2.907     0.050    26.869     8.499
    22   7 N        1.847    -0.242    27.173     7.726
    23   6 C        2.898     0.153    24.679     8.145
    24   7 N        2.803    -0.056    22.317     7.016
    25   6 C        3.071     0.053    26.732     8.478
    26   6 C        2.910    -0.046    29.147     8.853
    27   6 C        2.925    -0.031    28.776     8.797
    28   6 C        2.920    -0.038    28.939     8.822
    29   6 C        2.913    -0.033    28.813     8.802
    30   6 C        3.068    -0.015    28.304     8.724
    31   6 C        3.065    -0.017    28.359     8.732
    32   6 C        2.911    -0.038    28.948     8.822
    33   6 C        2.917    -0.043    29.064     8.841
    34   6 C        3.099    -0.006    28.047     8.679
    35   6 C        3.103    -0.002    27.935     8.661
    36   6 C        2.918    -0.032    28.803     8.801
    37   6 C        2.918    -0.033    28.826     8.804
    38   6 C        2.924    -0.030    28.742     8.792
    39   6 C        2.935    -0.038    28.953     8.825
    40   6 C        3.003     0.043    27.016     8.526
    41  16 S        2.199    -0.149   147.330    20.429
    42   6 C        2.990     0.018    27.603     8.618
    43   6 C        3.076     0.038    27.069     8.530
    44   6 C        2.907     0.050    26.869     8.499
    45   7 N        1.847    -0.242    27.173     7.726
    46   6 C        3.076     0.038    27.069     8.530
    47   1 H        0.926     0.045     2.379     2.412
    48   1 H        0.926     0.045     2.387     2.416
    49   1 H        0.926     0.047     2.364     2.404
    50   1 H        0.926     0.041     2.431     2.438
    51   1 H        0.926     0.049     2.329     2.386
    52   1 H        0.926     0.050     2.324     2.384
    53   1 H        0.926     0.045     2.388     2.416
    54   1 H        0.926     0.043     2.415     2.430
    55   1 H        0.926     0.042     2.429     2.437
    56   1 H        0.926     0.037     2.483     2.464
    57   1 H        0.926     0.049     2.338     2.391
    58   1 H        0.926     0.037     2.482     2.464
    59   1 H        0.926     0.042     2.429     2.437
    60   1 H        0.926     0.043     2.415     2.430
    61   1 H        0.926     0.045     2.388     2.416
    62   1 H        0.926     0.050     2.324     2.384
    63   1 H        0.926     0.049     2.329     2.386
    64   1 H        0.926     0.047     2.364     2.404
    65   1 H        0.926     0.045     2.387     2.416
    66   1 H        0.926     0.045     2.379     2.412
    67   1 H        0.926     0.041     2.431     2.438
    68   1 H        0.926     0.049     2.338     2.391

molecular dipole:
                 x           y           z       tot (Debye)
 q only:       -0.000       0.000      -0.000
   full:       -0.000       0.000      -0.000       0.000

 projected vibrational frequencies (cm⁻¹)
eigval :       -0.00    -0.00    -0.00    -0.00     0.00     0.00
eigval :        6.22    11.15    22.95    30.26    32.60    36.37
eigval :       43.05    76.51    79.46    98.79   101.68   111.58
eigval :      115.62   132.16   136.15   141.01   151.67   160.62
eigval :      200.07   210.34   223.26   230.21   237.32   257.18
eigval :      257.28   264.07   272.44   297.95   317.59   321.43
eigval :      353.63   357.18   382.91   397.59   398.89   401.92
eigval :      405.11   410.25   420.83   435.43   436.50   464.08
eigval :      470.45   478.31   478.49   482.12   484.04   485.77
eigval :      494.02   498.51   527.77   534.62   540.28   542.28
eigval :      552.51   562.98   590.32   597.68   598.48   601.11
eigval :      608.79   631.25   639.21   660.64   661.80   663.55
eigval :      669.42   683.59   683.65   696.56   702.81   703.66
eigval :      707.14   719.39   739.73   771.15   771.28   773.24
eigval :      773.28   774.16   799.03   818.39   818.48   830.59
eigval :      831.40   851.85   868.57   868.62   869.54   869.59
eigval :      892.71   892.73   898.70   901.85   901.85   904.46
eigval :      904.47   910.65   918.60   920.49   920.56   921.00
eigval :      921.05   939.40   965.00  1022.80  1030.54  1036.66
eigval :     1045.30  1046.85  1068.45  1068.53  1075.15  1075.19
eigval :     1118.23  1118.31  1126.60  1126.67  1148.19  1148.37
eigval :     1159.34  1159.68  1176.35  1176.43  1177.49  1178.25
eigval :     1185.10  1189.65  1217.29  1221.69  1222.44  1234.41
eigval :     1236.10  1237.82  1263.06  1272.93  1285.93  1290.48
eigval :     1292.95  1311.67  1321.44  1336.39  1336.39  1352.09
eigval :     1353.66  1372.79  1373.47  1379.54  1381.14  1392.55
eigval :     1394.66  1404.96  1411.60  1415.48  1431.48  1439.98
eigval :     1453.41  1454.49  1457.85  1457.88  1477.14  1477.75
eigval :     1499.55  1554.96  1555.10  1567.32  1567.32  1568.76
eigval :     1577.78  1578.54  1584.42  1585.05  1589.94  1590.20
eigval :     1603.68  1604.46  3062.22  3064.34  3080.29  3080.30
eigval :     3081.96  3081.96  3087.49  3087.50  3087.76  3087.76
eigval :     3094.21  3094.23  3096.82  3096.84  3097.88  3097.93
eigval :     3100.85  3100.89  3103.48  3103.57  3107.82  3107.90

   temp. (K)  partition function   enthalpy   heat capacity  entropy
                                   cal/mol     cal/K/mol   cal/K/mol   J/K/mol
 298.15  VIB  0.844E+15            19868.379    129.410    121.373
         ROT  0.781E+08              888.752      2.981     39.096
         INT  0.659E+23            20757.131    132.391    160.469
         TR   0.150E+29             1481.254      4.968     45.149
         TOT                       22238.3854   137.3592   205.6181   860.3063

       T/K    H(0)-H(T)+PV         H(T)/Eh          T*S/Eh         G(T)/Eh
   ------------------------------------------------------------------------
    298.15    0.354391E-01    0.529316E+00    0.976958E-01    0.431621E+00
   ------------------------------------------------------------------------

         :::::::::::::::::::::::::::::::::::::::::::::::::::::
         ::                  THERMODYNAMIC                  ::
         :::::::::::::::::::::::::::::::::::::::::::::::::::::
         :: total free energy        -114.801716318453 Eh   ::
         ::.................................................::
         :: total energy             -115.233336837406 Eh   ::
         :: zero point energy           0.493877209457 Eh   ::
         :: G(RRHO) w/o ZPVE           -0.062256690504 Eh   ::
         :: G(RRHO) contrib.            0.431620518953 Eh   ::
         :::::::::::::::::::::::::::::::::::::::::::::::::::::

           -------------------------------------------------
          | TOTAL ENERGY             -115.233336837406 Eh   |
          | TOTAL ENTHALPY           -114.704020504999 Eh   |
          | TOTAL FREE ENERGY        -114.801716318453 Eh   |
          | GRADIENT NORM               0.000043196158 Eh/α |
          | HOMO-LUMO GAP               2.024797637494 eV   |
           -------------------------------------------------

 * finished run on 2025/08/21 at 18:40:54.557
