   * xtb version 6.7.1 (edcfbbe) compiled by 'albert@albert-system' on 2024-07-22

   ID    Z sym.   atoms
    1    6 C      1-6, 8-18, 20, 21, 23, 25-40, 42-44, 46
    2   16 S      7, 41
    3    7 N      19, 22, 24, 45
    4    1 H      47-68

          program call               : xtb data2507/toluene/BTCZPZ1/BTCZPZ1_toluene_S0_crest.xyz --gfn 2 --gbsa toluene --ohess vtight --parallel 40 --molden --ceasefiles --namespace data2507/toluene/BTCZPZ1/BTCZPZ1_toluene_S0_finalOpt
      * Solvation model:               GBSA
        Solvent                        toluene
        Solvent mass                       9.2140E+01 g/mol
          :  Hamiltonian                  GFN2-xTB          :
 * total energy  :  -115.2326235 Eh     change       -0.1314831E-08 Eh
 * total energy  :  -115.2326785 Eh     change       -0.5507722E-04 Eh
 * total energy  :  -115.2327092 Eh     change       -0.3069324E-04 Eh
 * total energy  :  -115.2327189 Eh     change       -0.9654864E-05 Eh
 * total energy  :  -115.2327301 Eh     change       -0.1122623E-04 Eh
 * total energy  :  -115.2327395 Eh     change       -0.9340637E-05 Eh
 * total energy  :  -115.2327481 Eh     change       -0.8676082E-05 Eh
 * total energy  :  -115.2327559 Eh     change       -0.7773206E-05 Eh
 * total energy  :  -115.2327619 Eh     change       -0.6035108E-05 Eh
 * total energy  :  -115.2327663 Eh     change       -0.4397031E-05 Eh
 * total energy  :  -115.2328332 Eh     change       -0.5376283E-06 Eh
 * total energy  :  -115.2328337 Eh     change       -0.5333970E-06 Eh
 * total energy  :  -115.2328342 Eh     change       -0.4933813E-06 Eh
 * total energy  :  -115.2328346 Eh     change       -0.4133136E-06 Eh
 * total energy  :  -115.2328350 Eh     change       -0.3497728E-06 Eh
 * total energy  :  -115.2328353 Eh     change       -0.3502350E-06 Eh
 * total energy  :  -115.2328358 Eh     change       -0.4525101E-06 Eh
 * total energy  :  -115.2328364 Eh     change       -0.6398477E-06 Eh
 * total energy  :  -115.2328364 Eh     change       -0.6207884E-08 Eh
   *** GEOMETRY OPTIMIZATION CONVERGED AFTER 44 ITERATIONS ***

 final structure:
================
68
 xtb: 6.7.1 (edcfbbe)
C            2.69959609720584       -5.36561197231037       -0.99570290976525
C            4.04124224541341       -5.33408725035965       -0.62642549904752
C            4.65520111831291       -4.14403747128807       -0.29316454473922
C            3.92301968534373       -2.95906124506224       -0.31939061787391
C            2.56868090921405       -3.01306042024748       -0.68683831720839
C            1.95224449652793       -4.20365499355940       -1.03222928058280
S            1.79688236824618       -1.43778974222921       -0.65730716164722
C            3.30239618041617       -0.69412579371337       -0.14701935870220
C            4.35634189397365       -1.61635589443371       -0.02700803500636
C            5.64710215014424       -1.18080850128855        0.29481594390282
C            5.91335699002899        0.15937475266103        0.45582156393830
C            4.87483455876889        1.08144033843220        0.33029249142760
C            4.83420248253941        2.51789266448310        0.36375757105493
C            5.80045812716171        3.49487536478368        0.57252857265087
C            5.41786419425348        4.82098707949458        0.52956909275759
C            4.09391824824087        5.18017364029496        0.28514791971357
C            3.11507356371630        4.22576132646268        0.07729102582533
C            3.49716129524864        2.89521483834044        0.11424469363610
N            2.72103181118606        1.75277233118716       -0.02893515145697
C            1.33519486099220        1.72652584537081       -0.07351094520978
C            0.58990576520447        0.90217064646782        0.77660435005185
N           -0.72577037215896        0.91917529859017        0.76901922473923
C           -1.33987150950443        1.72719676391144       -0.09595314741384
N           -2.72256236356788        1.74091199724797       -0.09029625460959
C           -3.51556045420975        2.87721970825705       -0.21437058761890
C           -3.15378044393043        4.21455724802751       -0.28102013523115
C           -4.16365357042587        5.15645017251708       -0.36630349648402
C           -5.50566350008722        4.78580419716269       -0.37363449039059
C           -5.87317612826906        3.45916612337695       -0.26748184334244
C           -4.87414536753471        2.49798213184831       -0.17599013542445
C           -4.90349733140865        1.07177761735487       -0.00836148666624
C           -5.96143365192362        0.16826619694331        0.07678985034259
C           -5.68655538179824       -1.17014551863791        0.22575375339239
C           -4.36298235808330       -1.61890511543301        0.28186152490024
C           -3.91027205265049       -2.97966773802895        0.41382671464477
C           -4.65963271179024       -4.14924017224828        0.52628624628380
C           -4.01507830970282       -5.36329952618578        0.64523289589119
C           -2.62466918030939       -5.43410671556695        0.66028508271304
C           -1.86079313010560       -4.28814529908342        0.55082972343726
C           -2.50965035329537       -3.07091040624361        0.42246109847343
S           -1.73003605144973       -1.50878966616343        0.27029133757262
C           -3.28715969492048       -0.71329946041143        0.20028666533982
C           -3.56016500926026        0.64205892028194        0.06278928508360
C           -0.59139359881955        2.53785460927460       -0.95956282734026
N            0.72476334302254        2.54410864013672       -0.93144441126156
C            3.55336589715642        0.65249513587630        0.07351206828639
H            2.23648442433556       -6.30477669068283       -1.25845619740276
H            4.60765793051927       -6.25299797579631       -0.60385891948614
H            5.69684312663537       -4.12455684921180       -0.01198973242534
H            0.91329693760348       -4.21378856467800       -1.32448286408315
H            6.43835049289569       -1.90796156769589        0.38593703647012
H            6.91494010968098        0.50170069114175        0.66274641976900
H            6.82566771017773        3.21782996843793        0.76394014499826
H            6.15353942170362        5.59563503187826        0.68576106314585
H            3.82584597603504        6.22574721662202        0.25606156142278
H            2.09109292433385        4.50188961310397       -0.12061493867489
H            1.05682642559141        0.24628356819048        1.49750317600629
H           -2.12083717083742        4.52552123315962       -0.24739050853414
H           -3.90167602449047        6.20241215627903       -0.42177513712140
H           -6.26459846795224        5.54988565176753       -0.44726481650791
H           -6.91230436934909        3.16980320975509       -0.24462116381692
H           -6.97838684329578        0.52304186571773        0.02137267822807
H           -6.48837042466706       -1.88819255135246        0.29432270916831
H           -5.73775628604153       -4.10069538680315        0.51992302267936
H           -4.59414967985059       -6.27066587849473        0.73141387125360
H           -2.13717217821277       -6.39229055258548        0.76105838557273
H           -0.78262562071615       -4.33009638935793        0.56977774542384
H           -1.05413278700437        3.17307456931349       -1.70142337491951

          :  Hamiltonian                  GFN2-xTB          :
         :: gradient norm              0.000055282183 Eh/a0 ::
         :: HOMO-LUMO gap              1.981830210174 eV    ::
         :: SCC energy              -117.260652942101 Eh    ::
         :: -> dispersion             -0.110513724199 Eh    ::
         :: -> Gsolv                  -0.047900224431 Eh    ::
         :: repulsion energy           2.027816512067 Eh    ::

    * Orbital Energies and Occupations

         #    Occupation            Energy/Eh            Energy/eV
      -------------------------------------------------------------
         1        2.0000           -0.7342016             -19.9786
       ...           ...                  ...                  ...
        95        2.0000           -0.4283619             -11.6563
        96        2.0000           -0.4261980             -11.5974
        97        2.0000           -0.4194650             -11.4142
        98        2.0000           -0.4180884             -11.3768
        99        2.0000           -0.4145235             -11.2798
       100        2.0000           -0.4136819             -11.2569
       101        2.0000           -0.3953203             -10.7572
       102        2.0000           -0.3943878             -10.7318
       103        2.0000           -0.3837353             -10.4420
       104        2.0000           -0.3823097             -10.4032
       105        2.0000           -0.3795755             -10.3288
       106        2.0000           -0.3722955             -10.1307
       107        2.0000           -0.3667102              -9.9787 (HOMO)
       108                         -0.2938793              -7.9969 (LUMO)
       109                         -0.2753755              -7.4933
       110                         -0.2677080              -7.2847
       111                         -0.2599769              -7.0743
       112                         -0.2397373              -6.5236
       113                         -0.2379287              -6.4744
       114                         -0.2341238              -6.3708
       115                         -0.2318162              -6.3080
       116                         -0.2301320              -6.2622
       117                         -0.2290144              -6.2318
       118                         -0.2130362              -5.7970
       ...                                ...                  ...
       216                          0.7392600              20.1163
      -------------------------------------------------------------
                  HL-Gap            0.0728309 Eh            1.9818 eV

     #   Z          covCN         q      C6AA      α(0)
     1   6 C        2.923    -0.030    28.751     8.793
     2   6 C        2.918    -0.034    28.836     8.806
     3   6 C        2.918    -0.032    28.804     8.801
     4   6 C        3.103    -0.002    27.939     8.661
     5   6 C        3.003     0.043    27.013     8.526
     6   6 C        2.936    -0.038    28.943     8.823
     7  16 S        2.196    -0.141   147.007    20.407
     8   6 C        2.991     0.019    27.584     8.615
     9   6 C        3.097    -0.006    28.060     8.681
    10   6 C        2.917    -0.043    29.067     8.841
    11   6 C        2.911    -0.039    28.959     8.824
    12   6 C        3.064    -0.017    28.376     8.735
    13   6 C        3.069    -0.015    28.304     8.723
    14   6 C        2.913    -0.033    28.813     8.802
    15   6 C        2.920    -0.038    28.948     8.823
    16   6 C        2.925    -0.032    28.791     8.799
    17   6 C        2.910    -0.047    29.169     8.856
    18   6 C        3.072     0.053    26.740     8.479
    19   7 N        2.802    -0.056    22.327     7.018
    20   6 C        2.897     0.151    24.720     8.152
    21   6 C        2.904     0.053    26.804     8.489
    22   7 N        1.889    -0.225    26.750     7.667
    23   6 C        2.894     0.150    24.746     8.156
    24   7 N        2.802    -0.053    22.253     7.006
    25   6 C        3.062     0.044    26.944     8.512
    26   6 C        2.910    -0.052    29.282     8.873
    27   6 C        2.924    -0.032    28.793     8.800
    28   6 C        2.920    -0.037    28.926     8.820
    29   6 C        2.913    -0.032    28.795     8.799
    30   6 C        3.066    -0.012    28.241     8.714
    31   6 C        3.067    -0.019    28.401     8.739
    32   6 C        2.911    -0.040    28.986     8.828
    33   6 C        2.917    -0.042    29.055     8.839
    34   6 C        3.105    -0.008    28.074     8.682
    35   6 C        3.103    -0.003    27.971     8.666
    36   6 C        2.917    -0.033    28.820     8.803
    37   6 C        2.918    -0.035    28.871     8.811
    38   6 C        2.923    -0.031    28.773     8.796
    39   6 C        2.936    -0.039    28.962     8.826
    40   6 C        3.003     0.038    27.129     8.544
    41  16 S        2.242    -0.117   145.961    20.334
    42   6 C        2.989     0.026    27.411     8.588
    43   6 C        3.067     0.046    26.902     8.505
    44   6 C        2.903     0.039    27.118     8.539
    45   7 N        1.846    -0.242    27.159     7.724
    46   6 C        3.081     0.039    27.048     8.526
    47   1 H        0.926     0.044     2.391     2.418
    48   1 H        0.926     0.044     2.396     2.421
    49   1 H        0.926     0.046     2.371     2.408
    50   1 H        0.926     0.040     2.450     2.448
    51   1 H        0.926     0.049     2.338     2.391
    52   1 H        0.926     0.049     2.335     2.390
    53   1 H        0.926     0.044     2.397     2.421
    54   1 H        0.926     0.042     2.425     2.435
    55   1 H        0.926     0.041     2.431     2.438
    56   1 H        0.926     0.035     2.516     2.480
    57   1 H        0.926     0.049     2.337     2.391
    58   1 H        0.926     0.027     2.631     2.537
    59   1 H        0.926     0.042     2.417     2.431
    60   1 H        0.926     0.043     2.407     2.426
    61   1 H        0.926     0.045     2.379     2.412
    62   1 H        0.926     0.047     2.355     2.400
    63   1 H        0.926     0.047     2.357     2.401
    64   1 H        0.926     0.043     2.409     2.427
    65   1 H        0.926     0.041     2.435     2.440
    66   1 H        0.926     0.042     2.426     2.436
    67   1 H        0.926     0.038     2.477     2.461
    68   1 H        0.926     0.052     2.294     2.368

molecular dipole:
                 x           y           z       tot (Debye)
 q only:        0.002      -0.190       0.158
   full:       -0.022      -0.236       0.169       0.739

 projected vibrational frequencies (cm⁻¹)
eigval :       -0.00    -0.00     0.00     0.00     0.00     0.00
eigval :       10.08    18.13    21.03    36.14    41.90    44.28
eigval :       46.01    68.22    85.28    91.15   106.36   111.62
eigval :      119.37   126.87   141.88   146.87   149.35   165.26
eigval :      202.32   209.03   223.70   230.08   241.59   254.34
eigval :      259.31   266.86   277.10   293.84   317.97   322.43
eigval :      356.21   358.39   383.09   400.22   400.56   403.84
eigval :      409.04   412.41   424.49   437.04   438.85   461.71
eigval :      471.57   477.63   479.75   481.84   482.52   484.80
eigval :      493.14   497.45   528.85   535.16   541.77   545.49
eigval :      556.08   561.08   591.69   595.60   599.55   600.05
eigval :      615.69   625.05   643.34   660.65   662.47   663.23
eigval :      670.26   684.51   685.70   697.63   703.15   704.14
eigval :      707.60   722.67   732.66   771.00   772.97   774.54
eigval :      774.96   776.89   797.06   818.61   819.39   831.19
eigval :      833.80   850.82   868.77   868.84   873.94   874.05
eigval :      892.79   893.52   897.62   902.33   904.15   910.62
eigval :      911.83   915.35   917.63   920.33   922.01   924.34
eigval :      925.15   938.69   965.86  1024.00  1031.60  1038.02
eigval :     1046.23  1047.38  1067.64  1073.50  1074.56  1075.67
eigval :     1117.95  1118.83  1125.73  1128.68  1146.37  1150.45
eigval :     1158.49  1161.25  1174.79  1175.93  1176.77  1178.20
eigval :     1184.26  1187.85  1217.32  1222.13  1224.38  1233.86
eigval :     1236.08  1237.78  1263.44  1270.37  1287.46  1290.67
eigval :     1296.70  1312.28  1321.26  1336.43  1338.22  1353.62
eigval :     1355.26  1372.69  1373.99  1379.52  1382.84  1387.02
eigval :     1396.42  1405.34  1411.90  1417.42  1430.48  1439.79
eigval :     1450.83  1453.70  1457.61  1458.65  1474.80  1477.51
eigval :     1499.44  1554.39  1557.11  1566.06  1566.52  1567.44
eigval :     1576.80  1579.13  1583.63  1585.23  1588.77  1590.19
eigval :     1602.87  1604.70  3066.11  3068.50  3078.20  3080.29
eigval :     3080.92  3081.08  3084.28  3086.28  3086.65  3087.03
eigval :     3092.01  3093.13  3093.63  3094.75  3095.05  3096.20
eigval :     3098.71  3099.91  3100.90  3101.55  3105.66  3106.01

   temp. (K)  partition function   enthalpy   heat capacity  entropy
                                   cal/mol     cal/K/mol   cal/K/mol   J/K/mol
 298.15  VIB  0.183E+15            19781.289    129.685    120.149
         ROT  0.699E+08              888.752      2.981     38.877
         INT  0.128E+23            20670.041    132.666    159.026
         TR   0.150E+29             1481.254      4.968     45.149
         TOT                       22151.2952   137.6345   204.1749   854.2678

       T/K    H(0)-H(T)+PV         H(T)/Eh          T*S/Eh         G(T)/Eh
   ------------------------------------------------------------------------
    298.15    0.353003E-01    0.529428E+00    0.970101E-01    0.432418E+00
   ------------------------------------------------------------------------

         :::::::::::::::::::::::::::::::::::::::::::::::::::::
         ::                  THERMODYNAMIC                  ::
         :::::::::::::::::::::::::::::::::::::::::::::::::::::
         :: total free energy        -114.800418239610 Eh   ::
         ::.................................................::
         :: total energy             -115.232836424511 Eh   ::
         :: zero point energy           0.494127933406 Eh   ::
         :: G(RRHO) w/o ZPVE           -0.061709748505 Eh   ::
         :: G(RRHO) contrib.            0.432418184901 Eh   ::
         :::::::::::::::::::::::::::::::::::::::::::::::::::::

           -------------------------------------------------
          | TOTAL ENERGY             -115.232836424511 Eh   |
          | TOTAL ENTHALPY           -114.703408155239 Eh   |
          | TOTAL FREE ENERGY        -114.800418239610 Eh   |
          | GRADIENT NORM               0.000055288853 Eh/α |
          | HOMO-LUMO GAP               1.981830351959 eV   |
           -------------------------------------------------

 * finished run on 2025/08/21 at 18:44:34.725
