   * xtb version 6.7.1 (edcfbbe) compiled by 'albert@albert-system' on 2024-07-22

   ID    Z sym.   atoms
    1    6 C      1-6, 8-18, 20, 21, 23, 25-40, 42-44, 46
    2   16 S      7, 41
    3    7 N      19, 22, 24, 45
    4    1 H      47-68

          program call               : xtb data2507/toluene/BTCZPZ1/BTCZPZ1_toluene_S0_finalOpt.xtbopt.xyz --gfn 2 --uhf 2 --gbsa toluene --ohess vtight --parallel 40 --molden --ceasefiles --namespace data2507/toluene/BTCZPZ1/BTCZPZ1_toluene_T1_preOpt
      * Solvation model:               GBSA
        Solvent                        toluene
        Solvent mass                       9.2140E+01 g/mol
          :  Hamiltonian                  GFN2-xTB          :
 * total energy  :  -115.1500378 Eh     change       -0.6726850E-09 Eh
 * total energy  :  -115.1527367 Eh     change       -0.2698889E-02 Eh
 * total energy  :  -115.1533814 Eh     change       -0.6447258E-03 Eh
 * total energy  :  -115.1534949 Eh     change       -0.1134261E-03 Eh
 * total energy  :  -115.1535772 Eh     change       -0.8234046E-04 Eh
 * total energy  :  -115.1536008 Eh     change       -0.2362666E-04 Eh
 * total energy  :  -115.1536270 Eh     change       -0.2616101E-04 Eh
 * total energy  :  -115.1536415 Eh     change       -0.1454810E-04 Eh
 * total energy  :  -115.1536503 Eh     change       -0.8710480E-05 Eh
 * total energy  :  -115.1536544 Eh     change       -0.4139549E-05 Eh
 * total energy  :  -115.1537023 Eh     change       -0.2394702E-06 Eh
 * total energy  :  -115.1537025 Eh     change       -0.1881222E-06 Eh
 * total energy  :  -115.1537027 Eh     change       -0.2105874E-06 Eh
 * total energy  :  -115.1537030 Eh     change       -0.2465531E-06 Eh
 * total energy  :  -115.1537032 Eh     change       -0.1980171E-06 Eh
 * total energy  :  -115.1537033 Eh     change       -0.1104295E-06 Eh
 * total energy  :  -115.1537033 Eh     change        0.2548262E-07 Eh
 * total energy  :  -115.1537034 Eh     change       -0.1088004E-06 Eh
 * total energy  :  -115.1537034 Eh     change       -0.3336784E-07 Eh
   *** GEOMETRY OPTIMIZATION CONVERGED AFTER 44 ITERATIONS ***

 final structure:
================
68
 xtb: 6.7.1 (edcfbbe)
C            2.67327304601611       -5.37207690662790       -1.02631339138760
C            4.02766157173841       -5.34251607101291       -0.70797744743097
C            4.65185824312828       -4.15623152562537       -0.37900429123247
C            3.91589119288316       -2.97304410131257       -0.35815499324097
C            2.54947000587105       -3.02403228778315       -0.67942133449770
C            1.92308997452907       -4.21021685917105       -1.01944864422360
S            1.77446497759653       -1.44844016995218       -0.59490688532251
C            3.29338861156378       -0.71206581964954       -0.13882800934311
C            4.35417431695363       -1.63477233862362       -0.05773263951658
C            5.64942307690764       -1.20036979179255        0.24517958643089
C            5.91901906459642        0.14052726613772        0.42224221045894
C            4.88160510511321        1.06308313728731        0.32340839630610
C            4.83633581423836        2.49906084338379        0.37751313746759
C            5.79830157871325        3.48115787711166        0.57162817955884
C            5.40210221780484        4.80656736700768        0.55423487235864
C            4.07099804409078        5.16019988674699        0.34462665439877
C            3.09431216748160        4.19896196562619        0.15125305761560
C            3.48890258712355        2.87134979533713        0.16536391422073
N            2.71871743123666        1.72999918837721        0.00902313657179
C            1.33727798932081        1.69907205138639       -0.04594935548389
C            0.61060288135553        0.92818563097518        0.84046658362395
N           -0.71788843098744        0.95089799742637        0.90060463961012
C           -1.35525782104471        1.76081404963511        0.00157136964775
N           -2.73425038837698        1.76567058099672       -0.00541218885887
C           -3.52430784089561        2.89310143060377       -0.18054956607154
C           -3.15880637995572        4.22984458060822       -0.23957388369427
C           -4.16294113183253        5.16950525331542       -0.39822044986909
C           -5.50117200243391        4.79194971522623       -0.48642015667057
C           -5.87482723704980        3.46424588767459       -0.39266237203518
C           -4.88386990565698        2.50494342697942       -0.22795726624447
C           -4.91195543389322        1.08066084628374       -0.05833635502841
C           -5.95780145700184        0.16329970385837       -0.02793929619392
C           -5.67228336200516       -1.17546900695836        0.12917877581587
C           -4.35025942468899       -1.61011769981317        0.26996406964231
C           -3.88894390244180       -2.96352423978243        0.42361069588888
C           -4.62643510763999       -4.14477069154925        0.49361160175793
C           -3.97039839294013       -5.34987843712347        0.63966110250185
C           -2.58189047685883       -5.40113150559287        0.72963625540826
C           -1.83101644079541       -4.24149441606108        0.67521272084774
C           -2.48933583329353       -3.03450608358400        0.51322492417254
S           -1.72476362958630       -1.45376309776235        0.45054244937879
C           -3.28047231083239       -0.68774922811360        0.26147477423114
C           -3.56330898101218        0.66255676816112        0.08843626272776
C           -0.62690598970337        2.51834859894802       -0.89546589143314
N            0.70302628668521        2.52249695154853       -0.93141709426811
C            3.55223608679170        0.63423173171160        0.08022512912464
H            2.20183113642798       -6.30845967711751       -1.28392365041188
H            4.59650746993859       -6.26014176131939       -0.72129259409106
H            5.70364049781471       -4.13872182406070       -0.13850089061922
H            0.87417950393011       -4.21904210596792       -1.27330447787284
H            6.44342989729293       -1.92696129679609        0.31372708617179
H            6.92429237501410        0.47758912086205        0.61978332875027
H            6.83134261769335        3.21326631320329        0.73075692683975
H            6.13588120397363        5.58429383611160        0.70379189207848
H            3.79486806772903        6.20381640965532        0.33492036674419
H            2.06226160152407        4.46482488057209       -0.01650460145500
H            1.11052816271362        0.34570659380977        1.60062192907024
H           -2.12783231253218        4.53551737784422       -0.14629752805685
H           -3.90190289358272        6.21578639920873       -0.44686811045066
H           -6.25615073542044        5.55284094230944       -0.61462499080556
H           -6.91348978518953        3.17562021975506       -0.43660416989699
H           -6.97616413825153        0.50202013908517       -0.13521828406745
H           -6.46792606791292       -1.90356086584111        0.13943656201990
H           -5.70362549613028       -4.11184633217479        0.43557692012822
H           -4.53978390353676       -6.26619586135600        0.68852392029651
H           -2.08612784303836       -6.35318805357466        0.84621223781418
H           -0.75512959542773       -4.26728890177455        0.75654704620127
H           -1.12278890447885        3.08347891444306       -1.67167453005315

          :  Hamiltonian                  GFN2-xTB          :
         :: gradient norm              0.000072942014 Eh/a0 ::
         :: HOMO-LUMO gap              0.278673896306 eV    ::
         :: SCC energy              -117.169363289294 Eh    ::
         :: -> dispersion             -0.110570279476 Eh    ::
         :: -> Gsolv                  -0.049002373482 Eh    ::
         :: repulsion energy           2.015659886513 Eh    ::

    * Orbital Energies and Occupations

         #    Occupation            Energy/Eh            Energy/eV
      -------------------------------------------------------------
         1        2.0000           -0.7340994             -19.9759
       ...           ...                  ...                  ...
        96        2.0000           -0.4209918             -11.4558
        97        2.0000           -0.4199466             -11.4273
        98        2.0000           -0.4183659             -11.3843
        99        2.0000           -0.4156354             -11.3100
       100        2.0000           -0.4137003             -11.2574
       101        2.0000           -0.3956627             -10.7665
       102        2.0000           -0.3924454             -10.6790
       103        2.0000           -0.3850006             -10.4764
       104        2.0000           -0.3823077             -10.4031
       105        2.0000           -0.3761755             -10.2363
       106        1.9847           -0.3704669             -10.0809
       107        1.0153           -0.3625575              -9.8657
       108        0.9954           -0.2806910              -7.6380 (HOMO)
       109        0.0045           -0.2704505              -7.3593 (LUMO)
       110        0.0002           -0.2673462              -7.2749
       111                         -0.2486963              -6.7674
       112                         -0.2412737              -6.5654
       113                         -0.2393792              -6.5138
       114                         -0.2342268              -6.3736
       115                         -0.2321410              -6.3169
       116                         -0.2314424              -6.2979
       117                         -0.2285335              -6.2187
       118                         -0.2115207              -5.7558
       119                         -0.2113067              -5.7499
       ...                                ...                  ...
       216                          0.7394396              20.1212
      -------------------------------------------------------------
                  HL-Gap            0.0102405 Eh            0.2787 eV

     #   Z          covCN         q      C6AA      α(0)
     1   6 C        2.923    -0.030    28.760     8.795
     2   6 C        2.918    -0.033    28.823     8.804
     3   6 C        2.917    -0.033    28.810     8.802
     4   6 C        3.100    -0.002    27.949     8.664
     5   6 C        3.003     0.040    27.084     8.537
     6   6 C        2.935    -0.037    28.929     8.821
     7  16 S        2.194    -0.120   146.094    20.343
     8   6 C        2.990     0.023    27.488     8.600
     9   6 C        3.097    -0.007    28.068     8.683
    10   6 C        2.917    -0.040    28.988     8.829
    11   6 C        2.910    -0.036    28.898     8.815
    12   6 C        3.062    -0.017    28.375     8.735
    13   6 C        3.066    -0.013    28.268     8.718
    14   6 C        2.912    -0.031    28.773     8.796
    15   6 C        2.920    -0.034    28.846     8.808
    16   6 C        2.924    -0.032    28.801     8.801
    17   6 C        2.909    -0.041    29.008     8.832
    18   6 C        3.076     0.052    26.753     8.480
    19   7 N        2.801    -0.033    21.887     6.948
    20   6 C        2.882     0.132    25.111     8.215
    21   6 C        2.890     0.048    26.917     8.506
    22   7 N        1.895    -0.265    27.727     7.806
    23   6 C        2.880     0.129    25.178     8.226
    24   7 N        2.801    -0.029    21.799     6.934
    25   6 C        3.069     0.042    26.986     8.518
    26   6 C        2.909    -0.045    29.120     8.849
    27   6 C        2.923    -0.034    28.836     8.806
    28   6 C        2.919    -0.034    28.843     8.807
    29   6 C        2.912    -0.031    28.777     8.797
    30   6 C        3.063    -0.012    28.244     8.715
    31   6 C        3.065    -0.020    28.442     8.745
    32   6 C        2.910    -0.037    28.915     8.817
    33   6 C        2.917    -0.040    28.985     8.828
    34   6 C        3.103    -0.010    28.123     8.690
    35   6 C        3.099    -0.004    27.993     8.671
    36   6 C        2.917    -0.033    28.831     8.805
    37   6 C        2.918    -0.034    28.854     8.809
    38   6 C        2.923    -0.032    28.801     8.801
    39   6 C        2.935    -0.038    28.933     8.822
    40   6 C        3.004     0.032    27.264     8.565
    41  16 S        2.250    -0.092   144.880    20.258
    42   6 C        2.987     0.030    27.329     8.575
    43   6 C        3.071     0.045    26.929     8.509
    44   6 C        2.889     0.035    27.215     8.553
    45   7 N        1.840    -0.284    28.212     7.872
    46   6 C        3.085     0.038    27.066     8.528
    47   1 H        0.926     0.045     2.389     2.417
    48   1 H        0.926     0.044     2.393     2.419
    49   1 H        0.926     0.046     2.368     2.406
    50   1 H        0.926     0.041     2.439     2.442
    51   1 H        0.926     0.052     2.296     2.370
    52   1 H        0.926     0.052     2.298     2.370
    53   1 H        0.926     0.047     2.354     2.399
    54   1 H        0.926     0.046     2.375     2.410
    55   1 H        0.926     0.044     2.399     2.422
    56   1 H        0.926     0.040     2.454     2.450
    57   1 H        0.926     0.039     2.465     2.455
    58   1 H        0.926     0.031     2.568     2.506
    59   1 H        0.926     0.043     2.403     2.424
    60   1 H        0.926     0.045     2.379     2.412
    61   1 H        0.926     0.047     2.360     2.402
    62   1 H        0.926     0.049     2.328     2.386
    63   1 H        0.926     0.049     2.327     2.386
    64   1 H        0.926     0.043     2.415     2.430
    65   1 H        0.926     0.041     2.437     2.441
    66   1 H        0.926     0.041     2.432     2.439
    67   1 H        0.926     0.038     2.476     2.461
    68   1 H        0.926     0.043     2.414     2.430

molecular dipole:
                 x           y           z       tot (Debye)
 q only:        0.190      -0.293       0.095
   full:        0.161      -0.274       0.092       0.841

 projected vibrational frequencies (cm⁻¹)
eigval :       -0.00    -0.00    -0.00     0.00     0.00     0.00
eigval :       11.48    18.22    24.45    36.62    42.05    44.21
eigval :       46.28    67.71    82.83    93.40   106.67   110.71
eigval :      116.78   123.10   141.97   145.11   146.66   161.41
eigval :      202.97   207.12   220.54   229.36   240.51   250.47
eigval :      256.76   265.62   270.34   293.04   316.30   320.86
eigval :      341.56   361.10   363.94   382.52   398.21   400.86
eigval :      403.24   408.73   423.47   434.91   437.20   459.80
eigval :      469.46   472.81   475.25   476.68   477.93   483.36
eigval :      494.36   500.23   524.95   532.56   542.39   550.49
eigval :      552.10   555.41   571.60   588.47   595.85   598.12
eigval :      608.31   614.50   627.08   641.78   658.26   658.74
eigval :      662.24   669.22   681.50   683.41   688.87   698.30
eigval :      702.31   704.28   713.58   768.52   769.70   771.32
eigval :      772.84   773.16   787.80   808.05   812.66   814.71
eigval :      818.97   832.13   833.73   867.17   867.34   872.78
eigval :      872.92   888.05   889.77   900.92   901.54   903.29
eigval :      904.43   909.79   913.77   918.05   919.31   919.82
eigval :      922.62   923.01   944.26   984.14  1026.76  1028.55
eigval :     1043.79  1046.86  1064.69  1069.04  1074.44  1075.55
eigval :     1078.87  1110.33  1113.39  1117.38  1120.27  1141.52
eigval :     1144.52  1156.33  1158.50  1161.83  1174.19  1175.01
eigval :     1177.47  1180.75  1186.66  1211.74  1212.29  1216.06
eigval :     1230.28  1234.53  1246.91  1256.55  1276.06  1284.71
eigval :     1288.25  1292.00  1298.63  1303.75  1336.27  1337.87
eigval :     1345.91  1347.18  1369.27  1371.45  1372.81  1375.89
eigval :     1376.64  1386.60  1400.73  1405.65  1406.10  1423.19
eigval :     1434.94  1436.91  1440.57  1448.69  1453.32  1459.59
eigval :     1468.74  1471.55  1530.40  1538.88  1543.23  1560.53
eigval :     1561.52  1563.21  1575.40  1577.00  1578.26  1580.20
eigval :     1581.75  1587.40  3059.53  3062.54  3078.44  3081.52
eigval :     3082.05  3082.12  3084.89  3086.12  3087.31  3089.03
eigval :     3091.25  3093.50  3093.79  3094.88  3095.79  3097.37
eigval :     3098.00  3100.03  3100.92  3102.34  3104.96  3106.35

   temp. (K)  partition function   enthalpy   heat capacity  entropy
                                   cal/mol     cal/K/mol   cal/K/mol   J/K/mol
 298.15  VIB  0.182E+15            19994.263    131.227    121.200
         ROT  0.697E+08              888.752      2.981     38.870
         INT  0.127E+23            20883.016    134.208    160.070
         TR   0.150E+29             1481.254      4.968     45.149
         TOT                       22364.2695   139.1763   205.2196   858.6388

       T/K    H(0)-H(T)+PV         H(T)/Eh          T*S/Eh         G(T)/Eh
   ------------------------------------------------------------------------
    298.15    0.356397E-01    0.526059E+00    0.975065E-01    0.428552E+00
   ------------------------------------------------------------------------

         :::::::::::::::::::::::::::::::::::::::::::::::::::::
         ::                  THERMODYNAMIC                  ::
         :::::::::::::::::::::::::::::::::::::::::::::::::::::
         :: total free energy        -114.725151304845 Eh   ::
         ::.................................................::
         :: total energy             -115.153703397251 Eh   ::
         :: zero point energy           0.490418810546 Eh   ::
         :: G(RRHO) w/o ZPVE           -0.061866718140 Eh   ::
         :: G(RRHO) contrib.            0.428552092406 Eh   ::
         :::::::::::::::::::::::::::::::::::::::::::::::::::::

           -------------------------------------------------
          | TOTAL ENERGY             -115.153703397251 Eh   |
          | TOTAL ENTHALPY           -114.627644854712 Eh   |
          | TOTAL FREE ENERGY        -114.725151304845 Eh   |
          | GRADIENT NORM               0.000073908378 Eh/α |
          | HOMO-LUMO GAP               0.278658210847 eV   |
           -------------------------------------------------

 * finished run on 2025/08/21 at 18:44:41.451
