   * xtb version 6.7.1 (edcfbbe) compiled by 'albert@albert-system' on 2024-07-22

   ID    Z sym.   atoms
    1    6 C      1-6, 8-18, 20, 21, 23, 25-40, 42-44, 46
    2   16 S      7, 41
    3    7 N      19, 22, 24, 45
    4    1 H      47-68

          program call               : xtb data2507/toluene/BTCZPZ1/BTCZPZ1_toluene_T1_crest.xyz --gfn 2 --uhf 2 --gbsa toluene --ohess vtight --parallel 40 --molden --ceasefiles --namespace data2507/toluene/BTCZPZ1/BTCZPZ1_toluene_T1_finalOpt
      * Solvation model:               GBSA
        Solvent                        toluene
        Solvent mass                       9.2140E+01 g/mol
          :  Hamiltonian                  GFN2-xTB          :
 * total energy  :  -115.1533573 Eh     change       -0.1056608E-07 Eh
 * total energy  :  -115.1534441 Eh     change       -0.8681992E-04 Eh
 * total energy  :  -115.1535048 Eh     change       -0.6072712E-04 Eh
 * total energy  :  -115.1535221 Eh     change       -0.1727639E-04 Eh
 * total energy  :  -115.1535377 Eh     change       -0.1558285E-04 Eh
 * total energy  :  -115.1535557 Eh     change       -0.1805916E-04 Eh
 * total energy  :  -115.1535641 Eh     change       -0.8389180E-05 Eh
 * total energy  :  -115.1535748 Eh     change       -0.1067524E-04 Eh
 * total energy  :  -115.1535810 Eh     change       -0.6182752E-05 Eh
 * total energy  :  -115.1535854 Eh     change       -0.4441272E-05 Eh
 * total energy  :  -115.1536554 Eh     change       -0.1338264E-05 Eh
 * total energy  :  -115.1536566 Eh     change       -0.1214530E-05 Eh
 * total energy  :  -115.1536577 Eh     change       -0.1103987E-05 Eh
 * total energy  :  -115.1536587 Eh     change       -0.1000500E-05 Eh
 * total energy  :  -115.1536596 Eh     change       -0.9090997E-06 Eh
 * total energy  :  -115.1536604 Eh     change       -0.8324687E-06 Eh
 * total energy  :  -115.1536612 Eh     change       -0.7482068E-06 Eh
 * total energy  :  -115.1536620 Eh     change       -0.7700577E-06 Eh
 * total energy  :  -115.1536620 Eh     change       -0.7295256E-08 Eh
   *** GEOMETRY OPTIMIZATION CONVERGED AFTER 44 ITERATIONS ***

 final structure:
================
68
 xtb: 6.7.1 (edcfbbe)
C            2.50787007026676       -5.31236438891237       -1.10512027665144
C            3.86635485910920       -5.31569460721694       -0.80331745797163
C            4.52151685173161       -4.14621703901291       -0.47412886315524
C            3.81312113617241       -2.94678312277433       -0.43622435180358
C            2.44229017158754       -2.96475752162453       -0.74210897855807
C            1.78448232195289       -4.13390863270049       -1.08207456390450
S            1.70359852620828       -1.37355581117188       -0.63576439098397
C            3.24219565452663       -0.67582839271290       -0.18572110138154
C            4.28410779933625       -1.62110193685587       -0.12821471797883
C            5.59147287987523       -1.21617169609065        0.16358645129625
C            5.89051853158410        0.11690601003227        0.35278228152594
C            4.87070101173900        1.06148780043351        0.28004637338779
C            4.85277021982859        2.49743343550738        0.35473551128052
C            5.83555355899579        3.45899238920420        0.54690760590393
C            5.46389265590481        4.79163552162932        0.55238763679214
C            4.13657005180083        5.17262804880599        0.36813012616500
C            3.13919157428530        4.23230298539769        0.17767552363141
C            3.50927406710072        2.89760431723256        0.16850586260582
N            2.71611938582825        1.77331735439857        0.00774068547504
C            1.33353807238933        1.75821372824140       -0.02288846480815
C            0.61850889045711        0.97822423097045        0.86422566439317
N           -0.71036230130058        0.99085599089385        0.93294451047554
C           -1.35926092553172        1.79359725289529        0.03674813789701
N           -2.73798181369082        1.76021660918419        0.01308961491190
C           -3.55625144647417        2.86045064094233       -0.19997286587564
C           -3.23277916386236        4.20874273951956       -0.24208563560173
C           -4.25933793656045        5.11492929690848       -0.44521596187301
C           -5.57900825926536        4.69352870109194       -0.59388893010207
C           -5.91239605140031        3.35399928070585       -0.51767618063465
C           -4.89866178282883        2.42786043684347       -0.30898723255350
C           -4.88717284375064        1.00312322899433       -0.13991488875028
C           -5.90193114001459        0.05164571292053       -0.16628404583997
C           -5.58102571667321       -1.27707795003069        0.00784719869615
C           -4.25640064539042       -1.66608576611155        0.23078417028822
C           -3.76188303150489       -3.00304755129845        0.42421542961470
C           -4.46203124699204       -4.20838833260052        0.45002457128876
C           -3.77658709719056       -5.38992435353809        0.64685372521059
C           -2.39669745537908       -5.39334219872168        0.83155181505376
C           -1.68373474684539       -4.20871411831835        0.82332922969476
C           -2.37057851734030       -3.02580178544693        0.61012086306536
S           -1.65675364989447       -1.42005452996162        0.58906932715759
C           -3.21911052720481       -0.70859108587734        0.28172694999768
C           -3.53475219806865        0.63049540308859        0.07725222798886
C           -0.64165071898707        2.57233599268134       -0.85091453220254
N            0.68872426195931        2.59246534030631       -0.89047882251522
C            3.53062322512237        0.66159639749633        0.04972092846234
H            2.01166616518761       -6.23603439201197       -1.36199036184655
H            4.41384521861993       -6.24595184537777       -0.82908483089625
H            5.57607921093994       -4.15460839416367       -0.24567401588642
H            0.73207513901189       -4.11786769711399       -1.32067656415096
H            6.37145173038496       -1.95930647710750        0.21377907406182
H            6.90506374231064        0.43090508420077        0.54076768794153
H            6.86577792493435        3.17008469154486        0.68643166820456
H            6.21444834796050        5.55354370270358        0.70017909665505
H            3.88009651015888        6.22127475961961        0.37579959112958
H            2.10967048255612        4.51890482339984        0.02946943003913
H            1.12758366468894        0.39123703708046        1.61475638706291
H           -2.21785261712698        4.54794300957193       -0.10099401086833
H           -4.03131829950677        6.16939592764162       -0.48113741946596
H           -6.35239449087421        5.42924823672851       -0.75500539758686
H           -6.93798626724750        3.03142404658749       -0.60801665305742
H           -6.92333529611970        0.35635617213993       -0.33105017332027
H           -6.35079170124285       -2.03170501616251       -0.02742952875976
H           -5.53320701110374       -4.21300846413452        0.31823279384126
H           -4.31638418169962       -6.32515220318765        0.66084392555190
H           -1.87764363936967       -6.32751465800973        0.98524047727330
H           -0.61514383796334       -4.19772462090331        0.97531169347203
H           -1.14540207651320        3.13901490040421       -1.62080974680825

          :  Hamiltonian                  GFN2-xTB          :
         :: gradient norm              0.000073354109 Eh/a0 ::
         :: HOMO-LUMO gap              0.277652741092 eV    ::
         :: SCC energy              -117.169106974386 Eh    ::
         :: -> dispersion             -0.111048843661 Eh    ::
         :: -> Gsolv                  -0.048792987354 Eh    ::
         :: repulsion energy           2.015445010474 Eh    ::

    * Orbital Energies and Occupations

         #    Occupation            Energy/Eh            Energy/eV
      -------------------------------------------------------------
         1        2.0000           -0.7337955             -19.9676
       ...           ...                  ...                  ...
        96        2.0000           -0.4204581             -11.4412
        97        2.0000           -0.4192954             -11.4096
        98        2.0000           -0.4183805             -11.3847
        99        2.0000           -0.4154809             -11.3058
       100        2.0000           -0.4138197             -11.2606
       101        2.0000           -0.3955358             -10.7631
       102        2.0000           -0.3923092             -10.6753
       103        2.0000           -0.3848767             -10.4730
       104        2.0000           -0.3824860             -10.4080
       105        2.0000           -0.3760376             -10.2325
       106        1.9841           -0.3702221             -10.0743
       107        1.0159           -0.3623806              -9.8609
       108        0.9953           -0.2805169              -7.6333 (HOMO)
       109        0.0045           -0.2703128              -7.3556 (LUMO)
       110        0.0002           -0.2674903              -7.2788
       111                         -0.2484269              -6.7600
       112                         -0.2411267              -6.5614
       113                         -0.2395868              -6.5195
       114                         -0.2340475              -6.3688
       115                         -0.2322251              -6.3192
       116                         -0.2312791              -6.2934
       117                         -0.2284457              -6.2163
       118                         -0.2116458              -5.7592
       119                         -0.2109320              -5.7398
       ...                                ...                  ...
       216                          0.7392182              20.1152
      -------------------------------------------------------------
                  HL-Gap            0.0102041 Eh            0.2777 eV

     #   Z          covCN         q      C6AA      α(0)
     1   6 C        2.923    -0.030    28.759     8.794
     2   6 C        2.918    -0.033    28.826     8.804
     3   6 C        2.917    -0.033    28.812     8.802
     4   6 C        3.100    -0.002    27.950     8.664
     5   6 C        3.003     0.040    27.081     8.536
     6   6 C        2.935    -0.037    28.926     8.821
     7  16 S        2.195    -0.122   146.152    20.347
     8   6 C        2.991     0.023    27.486     8.600
     9   6 C        3.097    -0.007    28.069     8.683
    10   6 C        2.917    -0.040    28.991     8.829
    11   6 C        2.910    -0.036    28.902     8.815
    12   6 C        3.062    -0.017    28.377     8.736
    13   6 C        3.066    -0.013    28.268     8.718
    14   6 C        2.912    -0.031    28.774     8.796
    15   6 C        2.920    -0.034    28.849     8.808
    16   6 C        2.924    -0.032    28.800     8.801
    17   6 C        2.909    -0.041    29.011     8.832
    18   6 C        3.076     0.052    26.751     8.480
    19   7 N        2.801    -0.034    21.899     6.950
    20   6 C        2.882     0.132    25.102     8.214
    21   6 C        2.891     0.048    26.924     8.507
    22   7 N        1.913    -0.263    27.683     7.801
    23   6 C        2.880     0.129    25.179     8.226
    24   7 N        2.800    -0.029    21.800     6.935
    25   6 C        3.069     0.042    26.986     8.518
    26   6 C        2.909    -0.045    29.116     8.848
    27   6 C        2.923    -0.033    28.833     8.806
    28   6 C        2.920    -0.034    28.842     8.807
    29   6 C        2.912    -0.031    28.774     8.796
    30   6 C        3.063    -0.012    28.244     8.715
    31   6 C        3.065    -0.020    28.437     8.744
    32   6 C        2.910    -0.037    28.914     8.817
    33   6 C        2.917    -0.040    28.983     8.828
    34   6 C        3.104    -0.009    28.117     8.689
    35   6 C        3.099    -0.004    27.991     8.670
    36   6 C        2.917    -0.033    28.831     8.805
    37   6 C        2.918    -0.034    28.853     8.808
    38   6 C        2.923    -0.032    28.796     8.800
    39   6 C        2.935    -0.037    28.927     8.821
    40   6 C        3.004     0.032    27.279     8.568
    41  16 S        2.269    -0.090   144.815    20.254
    42   6 C        2.987     0.030    27.329     8.575
    43   6 C        3.071     0.044    26.933     8.509
    44   6 C        2.889     0.035    27.223     8.554
    45   7 N        1.839    -0.285    28.239     7.875
    46   6 C        3.086     0.038    27.062     8.528
    47   1 H        0.926     0.044     2.391     2.418
    48   1 H        0.926     0.044     2.394     2.420
    49   1 H        0.926     0.046     2.370     2.407
    50   1 H        0.926     0.041     2.439     2.442
    51   1 H        0.926     0.052     2.299     2.371
    52   1 H        0.926     0.052     2.300     2.372
    53   1 H        0.926     0.047     2.356     2.400
    54   1 H        0.926     0.046     2.376     2.411
    55   1 H        0.926     0.044     2.399     2.422
    56   1 H        0.926     0.040     2.452     2.449
    57   1 H        0.926     0.038     2.471     2.458
    58   1 H        0.926     0.032     2.562     2.503
    59   1 H        0.926     0.044     2.401     2.423
    60   1 H        0.926     0.045     2.377     2.411
    61   1 H        0.926     0.047     2.358     2.401
    62   1 H        0.926     0.050     2.326     2.385
    63   1 H        0.926     0.050     2.325     2.385
    64   1 H        0.926     0.043     2.415     2.430
    65   1 H        0.926     0.041     2.436     2.441
    66   1 H        0.926     0.041     2.431     2.438
    67   1 H        0.926     0.038     2.476     2.461
    68   1 H        0.926     0.043     2.416     2.430

molecular dipole:
                 x           y           z       tot (Debye)
 q only:        0.145      -0.348       0.038
   full:        0.111      -0.326       0.030       0.879

 projected vibrational frequencies (cm⁻¹)
eigval :       -0.00    -0.00    -0.00     0.00     0.00     0.00
eigval :       12.45    17.03    22.09    36.48    41.97    43.10
eigval :       47.63    66.18    82.82    90.62   106.89   109.60
eigval :      116.41   123.61   140.42   142.67   146.21   160.25
eigval :      203.38   206.98   220.55   229.55   241.08   250.91
eigval :      257.84   265.91   270.13   294.29   316.32   321.06
eigval :      342.17   361.45   362.98   382.90   398.17   400.99
eigval :      403.52   408.90   423.87   435.64   436.83   459.77
eigval :      469.78   473.46   475.69   476.79   477.84   483.12
eigval :      494.23   499.96   525.01   532.45   540.96   549.66
eigval :      552.27   555.45   571.10   589.41   597.06   598.96
eigval :      608.79   615.15   626.89   641.45   658.61   661.32
eigval :      662.47   669.04   681.87   683.11   688.98   701.10
eigval :      701.56   704.00   713.76   769.13   769.73   770.76
eigval :      772.91   773.19   787.34   808.61   813.03   814.30
eigval :      819.57   832.27   833.94   865.08   867.39   872.86
eigval :      874.35   887.45   889.60   899.95   901.33   903.32
eigval :      904.94   909.35   913.62   918.23   918.85   920.22
eigval :      922.43   923.02   944.67   985.55  1027.00  1028.83
eigval :     1043.95  1047.03  1064.32  1068.92  1075.24  1075.61
eigval :     1076.49  1110.56  1113.87  1117.99  1119.93  1142.36
eigval :     1144.36  1156.57  1158.52  1162.45  1174.16  1174.97
eigval :     1177.92  1180.83  1186.30  1211.76  1213.58  1216.48
eigval :     1230.82  1234.93  1246.57  1257.14  1276.39  1284.82
eigval :     1288.38  1292.87  1298.81  1303.92  1336.19  1337.55
eigval :     1346.01  1346.99  1369.19  1371.29  1372.90  1375.72
eigval :     1376.78  1386.81  1400.53  1405.43  1406.29  1423.14
eigval :     1434.91  1436.57  1440.41  1449.98  1453.26  1460.01
eigval :     1468.76  1472.27  1530.49  1539.83  1543.52  1560.33
eigval :     1561.86  1563.40  1575.47  1576.84  1578.41  1580.18
eigval :     1582.26  1587.79  3060.38  3062.31  3078.21  3081.65
eigval :     3081.93  3082.50  3084.13  3086.15  3087.86  3088.64
eigval :     3090.46  3093.67  3094.22  3094.97  3095.76  3096.87
eigval :     3097.22  3100.41  3101.06  3101.48  3105.12  3106.32

   temp. (K)  partition function   enthalpy   heat capacity  entropy
                                   cal/mol     cal/K/mol   cal/K/mol   J/K/mol
 298.15  VIB  0.211E+15            20003.356    131.159    121.364
         ROT  0.686E+08              888.752      2.981     38.838
         INT  0.144E+23            20892.108    134.140    160.202
         TR   0.150E+29             1481.254      4.968     45.149
         TOT                       22373.3623   139.1084   205.3509   859.1883

       T/K    H(0)-H(T)+PV         H(T)/Eh          T*S/Eh         G(T)/Eh
   ------------------------------------------------------------------------
    298.15    0.356542E-01    0.526092E+00    0.975689E-01    0.428523E+00
   ------------------------------------------------------------------------

         :::::::::::::::::::::::::::::::::::::::::::::::::::::
         ::                  THERMODYNAMIC                  ::
         :::::::::::::::::::::::::::::::::::::::::::::::::::::
         :: total free energy        -114.725139073638 Eh   ::
         ::.................................................::
         :: total energy             -115.153661957555 Eh   ::
         :: zero point energy           0.490437514048 Eh   ::
         :: G(RRHO) w/o ZPVE           -0.061914630131 Eh   ::
         :: G(RRHO) contrib.            0.428522883917 Eh   ::
         :::::::::::::::::::::::::::::::::::::::::::::::::::::

           -------------------------------------------------
          | TOTAL ENERGY             -115.153661957555 Eh   |
          | TOTAL ENTHALPY           -114.627570221225 Eh   |
          | TOTAL FREE ENERGY        -114.725139073638 Eh   |
          | GRADIENT NORM               0.000072934601 Eh/α |
          | HOMO-LUMO GAP               0.277667684440 eV   |
           -------------------------------------------------

 * finished run on 2025/08/21 at 18:49:01.990
