   * xtb version 6.7.1 (edcfbbe) compiled by 'albert@albert-system' on 2024-07-22

   ID    Z sym.   atoms
    1    6 C      1-4, 6-17, 19-30, 32-37, 39-46
    2    7 N      5, 18, 38
    3    5 B      31
    4    1 H      47-76

          program call               : xtb data2507/gas/PAB/PAB_gas_T1_crest.xyz --gfn 2 --spinpol --tblite --uhf 2 --ohess vtight --parallel 40 --molden --ceasefiles --namespace data2507/gas/PAB/PAB_gas_T1_finalOpt
 * total energy  :  -115.1985530 Eh     change        0.3714638E-07 Eh
 * total energy  :  -115.1985635 Eh     change       -0.1056663E-04 Eh
 * total energy  :  -115.1985668 Eh     change       -0.3257604E-05 Eh
 * total energy  :  -115.1985681 Eh     change       -0.1288104E-05 Eh
 * total energy  :  -115.1985694 Eh     change       -0.1360965E-05 Eh
 * total energy  :  -115.1985706 Eh     change       -0.1127930E-05 Eh
 * total energy  :  -115.1985715 Eh     change       -0.9736638E-06 Eh
 * total energy  :  -115.1985720 Eh     change       -0.4046882E-06 Eh
 * total energy  :  -115.1985722 Eh     change       -0.2701482E-06 Eh
 * total energy  :  -115.1985725 Eh     change       -0.2588952E-06 Eh
 * total energy  :  -115.1985742 Eh     change       -0.3686598E-06 Eh
 * total energy  :  -115.1985744 Eh     change       -0.1845203E-06 Eh
 * total energy  :  -115.1985746 Eh     change       -0.2022464E-06 Eh
 * total energy  :  -115.1985748 Eh     change       -0.1262009E-06 Eh
 * total energy  :  -115.1985749 Eh     change       -0.1401807E-06 Eh
 * total energy  :  -115.1985750 Eh     change       -0.1329266E-06 Eh
 * total energy  :  -115.1985752 Eh     change       -0.1906087E-06 Eh
 * total energy  :  -115.1985752 Eh     change        0.4443584E-07 Eh
 * total energy  :  -115.1985752 Eh     change       -0.4350339E-07 Eh
   *** GEOMETRY OPTIMIZATION CONVERGED AFTER 23 ITERATIONS ***

 final structure:
================
76
 xtb: 6.7.1 (edcfbbe)
C           -4.64588784420956        3.51754095302997        1.56788639874816
C           -5.18478343513147        2.86517820364811        0.46994905289392
C           -4.57487494248362        1.73964890963151       -0.04609170496025
C           -3.40891022935442        1.24027783651305        0.53806113833615
N           -2.76766088628746        0.12215906602355        0.00138069728545
C           -3.50293317441021       -0.93516998980778       -0.53804809095141
C           -3.02795742172574       -1.63396773528868       -1.65054465163926
C           -3.73690679242078       -2.70379830944903       -2.15663023051016
C           -4.93226025646279       -3.09413251871501       -1.57366968519644
C           -5.41474035939198       -2.39798079170238       -0.47637884791505
C           -4.70976688312938       -1.33082106068273        0.04254581260451
C           -1.37016756399823        0.06087550373835        0.00267597934737
C           -0.61096338154165        1.21903907986847       -0.19590905501145
C            0.77967448221004        1.16589999919932       -0.12888780665394
C            1.45927583133983       -0.06425343338226        0.00226947146399
C            0.67382525151988       -1.22953268070548        0.13449607905102
C           -0.71602692367684       -1.15965715150381        0.20197513335797
N            1.29998350001143       -2.46435205514440        0.22744350464090
C            0.45538651352441       -3.60668044387411        0.21259652929751
C            0.22360360648627       -4.33559062405705        1.37530227644692
C           -0.63028543584095       -5.42220790376352        1.34729783105972
C           -1.26005509931677       -5.78627528437037        0.16741191015798
C           -1.02914431173289       -5.06109660607378       -0.99097203141274
C           -0.17482948047708       -3.97540028598729       -0.97223693713402
C            2.66971448395712       -2.63578099415362        0.35683907589124
C            3.17750714980447       -3.93121540829973        0.48756729030616
C            4.52626442220089       -4.14359701955150        0.71905896223797
C            5.37855831191558       -3.05414558252638        0.84305711338783
C            4.89288291248693       -1.77597471712002        0.65544984401961
C            3.54908753549124       -1.51292500574937        0.34252367470837
B            2.96946389261199       -0.13117765252827        0.00047436456986
C            3.66813298184717        1.19389170327506       -0.34349193731491
C            5.02889921791699        1.33699433841111       -0.66078104401044
C            5.62532927111684        2.56723973873260       -0.84949841955281
C            4.87336927276495        3.72784858394419       -0.72207521686242
C            3.51182789523582        3.63568023791895       -0.48644409258102
C            2.89159588164540        2.39022898878522       -0.35491609857451
N            1.51241750699878        2.34063018897132       -0.22206347801389
C            0.77193619403166        3.55298575890765       -0.20518547901059
C            0.60363884890995        4.30046030644142       -1.36706006260104
C           -0.15171812658905        5.45767588468315       -1.33723228690217
C           -0.74578542538672        5.87458300553815       -0.15630409696933
C           -0.57781115993663        5.13108673227953        1.00130871148960
C            0.17795732023279        3.97465846252737        0.98073084671932
C           -2.87738699066471        1.89586071941902        1.65128753218644
C           -3.49100660055633        3.02435916966125        2.15449333198937
H           -5.12328329214933        4.40080656334251        1.96385223591588
H           -6.08363887106270        3.24302888122354        0.00508761876058
H           -4.98905500844202        1.24202953632598       -0.91080214258456
H           -2.10363071146730       -1.32289425643773       -2.11451410587135
H           -3.35919090976174       -3.23149863671543       -3.02012493306646
H           -5.48439428883177       -3.93157674651057       -1.97203056553977
H           -6.34461235363994       -2.69580514804377       -0.01436987894772
H           -5.08102392557143       -0.79947838500263        0.90668295958451
H           -1.12677385591232        2.14810428106411       -0.38167942268197
H           -1.31185424636524       -2.03951416228552        0.38792638559466
H            0.71295258972283       -4.03965733121413        2.29154228095869
H           -0.81024070534726       -5.98373032164355        2.25192015118521
H           -1.92968006150525       -6.63254327884120        0.15105946567045
H           -1.51648741976685       -5.34363718946353       -1.91173269338519
H            0.01159655809222       -3.40253991230848       -1.86841888217274
H            2.52009785449731       -4.78426123802002        0.41467477822465
H            4.90074030344177       -5.15124476531158        0.81784843554819
H            6.42468815659999       -3.21032715312254        1.06559402735610
H            5.56678960408170       -0.94068071551024        0.76013925054657
H            5.62577685591996        0.44532884530504       -0.76806347078274
H            6.68044628048907        2.63023508478324       -1.07549437718012
H            5.33541809248113        4.69840840105545       -0.82148572791404
H            2.93278885117633        4.54355339159673       -0.41104471534111
H            1.06401436764670        3.96348448159167       -2.28414517920702
H           -0.28294618656241        6.03346309524989       -2.24127057237852
H           -1.33878687804009        6.77617650335556       -0.13856202529855
H           -1.03729371203980        5.45460912834492        1.92291149689796
H            0.31451288134243        3.38694485917868        1.87629069342601
H           -1.98512930672980        1.50537312769499        2.11799542396517
H           -3.07068651853101        3.51784686900631        3.01853360229905

 projected vibrational frequencies (cm⁻¹)
eigval :       -0.00    -0.00    -0.00     0.00     0.00     0.00
eigval :       11.82    17.19    20.72    23.87    34.01    35.13
eigval :       43.49    52.17    61.58    64.27    64.92    73.47
eigval :       75.94    80.67    91.86   122.00   138.48   157.94
eigval :      181.44   184.28   188.87   206.87   211.65   231.20
eigval :      238.17   238.24   250.42   261.62   264.23   275.69
eigval :      315.81   337.02   369.38   371.15   371.86   375.73
eigval :      376.41   383.74   384.93   396.44   401.68   409.03
eigval :      434.92   443.06   475.13   475.83   478.27   482.31
eigval :      489.39   492.25   494.83   513.93   535.43   563.05
eigval :      570.21   577.29   583.84   585.28   586.80   592.99
eigval :      595.92   598.60   603.60   628.66   640.39   651.98
eigval :      654.71   657.66   664.76   672.19   673.82   678.24
eigval :      694.18   732.16   742.62   744.39   750.86   752.28
eigval :      757.31   765.25   769.21   794.65   837.52   837.91
eigval :      853.23   861.46   869.22   870.63   873.84   875.19
eigval :      878.17   881.10   885.55   888.23   890.51   893.49
eigval :      895.05   897.44   904.17   905.29   911.41   913.26
eigval :      918.18   922.06   922.19   924.66   927.28   927.92
eigval :      927.97   928.00   928.26   976.22   985.02   989.91
eigval :     1000.14  1049.38  1073.07  1076.17  1078.72  1079.55
eigval :     1082.21  1082.24  1092.96  1106.39  1114.69  1114.72
eigval :     1121.96  1124.71  1129.91  1155.53  1172.12  1172.77
eigval :     1177.94  1177.96  1180.37  1180.43  1183.89  1184.71
eigval :     1185.54  1193.39  1196.14  1201.27  1218.60  1222.30
eigval :     1241.25  1245.96  1251.43  1252.02  1271.68  1274.41
eigval :     1275.54  1276.52  1286.54  1289.37  1290.59  1293.06
eigval :     1314.46  1314.64  1319.07  1325.64  1330.39  1331.97
eigval :     1335.05  1348.40  1368.83  1372.81  1397.97  1407.10
eigval :     1409.86  1431.79  1432.08  1435.01  1442.92  1446.68
eigval :     1460.06  1464.15  1465.99  1468.61  1472.89  1483.93
eigval :     1506.50  1507.78  1524.00  1545.12  1547.47  1548.44
eigval :     1558.39  1564.72  1569.20  1577.97  1581.97  1592.17
eigval :     3066.13  3066.84  3074.82  3074.99  3075.78  3076.44
eigval :     3080.55  3080.65  3081.34  3081.67  3083.37  3083.44
eigval :     3085.78  3086.66  3088.24  3089.06  3090.21  3090.40
eigval :     3092.92  3093.83  3094.53  3094.61  3096.94  3097.29
eigval :     3099.87  3101.05  3101.15  3101.33  3101.87  3107.07

   temp. (K)  partition function   enthalpy   heat capacity  entropy
                                   cal/mol     cal/K/mol   cal/K/mol   J/K/mol
 298.15  VIB  0.252E+17            21322.741    136.398    132.124
         ROT  0.272E+08              888.752      2.981     36.997
         INT  0.684E+24            22211.493    139.378    169.122
         TR   0.138E+29             1481.254      4.968     44.976
         TOT                       23692.7469   144.3466   214.0975   895.7840

       T/K    H(0)-H(T)+PV         H(T)/Eh          T*S/Eh         G(T)/Eh
   ------------------------------------------------------------------------
    298.15    0.377568E-01    0.621230E+00    0.101725E+00    0.519505E+00
   ------------------------------------------------------------------------

         :::::::::::::::::::::::::::::::::::::::::::::::::::::
         ::                  THERMODYNAMIC                  ::
         :::::::::::::::::::::::::::::::::::::::::::::::::::::
         :: total free energy        -114.679070292866 Eh   ::
         ::.................................................::
         :: total energy             -115.198575222288 Eh   ::
         :: zero point energy           0.583472771296 Eh   ::
         :: G(RRHO) w/o ZPVE           -0.063967841874 Eh   ::
         :: G(RRHO) contrib.            0.519504929422 Eh   ::
         :::::::::::::::::::::::::::::::::::::::::::::::::::::

           -------------------------------------------------
          | TOTAL ENERGY             -115.198575222288 Eh   |
          | TOTAL ENTHALPY           -114.577345655460 Eh   |
          | TOTAL FREE ENERGY        -114.679070292866 Eh   |
          | GRADIENT NORM               0.000098617917 Eh/α |
           -------------------------------------------------

 * finished run on 2025/09/11 at 05:12:50.163
