   * xtb version 6.7.1 (edcfbbe) compiled by 'albert@albert-system' on 2024-07-22

   ID    Z sym.   atoms
    1    6 C      1-4, 6-17, 19-30, 32-37, 39-46
    2    7 N      5, 18, 38
    3    5 B      31
    4    1 H      47-76

          program call               : xtb data2507/gas/PAB/PAB.xyz --gfn 2 --ohess vtight --parallel 40 --molden --ceasefiles --namespace data2507/gas/PAB/PAB_gas_S0_preOpt
          :  Hamiltonian                  GFN2-xTB          :
 * total energy  :  -115.2259175 Eh     change       -0.2016947E-08 Eh
 * total energy  :  -115.2584498 Eh     change       -0.3253235E-01 Eh
 * total energy  :  -115.2708466 Eh     change       -0.1239673E-01 Eh
 * total energy  :  -115.2763570 Eh     change       -0.5510414E-02 Eh
 * total energy  :  -115.2798364 Eh     change       -0.3479419E-02 Eh
 * total energy  :  -115.2818802 Eh     change       -0.2043797E-02 Eh
 * total energy  :  -115.2831663 Eh     change       -0.1286062E-02 Eh
 * total energy  :  -115.2841223 Eh     change       -0.9560760E-03 Eh
 * total energy  :  -115.2848918 Eh     change       -0.7695108E-03 Eh
 * total energy  :  -115.2854473 Eh     change       -0.5554065E-03 Eh
 * total energy  :  -115.2889658 Eh     change       -0.5841245E-06 Eh
 * total energy  :  -115.2889665 Eh     change       -0.7365786E-06 Eh
 * total energy  :  -115.2889672 Eh     change       -0.7308900E-06 Eh
 * total energy  :  -115.2889678 Eh     change       -0.5419309E-06 Eh
 * total energy  :  -115.2889681 Eh     change       -0.3593702E-06 Eh
 * total energy  :  -115.2889684 Eh     change       -0.2809299E-06 Eh
 * total energy  :  -115.2889686 Eh     change       -0.2137342E-06 Eh
 * total energy  :  -115.2889688 Eh     change       -0.1327356E-06 Eh
 * total energy  :  -115.2889688 Eh     change       -0.3075480E-07 Eh
   *** GEOMETRY OPTIMIZATION CONVERGED AFTER 86 ITERATIONS ***

 final structure:
================
76
 xtb: 6.7.1 (edcfbbe)
C            1.07059814629567       -5.63279379234809       -1.53644464615574
C            0.18619965804453       -5.79281589633640       -0.48259649578389
C           -0.54197078877934       -4.71859119085308       -0.00953621257923
C           -0.40055007894858       -3.46048100657220       -0.59443574668937
N           -1.12141891506719       -2.36639712120761       -0.10423049226051
C           -2.44025391443087       -2.53420859636829        0.33110938317083
C           -2.91726048983411       -1.83553308815029        1.44065047764513
C           -4.22878058770562       -1.98188616950219        1.84576243931480
C           -5.08296066165710       -2.83442603445573        1.16567860774623
C           -4.61086383565933       -3.54349257645239        0.07356334353984
C           -3.30335328893940       -3.39502371547800       -0.34638223675336
C           -0.52286135668266       -1.10347485319893       -0.04891215766650
C            0.84316007290364       -0.99497665884676        0.18404475668456
C            1.44915486119259        0.25797951168612        0.19290960383833
C            0.67864938268032        1.43181130313060        0.06239706120762
C           -0.71236101838313        1.29632394928664       -0.12559531503989
C           -1.29686878753293        0.03724951703232       -0.22703005980862
N           -1.49765590693482        2.42597614068526       -0.22246426627711
C           -2.90821794464715        2.21988524857382       -0.22376130516268
C           -3.62510964991437        2.22788378341729       -1.41385624161356
C           -4.98610670447674        1.98036257504785       -1.39842640619229
C           -5.63289226481006        1.71853473157058       -0.20194528594919
C           -4.91837589707540        1.71159280775366        0.98406625421834
C           -3.55837134576158        1.96336810274684        0.97648042407547
C           -0.99750374817131        3.71131122243066       -0.33445993346345
C           -1.89520795006546        4.76914591808262       -0.53563496967569
C           -1.43895723497059        6.05069277298472       -0.73922132016969
C           -0.07393449016118        6.30721874416861       -0.76355491152406
C            0.80867252193527        5.28030632149073       -0.51505803559757
C            0.39061433086086        3.97023806684704       -0.25005763787067
B            1.32640886551735        2.79868053536780        0.12251800848353
C            2.81203380173937        2.78760882303611        0.54662137784544
C            3.55021048668187        3.91789234270666        0.91919739591184
C            4.89447261395190        3.86563791838848        1.21163943287741
C            5.56220845317608        2.65072602295752        1.12337078885714
C            4.86822923748212        1.50458394956407        0.81234953032981
C            3.48884392691383        1.54558412034030        0.56544924738020
N            2.81651687064636        0.35655731558403        0.34403290626282
C            3.55111560019653       -0.86356092640912        0.28247286665378
C            3.97231410347659       -1.49742588004439        1.44485733862408
C            4.64390839662137       -2.70426148256464        1.36529688373220
C            4.89081157661733       -3.28396462042675        0.13183412498835
C            4.47182686825417       -2.65156019716977       -1.02649386061478
C            3.80443031222410       -1.44224428384304       -0.95448612338258
C            0.47951520450526       -3.30957167793240       -1.66657492359313
C            1.21133255293875       -4.38662555624229       -2.12485019811904
H            1.64357852866119       -6.47319790357566       -1.89791104875256
H            0.06945124988343       -6.76053558344848       -0.01695578239164
H           -1.22138368371369       -4.84364778203455        0.82103834876394
H           -2.25072483246036       -1.17835464825126        1.97909731081519
H           -4.58409677490088       -1.43306287608661        2.70557006125639
H           -6.10767466572454       -2.94741545536292        1.48574075906873
H           -5.26919642875703       -4.21061036417319       -0.46354316861392
H           -2.94161015777186       -3.93955318041166       -1.20645442169205
H            1.41799571054581       -1.89122435563191        0.35367391613086
H           -2.34806651515938       -0.07157039574192       -0.44060914248588
H           -3.10894898293033        2.42529760589483       -2.34190900199795
H           -5.54193601850275        1.98562167757589       -2.32427724797849
H           -6.69378499054340        1.51871119922181       -0.19463802978789
H           -5.42152812317610        1.50896506316564        1.91753697876419
H           -2.98884402811877        1.95586723470024        1.89400741318982
H           -2.95849387847149        4.58060061614843       -0.54137970937582
H           -2.14711000177974        6.85138477641276       -0.89736223435951
H            0.28729409652697        7.30514221117761       -0.96476795253872
H            1.86740676337235        5.48521482692554       -0.54548059817424
H            3.03639184611236        4.86302608363535        1.00002897569852
H            5.42958297019691        4.75964651484845        1.49665887298531
H            6.62425001572234        2.59709556401302        1.31515269999395
H            5.39634214834778        0.56366464503328        0.76858852840198
H            3.76723730681216       -1.04020181909689        2.40171031225379
H            4.96970337776185       -3.19647951472318        2.26959454499217
H            5.40876491746997       -4.22940584551403        0.07404627238480
H            4.66465682828016       -3.10174099581130       -1.98864764892498
H            3.46793831346711       -0.94145462424282       -1.85017501397581
H            0.58340119064754       -2.34169356347140       -2.13401059050462
H            1.89000783396108       -4.25392353165320       -2.95461987459160

          :  Hamiltonian                  GFN2-xTB          :
         :: gradient norm              0.000060916889 Eh/a0 ::
         :: HOMO-LUMO gap              2.396046494589 eV    ::
         :: SCC energy              -117.450218154092 Eh    ::
         :: -> dispersion             -0.115125676537 Eh    ::
         :: repulsion energy           2.161249358039 Eh    ::

    * Orbital Energies and Occupations

         #    Occupation            Energy/Eh            Energy/eV
      -------------------------------------------------------------
         1        2.0000           -0.6649008             -18.0929
       ...           ...                  ...                  ...
        96        2.0000           -0.4079285             -11.1003
        97        2.0000           -0.4050659             -11.0224
        98        2.0000           -0.4032009             -10.9717
        99        2.0000           -0.4019782             -10.9384
       100        2.0000           -0.3990885             -10.8598
       101        2.0000           -0.3945326             -10.7358
       102        2.0000           -0.3907549             -10.6330
       103        2.0000           -0.3871675             -10.5354
       104        2.0000           -0.3757912             -10.2258
       105        2.0000           -0.3731879             -10.1550
       106        2.0000           -0.3591517              -9.7730
       107        2.0000           -0.3444293              -9.3724
       108        2.0000           -0.3390460              -9.2259 (HOMO)
       109                         -0.2509932              -6.8299 (LUMO)
       110                         -0.2348143              -6.3896
       111                         -0.2334229              -6.3518
       112                         -0.2331773              -6.3451
       113                         -0.2329741              -6.3395
       114                         -0.2275365              -6.1916
       115                         -0.2232458              -6.0748
       116                         -0.2193542              -5.9689
       117                         -0.2178901              -5.9291
       118                         -0.2155323              -5.8649
       119                         -0.2059334              -5.6037
       ...                                ...                  ...
       214                          0.7272544              19.7896
      -------------------------------------------------------------
                  HL-Gap            0.0880528 Eh            2.3960 eV

     #   Z          covCN         q      C6AA      α(0)
     1   6 C        2.919    -0.040    28.984     8.828
     2   6 C        2.920    -0.030    28.749     8.793
     3   6 C        2.923    -0.048    29.196     8.861
     4   6 C        2.924     0.066    26.516     8.445
     5   7 N        2.754    -0.076    22.710     7.078
     6   6 C        2.924     0.066    26.516     8.445
     7   6 C        2.923    -0.047    29.170     8.857
     8   6 C        2.920    -0.030    28.751     8.793
     9   6 C        2.919    -0.040    28.984     8.828
    10   6 C        2.920    -0.030    28.749     8.793
    11   6 C        2.923    -0.048    29.196     8.861
    12   6 C        2.924     0.065    26.542     8.449
    13   6 C        2.922    -0.092    30.309     9.028
    14   6 C        2.931     0.060    26.645     8.465
    15   6 C        2.898    -0.113    30.862     9.109
    16   6 C        2.931     0.060    26.645     8.465
    17   6 C        2.922    -0.092    30.309     9.028
    18   7 N        2.756    -0.053    22.268     7.009
    19   6 C        2.935     0.070    26.433     8.432
    20   6 C        2.921    -0.037    28.923     8.819
    21   6 C        2.920    -0.028    28.704     8.786
    22   6 C        2.920    -0.031    28.765     8.795
    23   6 C        2.920    -0.027    28.667     8.780
    24   6 C        2.923    -0.036    28.905     8.817
    25   6 C        2.925     0.058    26.689     8.472
    26   6 C        2.920    -0.057    29.415     8.894
    27   6 C        2.920    -0.030    28.740     8.791
    28   6 C        2.914    -0.044    29.084     8.843
    29   6 C        2.924    -0.034    28.842     8.807
    30   6 C        2.887    -0.083    30.081     8.992
    31   5 B        2.724     0.187    18.567     7.220
    32   6 C        2.887    -0.083    30.081     8.992
    33   6 C        2.924    -0.034    28.842     8.807
    34   6 C        2.914    -0.044    29.084     8.843
    35   6 C        2.920    -0.030    28.740     8.791
    36   6 C        2.920    -0.057    29.415     8.894
    37   6 C        2.925     0.058    26.689     8.472
    38   7 N        2.756    -0.053    22.268     7.009
    39   6 C        2.935     0.070    26.433     8.432
    40   6 C        2.921    -0.037    28.923     8.819
    41   6 C        2.920    -0.028    28.704     8.786
    42   6 C        2.920    -0.031    28.765     8.795
    43   6 C        2.920    -0.027    28.667     8.780
    44   6 C        2.923    -0.036    28.905     8.817
    45   6 C        2.923    -0.047    29.170     8.857
    46   6 C        2.920    -0.030    28.751     8.793
    47   1 H        0.926     0.029     2.605     2.524
    48   1 H        0.926     0.030     2.580     2.512
    49   1 H        0.926     0.031     2.575     2.509
    50   1 H        0.926     0.032     2.556     2.500
    51   1 H        0.926     0.029     2.598     2.520
    52   1 H        0.926     0.029     2.605     2.524
    53   1 H        0.926     0.030     2.580     2.512
    54   1 H        0.926     0.031     2.575     2.509
    55   1 H        0.926     0.021     2.724     2.581
    56   1 H        0.926     0.021     2.724     2.581
    57   1 H        0.926     0.042     2.421     2.433
    58   1 H        0.926     0.038     2.479     2.462
    59   1 H        0.926     0.037     2.491     2.468
    60   1 H        0.926     0.038     2.477     2.461
    61   1 H        0.926     0.040     2.443     2.444
    62   1 H        0.926     0.019     2.753     2.595
    63   1 H        0.926     0.022     2.705     2.572
    64   1 H        0.926     0.020     2.731     2.584
    65   1 H        0.926     0.032     2.564     2.504
    66   1 H        0.926     0.032     2.564     2.504
    67   1 H        0.926     0.020     2.731     2.584
    68   1 H        0.926     0.022     2.705     2.572
    69   1 H        0.926     0.019     2.753     2.595
    70   1 H        0.926     0.042     2.421     2.433
    71   1 H        0.926     0.038     2.479     2.462
    72   1 H        0.926     0.037     2.491     2.468
    73   1 H        0.926     0.038     2.477     2.461
    74   1 H        0.926     0.040     2.443     2.444
    75   1 H        0.926     0.032     2.556     2.500
    76   1 H        0.926     0.029     2.598     2.520

molecular dipole:
                 x           y           z       tot (Debye)
 q only:       -0.327      -0.689      -0.031
   full:       -0.394      -0.830      -0.036       2.337

 projected vibrational frequencies (cm⁻¹)
eigval :       -0.00    -0.00     0.00     0.00     0.00     0.00
eigval :       14.79    16.07    22.82    24.73    33.37    35.52
eigval :       38.33    47.71    55.83    62.94    67.55    72.56
eigval :       73.81    82.16    90.17   120.91   139.27   163.06
eigval :      185.94   186.71   191.01   209.56   213.23   230.37
eigval :      238.72   239.07   249.12   261.21   269.82   284.88
eigval :      315.37   346.77   372.33   374.65   375.74   378.83
eigval :      383.55   384.94   385.67   398.54   402.34   417.11
eigval :      441.17   448.33   482.04   482.93   492.55   494.95
eigval :      497.58   499.66   500.80   551.78   571.08   573.89
eigval :      579.19   582.84   587.62   589.64   591.57   595.58
eigval :      600.07   606.79   616.63   636.70   648.19   656.94
eigval :      662.35   669.10   676.00   679.25   679.98   687.57
eigval :      709.69   738.92   748.06   756.30   760.21   770.48
eigval :      770.84   772.01   777.71   821.30   844.25   865.67
eigval :      867.30   871.02   873.45   874.74   877.43   877.82
eigval :      890.59   892.41   896.75   900.00   901.93   902.72
eigval :      910.02   911.64   918.70   919.25   923.23   925.74
eigval :      925.88   926.79   926.81   928.46   929.84   929.88
eigval :      932.23   932.33   933.74   979.18   992.23   995.41
eigval :     1005.94  1067.93  1078.80  1079.20  1083.75  1084.37
eigval :     1088.65  1095.53  1106.52  1113.39  1113.79  1115.39
eigval :     1121.83  1124.63  1140.61  1172.24  1179.43  1179.49
eigval :     1181.64  1181.70  1182.69  1185.26  1187.71  1188.67
eigval :     1190.06  1195.83  1198.45  1215.06  1224.97  1244.37
eigval :     1259.63  1268.03  1269.68  1273.74  1274.02  1278.44
eigval :     1285.54  1287.03  1302.93  1310.36  1310.87  1312.04
eigval :     1316.26  1321.47  1323.92  1328.60  1337.21  1337.22
eigval :     1359.76  1385.79  1423.64  1424.57  1429.14  1433.66
eigval :     1434.01  1436.83  1443.58  1453.48  1455.47  1467.04
eigval :     1471.85  1473.88  1477.57  1479.30  1539.39  1551.54
eigval :     1552.15  1569.95  1576.91  1581.17  1584.03  1584.09
eigval :     1593.27  1595.01  1595.75  1596.64  1597.61  1601.74
eigval :     3068.39  3068.59  3074.24  3074.79  3076.07  3076.32
eigval :     3077.84  3078.71  3079.66  3079.75  3082.01  3082.02
eigval :     3085.41  3086.57  3088.74  3089.00  3089.52  3090.10
eigval :     3090.18  3090.49  3093.43  3093.53  3096.48  3096.91
eigval :     3097.94  3099.61  3099.70  3104.13  3107.90  3108.75

   temp. (K)  partition function   enthalpy   heat capacity  entropy
                                   cal/mol     cal/K/mol   cal/K/mol   J/K/mol
 298.15  VIB  0.197E+17            21079.927    134.278    130.598
         ROT  0.271E+08              888.752      2.981     36.991
         INT  0.535E+24            21968.679    137.259    167.589
         TR   0.138E+29             1481.254      4.968     44.976
         TOT                       23449.9331   142.2270   212.5648   889.3712

       T/K    H(0)-H(T)+PV         H(T)/Eh          T*S/Eh         G(T)/Eh
   ------------------------------------------------------------------------
    298.15    0.373698E-01    0.625509E+00    0.100996E+00    0.524513E+00
   ------------------------------------------------------------------------

         :::::::::::::::::::::::::::::::::::::::::::::::::::::
         ::                  THERMODYNAMIC                  ::
         :::::::::::::::::::::::::::::::::::::::::::::::::::::
         :: total free energy        -114.764456000777 Eh   ::
         ::.................................................::
         :: total energy             -115.288968796051 Eh   ::
         :: zero point energy           0.588139355361 Eh   ::
         :: G(RRHO) w/o ZPVE           -0.063626560087 Eh   ::
         :: G(RRHO) contrib.            0.524512795274 Eh   ::
         :::::::::::::::::::::::::::::::::::::::::::::::::::::

           -------------------------------------------------
          | TOTAL ENERGY             -115.288968796051 Eh   |
          | TOTAL ENTHALPY           -114.663459593590 Eh   |
          | TOTAL FREE ENERGY        -114.764456000777 Eh   |
          | GRADIENT NORM               0.000060910458 Eh/α |
          | HOMO-LUMO GAP               2.396039856539 eV   |
           -------------------------------------------------

 * finished run on 2025/09/11 at 05:02:03.942
