   * xtb version 6.7.1 (edcfbbe) compiled by 'albert@albert-system' on 2024-07-22

   ID    Z sym.   atoms
    1    6 C      1-4, 6-17, 19-30, 32-37, 39-46
    2    7 N      5, 18, 38
    3    5 B      31
    4    1 H      47-76

          program call               : xtb data2507/gas/PAB/PAB_gas_S0_crest.xyz --gfn 2 --ohess vtight --parallel 40 --molden --ceasefiles --namespace data2507/gas/PAB/PAB_gas_S0_finalOpt
          :  Hamiltonian                  GFN2-xTB          :
 * total energy  :  -115.2889524 Eh     change       -0.3501526E-08 Eh
 * total energy  :  -115.2889540 Eh     change       -0.1532038E-05 Eh
 * total energy  :  -115.2889552 Eh     change       -0.1189953E-05 Eh
 * total energy  :  -115.2889575 Eh     change       -0.2309786E-05 Eh
 * total energy  :  -115.2889587 Eh     change       -0.1227224E-05 Eh
 * total energy  :  -115.2889600 Eh     change       -0.1303281E-05 Eh
 * total energy  :  -115.2889615 Eh     change       -0.1535339E-05 Eh
 * total energy  :  -115.2889630 Eh     change       -0.1461390E-05 Eh
 * total energy  :  -115.2889642 Eh     change       -0.1256245E-05 Eh
 * total energy  :  -115.2889652 Eh     change       -0.9432549E-06 Eh
 * total energy  :  -115.2889663 Eh     change       -0.5003181E-06 Eh
 * total energy  :  -115.2889668 Eh     change       -0.4626671E-06 Eh
 * total energy  :  -115.2889671 Eh     change       -0.3608713E-06 Eh
 * total energy  :  -115.2889675 Eh     change       -0.3141234E-06 Eh
 * total energy  :  -115.2889677 Eh     change       -0.2250302E-06 Eh
 * total energy  :  -115.2889679 Eh     change       -0.2023531E-06 Eh
 * total energy  :  -115.2889680 Eh     change       -0.1516848E-06 Eh
 * total energy  :  -115.2889681 Eh     change       -0.1027240E-06 Eh
 * total energy  :  -115.2889682 Eh     change       -0.8487343E-07 Eh
   *** GEOMETRY OPTIMIZATION CONVERGED AFTER 20 ITERATIONS ***

 final structure:
================
76
 xtb: 6.7.1 (edcfbbe)
C           -5.24477023720316        2.61752605971741        1.44589258737716
C           -5.62451884160496        1.84978277972498        0.35744445554628
C           -4.79647081850312        0.85253200057516       -0.11983521602415
C           -3.57036009895190        0.60153610999776        0.49550435100160
N           -2.72101340699091       -0.39444092814474        0.00214427157641
C           -3.25394768559636       -1.59273781867288       -0.48471803188890
C           -2.69024483733416       -2.22217421961132       -1.59503690371550
C           -3.20139510067192       -3.42056232510843       -2.05135305437404
C           -4.28827721044431       -4.00546971264330       -1.42244458954266
C           -4.86256155104287       -3.37733621550328       -0.32973593320580
C           -4.35110840313712       -2.18378584801346        0.14123819482670
C           -1.33677970635352       -0.19360050222088       -0.00103504674844
C           -0.82387637995399        1.08556775852391       -0.18172427749017
C            0.55131510952619        1.29552949367945       -0.13682816795503
C            1.44187147433680        0.21023527419146       -0.00353554362216
C            0.89731453725303       -1.08370491284158        0.12986954026299
C           -0.48065475435704       -1.27397132990267        0.17706564340638
N            1.74228843843460       -2.16931796745677        0.22790923786212
C            1.13089981725474       -3.45584920439238        0.17145133528657
C            0.88374016668815       -4.17548423587852        1.33394268050264
C            0.24708963653082       -5.40153421101789        1.26138461507396
C           -0.14951394415393       -5.90891409304566        0.03511006921806
C            0.09788667000816       -5.19203094473950       -1.12335661703664
C            0.73857786925398       -3.96794535276602       -1.05854944539062
C            3.11275359733204       -2.07323945806804        0.39319822202298
C            3.85200063027164       -3.24782633412554        0.59116667775468
C            5.20263617358762       -3.19517393357426        0.84605233074661
C            5.84780896088441       -1.96755641397160        0.92581578649909
C            5.13527993724385       -0.81524126830928        0.68130667235745
C            3.77075557690967       -0.82129097940590        0.36613189870264
B            2.93997651256717        0.42798686924321       -0.00326185374246
C            3.38090960691026        1.86219168010264       -0.37191937443055
C            4.69100147088919        2.24517252326416       -0.68544954245955
C            5.04605416620852        3.55277138268577       -0.92919956715394
C            4.07780298992464        4.54571867527308       -0.85034842621536
C            2.76781564959145        4.21136570073917       -0.59721380892589
C            2.39354830949032        2.87480295927447       -0.39997743099872
N            1.05229470949486        2.57665813199865       -0.23603322489394
C            0.09984213408380        3.63609348491234       -0.18436832439770
C           -0.33997747093858        4.25134275991335       -1.34986257920658
C           -1.29921694596723        5.24587325584690       -1.28258206142039
C           -1.82573855892121        5.62399486177771       -0.05853685779224
C           -1.38646171409820        5.01142565953251        1.10292080283995
C           -0.42385009794072        4.01998525341557        1.04339422663857
C           -3.20110938250774        1.36738109314117        1.60182472950944
C           -4.03027047751666        2.36949027827490        2.06428749957422
H           -5.89138685053826        3.40105817043942        1.81086558482265
H           -6.56957224297991        2.03544272892688       -0.13177043278438
H           -5.08967030093249        0.26401278601635       -0.97702067850362
H           -1.84946952171526       -1.76321671615913       -2.09357680914586
H           -2.75335967279789       -3.89680132353970       -2.91111430523694
H           -4.68629491297501       -4.94204432121182       -1.78251663732106
H           -5.71017858486808       -3.82561706555753        0.16777484750769
H           -4.79303781280576       -1.70281354862040        1.00173463218886
H           -1.50550550126401        1.90325593007820       -0.35266945098001
H           -0.90083419779250       -2.25189154089503        0.34903775715861
H            1.19002327387708       -3.76628976750097        2.28547802994924
H            0.05427542349430       -5.95924804672418        2.16578623537635
H           -0.65264625199511       -6.86265984022690       -0.01686711740936
H           -0.20957314458987       -5.58691296681876       -2.07997789158876
H            0.93274794918661       -3.39658254975168       -1.95415721385551
H            3.35923104214114       -4.20800010662390        0.55377009998707
H            5.75354527551329       -4.11175680830994        1.00084894429452
H            6.89976382383974       -1.92189533568514        1.16692386480785
H            5.64106781691921        0.13475358852802        0.75531476656434
H            5.44650447340074        1.47860782544814       -0.75882494488171
H            6.06771417485688        3.80876474198040       -1.16900398049931
H            4.34500435386559        5.58131408467387       -1.00440475913832
H            2.02190639814173        4.99138605825299       -0.56047410055446
H            0.07169865791327        3.94268981806143       -2.29955857069178
H           -1.64122590234261        5.72232900492037       -2.18932667227478
H           -2.57951417783837        6.39535703898082       -0.01061243184938
H           -1.79517295915869        5.30605876662767        2.05776950658770
H           -0.07661342113040        3.53090750364646        1.94144760985603
H           -2.25988231437815        1.16919582498289        2.09262205328637
H           -3.72991171263415        2.95514356346867        2.92075428016861

          :  Hamiltonian                  GFN2-xTB          :
         :: gradient norm              0.000043876222 Eh/a0 ::
         :: HOMO-LUMO gap              2.396033252436 eV    ::
         :: SCC energy              -117.450229369889 Eh    ::
         :: -> dispersion             -0.115105396313 Eh    ::
         :: repulsion energy           2.161261147429 Eh    ::

    * Orbital Energies and Occupations

         #    Occupation            Energy/Eh            Energy/eV
      -------------------------------------------------------------
         1        2.0000           -0.6649190             -18.0934
       ...           ...                  ...                  ...
        96        2.0000           -0.4079282             -11.1003
        97        2.0000           -0.4050425             -11.0218
        98        2.0000           -0.4031842             -10.9712
        99        2.0000           -0.4019636             -10.9380
       100        2.0000           -0.3991007             -10.8601
       101        2.0000           -0.3945475             -10.7362
       102        2.0000           -0.3907606             -10.6331
       103        2.0000           -0.3871692             -10.5354
       104        2.0000           -0.3758043             -10.2262
       105        2.0000           -0.3732225             -10.1559
       106        2.0000           -0.3591644              -9.7734
       107        2.0000           -0.3444277              -9.3724
       108        2.0000           -0.3390561              -9.2262 (HOMO)
       109                         -0.2510034              -6.8301 (LUMO)
       110                         -0.2348247              -6.3899
       111                         -0.2334351              -6.3521
       112                         -0.2331895              -6.3454
       113                         -0.2329896              -6.3400
       114                         -0.2275166              -6.1910
       115                         -0.2232273              -6.0743
       116                         -0.2193353              -5.9684
       117                         -0.2178767              -5.9287
       118                         -0.2155362              -5.8650
       119                         -0.2059443              -5.6040
       ...                                ...                  ...
       214                          0.7272115              19.7884
      -------------------------------------------------------------
                  HL-Gap            0.0880527 Eh            2.3960 eV

     #   Z          covCN         q      C6AA      α(0)
     1   6 C        2.919    -0.040    28.984     8.829
     2   6 C        2.920    -0.030    28.749     8.793
     3   6 C        2.923    -0.048    29.197     8.861
     4   6 C        2.924     0.066    26.516     8.445
     5   7 N        2.754    -0.076    22.710     7.078
     6   6 C        2.924     0.066    26.516     8.445
     7   6 C        2.923    -0.047    29.170     8.857
     8   6 C        2.920    -0.030    28.751     8.793
     9   6 C        2.919    -0.040    28.984     8.828
    10   6 C        2.920    -0.030    28.749     8.793
    11   6 C        2.923    -0.048    29.196     8.861
    12   6 C        2.924     0.065    26.542     8.449
    13   6 C        2.922    -0.092    30.309     9.028
    14   6 C        2.931     0.060    26.645     8.465
    15   6 C        2.898    -0.113    30.862     9.109
    16   6 C        2.931     0.060    26.645     8.465
    17   6 C        2.922    -0.092    30.309     9.028
    18   7 N        2.756    -0.053    22.268     7.009
    19   6 C        2.935     0.070    26.433     8.432
    20   6 C        2.921    -0.037    28.923     8.819
    21   6 C        2.920    -0.028    28.704     8.786
    22   6 C        2.920    -0.031    28.765     8.795
    23   6 C        2.920    -0.027    28.667     8.780
    24   6 C        2.923    -0.036    28.905     8.817
    25   6 C        2.925     0.058    26.689     8.472
    26   6 C        2.920    -0.057    29.415     8.894
    27   6 C        2.920    -0.030    28.740     8.791
    28   6 C        2.914    -0.044    29.084     8.843
    29   6 C        2.924    -0.034    28.842     8.807
    30   6 C        2.887    -0.083    30.081     8.992
    31   5 B        2.724     0.187    18.567     7.220
    32   6 C        2.887    -0.083    30.081     8.992
    33   6 C        2.924    -0.034    28.842     8.807
    34   6 C        2.914    -0.044    29.084     8.843
    35   6 C        2.920    -0.030    28.740     8.791
    36   6 C        2.920    -0.057    29.415     8.894
    37   6 C        2.925     0.058    26.689     8.472
    38   7 N        2.756    -0.053    22.268     7.009
    39   6 C        2.935     0.070    26.433     8.432
    40   6 C        2.921    -0.037    28.923     8.819
    41   6 C        2.920    -0.028    28.704     8.786
    42   6 C        2.920    -0.031    28.765     8.795
    43   6 C        2.920    -0.027    28.667     8.780
    44   6 C        2.923    -0.036    28.905     8.817
    45   6 C        2.923    -0.047    29.171     8.857
    46   6 C        2.920    -0.030    28.751     8.793
    47   1 H        0.926     0.029     2.605     2.524
    48   1 H        0.926     0.030     2.580     2.512
    49   1 H        0.926     0.031     2.575     2.510
    50   1 H        0.926     0.032     2.556     2.500
    51   1 H        0.926     0.029     2.598     2.520
    52   1 H        0.926     0.029     2.605     2.524
    53   1 H        0.926     0.030     2.580     2.512
    54   1 H        0.926     0.031     2.575     2.509
    55   1 H        0.926     0.021     2.724     2.581
    56   1 H        0.926     0.021     2.724     2.581
    57   1 H        0.926     0.042     2.421     2.433
    58   1 H        0.926     0.038     2.479     2.462
    59   1 H        0.926     0.037     2.491     2.468
    60   1 H        0.926     0.038     2.477     2.461
    61   1 H        0.926     0.040     2.443     2.444
    62   1 H        0.926     0.019     2.753     2.595
    63   1 H        0.926     0.022     2.705     2.572
    64   1 H        0.926     0.020     2.731     2.584
    65   1 H        0.926     0.032     2.564     2.504
    66   1 H        0.926     0.032     2.564     2.504
    67   1 H        0.926     0.020     2.731     2.584
    68   1 H        0.926     0.022     2.705     2.572
    69   1 H        0.926     0.019     2.753     2.595
    70   1 H        0.926     0.042     2.421     2.433
    71   1 H        0.926     0.038     2.479     2.462
    72   1 H        0.926     0.037     2.491     2.468
    73   1 H        0.926     0.038     2.477     2.461
    74   1 H        0.926     0.040     2.442     2.444
    75   1 H        0.926     0.032     2.556     2.500
    76   1 H        0.926     0.029     2.598     2.521

molecular dipole:
                 x           y           z       tot (Debye)
 q only:       -0.754      -0.110      -0.003
   full:       -0.909      -0.133      -0.002       2.334

 projected vibrational frequencies (cm⁻¹)
eigval :       -0.00    -0.00    -0.00     0.00     0.00     0.00
eigval :       14.82    16.04    22.80    24.61    33.26    35.55
eigval :       38.20    47.64    55.69    62.91    67.54    72.54
eigval :       73.80    82.16    90.11   120.84   139.27   163.10
eigval :      185.88   186.72   191.02   209.52   213.21   230.30
eigval :      238.77   239.08   249.02   261.17   269.79   284.90
eigval :      315.39   346.82   372.34   374.62   375.72   378.79
eigval :      383.59   384.89   385.72   398.49   402.33   417.13
eigval :      441.15   448.32   482.01   482.90   492.58   494.97
eigval :      497.57   499.63   500.80   551.79   571.02   573.91
eigval :      579.20   582.81   587.60   589.63   591.59   595.57
eigval :      600.06   606.81   616.70   636.68   648.17   656.95
eigval :      662.30   669.06   676.01   679.24   679.99   687.57
eigval :      709.71   738.73   748.02   756.28   760.13   770.47
eigval :      770.88   771.96   777.84   821.19   844.16   865.66
eigval :      867.29   870.99   873.44   874.74   877.39   877.79
eigval :      890.55   892.38   896.74   899.97   901.88   902.71
eigval :      910.01   911.64   918.70   919.21   923.23   925.73
eigval :      925.88   926.71   926.80   928.48   929.79   929.83
eigval :      932.17   932.30   933.65   979.19   992.20   995.39
eigval :     1005.94  1068.02  1078.73  1079.19  1083.80  1084.40
eigval :     1088.62  1095.60  1106.63  1113.39  1113.78  1115.49
eigval :     1121.85  1124.66  1140.59  1172.25  1179.45  1179.51
eigval :     1181.63  1181.69  1182.66  1185.20  1187.71  1188.61
eigval :     1190.09  1195.87  1198.49  1215.06  1225.01  1244.27
eigval :     1259.67  1268.03  1269.55  1273.73  1274.01  1278.46
eigval :     1285.54  1287.05  1302.88  1310.35  1310.87  1312.05
eigval :     1316.35  1321.51  1323.98  1328.63  1337.23  1337.27
eigval :     1359.78  1385.78  1423.63  1424.59  1429.14  1433.69
eigval :     1434.04  1436.82  1443.61  1453.72  1455.48  1466.90
eigval :     1471.98  1473.87  1477.59  1479.21  1539.51  1551.44
eigval :     1552.09  1570.11  1576.90  1581.16  1584.05  1584.10
eigval :     1593.30  1595.02  1595.78  1596.63  1597.60  1601.78
eigval :     3068.42  3068.61  3074.25  3074.79  3076.06  3076.32
eigval :     3077.88  3078.73  3079.69  3079.78  3082.04  3082.07
eigval :     3085.44  3086.64  3088.74  3089.04  3089.52  3090.12
eigval :     3090.18  3090.51  3093.49  3093.62  3096.49  3096.94
eigval :     3098.06  3099.67  3099.77  3104.31  3107.97  3108.83

   temp. (K)  partition function   enthalpy   heat capacity  entropy
                                   cal/mol     cal/K/mol   cal/K/mol   J/K/mol
 298.15  VIB  0.201E+17            21081.314    134.271    130.609
         ROT  0.271E+08              888.752      2.981     36.991
         INT  0.543E+24            21970.067    137.251    167.600
         TR   0.138E+29             1481.254      4.968     44.976
         TOT                       23451.3205   142.2196   212.5761   889.4184

       T/K    H(0)-H(T)+PV         H(T)/Eh          T*S/Eh         G(T)/Eh
   ------------------------------------------------------------------------
    298.15    0.373721E-01    0.625511E+00    0.101002E+00    0.524509E+00
   ------------------------------------------------------------------------

         :::::::::::::::::::::::::::::::::::::::::::::::::::::
         ::                  THERMODYNAMIC                  ::
         :::::::::::::::::::::::::::::::::::::::::::::::::::::
         :: total free energy        -114.764459042847 Eh   ::
         ::.................................................::
         :: total energy             -115.288968222458 Eh   ::
         :: zero point energy           0.588138889530 Eh   ::
         :: G(RRHO) w/o ZPVE           -0.063629709919 Eh   ::
         :: G(RRHO) contrib.            0.524509179611 Eh   ::
         :::::::::::::::::::::::::::::::::::::::::::::::::::::

           -------------------------------------------------
          | TOTAL ENERGY             -115.288968222458 Eh   |
          | TOTAL ENTHALPY           -114.663457274895 Eh   |
          | TOTAL FREE ENERGY        -114.764459042847 Eh   |
          | GRADIENT NORM               0.000043852525 Eh/α |
          | HOMO-LUMO GAP               2.396036564072 eV   |
           -------------------------------------------------

 * finished run on 2025/09/11 at 05:06:31.806
