   * xtb version 6.7.1 (edcfbbe) compiled by 'albert@albert-system' on 2024-07-22

   ID    Z sym.   atoms
    1    6 C      1-4, 6-17, 19-30, 32-37, 39-46
    2    7 N      5, 18, 38
    3    5 B      31
    4    1 H      47-76

          program call               : xtb data2507/gas/PAB/PAB_gas_S0_finalOpt.xtbopt.xyz --gfn 2 --spinpol --tblite --uhf 2 --ohess vtight --parallel 40 --molden --ceasefiles --namespace data2507/gas/PAB/PAB_gas_T1_preOpt
 * total energy  :  -115.1972035 Eh     change       -0.1107013E-07 Eh
 * total energy  :  -115.1980536 Eh     change       -0.8500408E-03 Eh
 * total energy  :  -115.1982488 Eh     change       -0.1952444E-03 Eh
 * total energy  :  -115.1982718 Eh     change       -0.2294761E-04 Eh
 * total energy  :  -115.1983029 Eh     change       -0.3112426E-04 Eh
 * total energy  :  -115.1983220 Eh     change       -0.1906544E-04 Eh
 * total energy  :  -115.1983769 Eh     change       -0.5494363E-04 Eh
 * total energy  :  -115.1984313 Eh     change       -0.5441632E-04 Eh
 * total energy  :  -115.1984453 Eh     change       -0.1399759E-04 Eh
 * total energy  :  -115.1984623 Eh     change       -0.1698758E-04 Eh
 * total energy  :  -115.1985717 Eh     change       -0.4432319E-06 Eh
 * total energy  :  -115.1985722 Eh     change       -0.4915347E-06 Eh
 * total energy  :  -115.1985728 Eh     change       -0.5956672E-06 Eh
 * total energy  :  -115.1985735 Eh     change       -0.6959887E-06 Eh
 * total energy  :  -115.1985742 Eh     change       -0.7599423E-06 Eh
 * total energy  :  -115.1985749 Eh     change       -0.6336442E-06 Eh
 * total energy  :  -115.1985752 Eh     change       -0.2898945E-06 Eh
 * total energy  :  -115.1985753 Eh     change       -0.1195383E-06 Eh
 * total energy  :  -115.1985753 Eh     change       -0.1914823E-07 Eh
   *** GEOMETRY OPTIMIZATION CONVERGED AFTER 41 ITERATIONS ***

 final structure:
================
76
 xtb: 6.7.1 (edcfbbe)
C           -5.21871853379848        2.59348569109347        1.56064299303723
C           -5.62896746216735        1.84567096293600        0.46798215119650
C           -4.82039080897625        0.85162638327990       -0.04502713145174
C           -3.57979993254993        0.58287509375730        0.53698904227320
N           -2.74192662965757       -0.39824315794563        0.00340854437747
C           -3.26722456834231       -1.57777961033190       -0.52778263610478
C           -2.67172490554598       -2.18203349408771       -1.63764976036982
C           -3.16858208066293       -3.36882478175634       -2.13555503117439
C           -4.26854072722065       -3.97262593658596       -1.54684999640581
C           -4.87094109152224       -3.37245979985916       -0.45215940970124
C           -4.37749931978341       -2.18892104174049        0.05858251359237
C           -1.35767325740393       -0.19693187351128        0.00119219949515
C           -0.82918391134857        1.08168791270650       -0.20620457913334
C            0.54676728602247        1.29065588549498       -0.14112682182927
C            1.44502691314115        0.21061942406309       -0.00327949022169
C            0.89199930353999       -1.08044816862184        0.13684781362883
C           -0.48628150371823       -1.27196950253612        0.20633056965040
N            1.73864614793605       -2.17542428421219        0.23595003610006
C            1.12255740049690       -3.45564317710340        0.23083788420756
C            1.03112669739756       -4.20591597966077        1.39942508786971
C            0.39300314675080       -5.43194378043707        1.38158612927457
C           -0.15984339967695       -5.91532244414896        0.20601009712116
C           -0.06780694310167       -5.16922347393946       -0.95843985118726
C            0.57082354464380       -3.94406690284251       -0.94985326027934
C            3.11620661753460       -2.08623903599036        0.36444120771632
C            3.85785823393650       -3.26284080711478        0.50112437626126
C            5.22252310584058       -3.21736500807862        0.73229539776163
C            5.85534904791392       -1.98678886461620        0.85031441668261
C            5.13864454175684       -0.82331064650510        0.65671074533117
C            3.76945235354972       -0.81850653955995        0.34340498879895
B            2.94100852753125        0.42811998069376       -0.00574641992021
C            3.37896033357487        1.85886366574400       -0.35715231927307
C            4.68896748203222        2.25319049461420       -0.67526086678104
C            5.04397137512303        3.57248684458138       -0.87091997304448
C            4.08732849211775        4.57197718643824       -0.75016662069026
C            2.76705892744586        4.22708765985335       -0.51418211883298
C            2.39165415324421        2.88805602576443       -0.37549435894084
N            1.04619949577819        2.58131736135146       -0.24248636746941
C            0.09104447448517        3.63305332353752       -0.23563451610315
C           -0.21345395657518        4.32511537364981       -1.40404501088504
C           -1.17405142876840        5.31885295439330       -1.38447530625536
C           -1.83831796067839        5.62601649036464       -0.20732798739010
C           -1.53451702945379        4.93804850961958        0.95691382225894
C           -0.57359500561070        3.94533621485766        0.94661067922739
C           -3.17729035592724        1.33263461438891        1.64487265537509
C           -3.99009926412777        2.32883973248823        2.14503145936569
H           -5.85213638207707        3.37366757277951        1.95428529180973
H           -6.58416499565465        2.04564988179314        0.00493577920424
H           -5.13650331854328        0.28048307907967       -0.90569758531830
H           -1.82283104501460       -1.70620106364873       -2.10604115499950
H           -2.70023051497955       -3.82170051084097       -2.99713614032666
H           -4.65471150924864       -4.90112642535906       -1.93879429144903
H           -5.72771688516333       -3.83636257720641        0.01424889282548
H           -4.84011422081286       -1.73133839712343        0.92084170310670
H           -1.51028492785018        1.89621778506948       -0.39681409993723
H           -0.90660002574973       -2.24666863379177        0.39862864926011
H            1.45792601376111       -3.81727633122458        2.31229062961164
H            0.32068822485448       -6.00987229912251        2.29087403065851
H           -0.66171540002992       -6.87076726435401        0.19769672645802
H           -0.49517205399887       -5.54431463766758       -1.87592469937096
H            0.64709338886663       -3.35353738549329       -1.85070119661418
H            3.37181860862735       -4.22429112210120        0.43321688756225
H            5.77941353470529       -4.13637603999766        0.83551395552061
H            6.91218610459691       -1.94288581447599        1.07274447184152
H            5.64390883521038        0.12405192989989        0.75697823433403
H            5.44276552365516        1.48889137076663       -0.77763937519451
H            6.06875121679093        3.83122630817056       -1.09718365015481
H            4.35909014839853        5.61146301381860       -0.85496092853558
H            2.02760313657660        5.01036500011391       -0.44406307223597
H            0.30376176501403        4.07313292633527       -2.31811215083431
H           -1.41057010648302        5.85126315369867       -2.29367191105156
H           -2.59147144975815        6.39899533569770       -0.19768880218234
H           -2.04837999885071        5.17689914246630        1.87561864946219
H           -0.32977378720098        3.40193272859928        1.84735278269612
H           -2.22628166936585        1.11891672164992        2.10999134427970
H           -3.66712355013462        2.89714711268196        3.00496452405505

 projected vibrational frequencies (cm⁻¹)
eigval :       -0.00     0.00     0.00     0.00     0.00     0.00
eigval :       11.73    17.03    20.67    23.80    33.99    35.06
eigval :       43.42    52.12    61.58    64.26    64.89    73.71
eigval :       75.85    80.63    91.62   121.69   138.42   158.15
eigval :      181.44   183.99   188.97   206.98   211.61   231.02
eigval :      238.16   238.36   250.34   261.42   264.09   275.65
eigval :      315.46   337.19   369.29   371.03   371.76   375.73
eigval :      376.46   383.58   384.53   396.42   401.77   408.96
eigval :      434.71   443.07   475.21   475.81   478.32   482.34
eigval :      489.46   492.28   494.99   513.89   535.36   563.09
eigval :      570.28   577.25   583.93   585.32   586.85   592.98
eigval :      595.94   598.59   603.66   628.68   640.40   651.95
eigval :      654.67   657.64   664.83   672.20   673.83   678.15
eigval :      694.17   731.80   742.25   744.57   750.89   752.28
eigval :      757.34   765.46   769.40   794.68   837.66   837.99
eigval :      853.19   861.38   869.26   870.85   873.87   875.36
eigval :      878.22   881.08   885.58   888.34   890.50   893.48
eigval :      894.98   897.39   904.17   905.33   911.40   913.32
eigval :      918.21   922.13   922.26   924.70   927.38   927.97
eigval :      928.02   928.06   928.32   975.84   984.80   989.86
eigval :     1000.13  1049.88  1073.17  1076.07  1078.69  1079.63
eigval :     1082.12  1082.18  1092.77  1106.29  1114.63  1114.67
eigval :     1121.98  1124.72  1129.70  1156.25  1172.13  1172.84
eigval :     1178.00  1178.03  1180.43  1180.50  1183.90  1184.74
eigval :     1185.59  1193.45  1196.13  1201.34  1218.65  1222.22
eigval :     1241.14  1246.01  1251.60  1252.00  1271.73  1274.47
eigval :     1275.59  1276.62  1286.62  1289.49  1290.68  1293.02
eigval :     1314.44  1314.60  1319.13  1325.70  1330.43  1331.98
eigval :     1335.07  1348.30  1368.86  1372.75  1397.89  1407.50
eigval :     1409.85  1431.87  1432.20  1435.03  1442.93  1446.49
eigval :     1460.10  1464.18  1466.22  1468.66  1472.94  1484.16
eigval :     1506.54  1507.76  1524.36  1544.85  1547.52  1548.38
eigval :     1558.39  1564.73  1569.24  1577.96  1581.94  1591.87
eigval :     3066.27  3066.86  3074.92  3075.09  3075.86  3076.55
eigval :     3080.64  3080.74  3081.39  3081.66  3083.57  3083.60
eigval :     3085.86  3086.88  3088.35  3089.19  3090.40  3090.59
eigval :     3093.25  3093.94  3094.76  3094.77  3097.07  3097.60
eigval :     3100.50  3101.24  3101.33  3101.69  3102.07  3107.17

   temp. (K)  partition function   enthalpy   heat capacity  entropy
                                   cal/mol     cal/K/mol   cal/K/mol   J/K/mol
 298.15  VIB  0.260E+17            21324.885    136.392    132.159
         ROT  0.272E+08              888.752      2.981     36.997
         INT  0.705E+24            22213.637    139.373    169.156
         TR   0.138E+29             1481.254      4.968     44.976
         TOT                       23694.8914   144.3414   214.1314   895.9259

       T/K    H(0)-H(T)+PV         H(T)/Eh          T*S/Eh         G(T)/Eh
   ------------------------------------------------------------------------
    298.15    0.377602E-01    0.621246E+00    0.101741E+00    0.519505E+00
   ------------------------------------------------------------------------

         :::::::::::::::::::::::::::::::::::::::::::::::::::::
         ::                  THERMODYNAMIC                  ::
         :::::::::::::::::::::::::::::::::::::::::::::::::::::
         :: total free energy        -114.679069973168 Eh   ::
         ::.................................................::
         :: total energy             -115.198575354521 Eh   ::
         :: zero point energy           0.583485922222 Eh   ::
         :: G(RRHO) w/o ZPVE           -0.063980540869 Eh   ::
         :: G(RRHO) contrib.            0.519505381354 Eh   ::
         :::::::::::::::::::::::::::::::::::::::::::::::::::::

           -------------------------------------------------
          | TOTAL ENERGY             -115.198575354521 Eh   |
          | TOTAL ENTHALPY           -114.577329219316 Eh   |
          | TOTAL FREE ENERGY        -114.679069973168 Eh   |
          | GRADIENT NORM               0.000085953667 Eh/α |
           -------------------------------------------------

 * finished run on 2025/09/11 at 05:06:41.218
