   * xtb version 6.7.1 (edcfbbe) compiled by 'albert@albert-system' on 2024-07-22

   ID    Z sym.   atoms
    1    6 C      1-12, 14-17, 19-22, 24-39
    2    7 N      13, 18, 23
    3    1 H      40-64

          program call               : xtb data2507/gas/arylene/arylene_gas_S0_finalOpt.xtbopt.xyz --gfn 2 --spinpol --tblite --uhf 2 --ohess vtight --parallel 40 --molden --ceasefiles --namespace data2507/gas/arylene/arylene_gas_T1_preOpt
 * total energy  :   -98.5711819 Eh     change       -0.4352486E-07 Eh
 * total energy  :   -98.5743786 Eh     change       -0.3196695E-02 Eh
 * total energy  :   -98.5754261 Eh     change       -0.1047533E-02 Eh
 * total energy  :   -98.5755304 Eh     change       -0.1042235E-03 Eh
 * total energy  :   -98.5755940 Eh     change       -0.6365965E-04 Eh
 * total energy  :   -98.5756225 Eh     change       -0.2852125E-04 Eh
 * total energy  :   -98.5756576 Eh     change       -0.3503257E-04 Eh
 * total energy  :   -98.5756960 Eh     change       -0.3838126E-04 Eh
 * total energy  :   -98.5757290 Eh     change       -0.3302174E-04 Eh
 * total energy  :   -98.5757471 Eh     change       -0.1811826E-04 Eh
 * total energy  :   -98.5762831 Eh     change       -0.8623994E-06 Eh
 * total energy  :   -98.5762839 Eh     change       -0.8385116E-06 Eh
 * total energy  :   -98.5762847 Eh     change       -0.8238328E-06 Eh
 * total energy  :   -98.5762855 Eh     change       -0.7319415E-06 Eh
 * total energy  :   -98.5762863 Eh     change       -0.8555326E-06 Eh
 * total energy  :   -98.5762871 Eh     change       -0.7814576E-06 Eh
 * total energy  :   -98.5762879 Eh     change       -0.7671919E-06 Eh
 * total energy  :   -98.5762879 Eh     change        0.3774204E-08 Eh
 * total energy  :   -98.5762879 Eh     change       -0.1844506E-07 Eh
   *** GEOMETRY OPTIMIZATION CONVERGED AFTER 123 ITERATIONS ***

 final structure:
================
64
 xtb: 6.7.1 (edcfbbe)
C            7.31031468096755       -2.83721152440795       -2.10451749881697
C            6.02984105493222       -3.21686369902320       -1.70359823916619
C            5.21314075553695       -2.35254806646384       -0.99282259127251
C            5.70199633959297       -1.09083747614480       -0.69585191833990
C            7.01969834489284       -0.71156144515042       -1.06368937469458
C            7.81833520744555       -1.59437405880353       -1.78335204904959
C            7.23256713185806        0.60010689537055       -0.53505117572479
C            8.30076381195303        1.49004392808794       -0.58142083750616
C            8.15879745866794        2.72796528126856        0.01302535799824
C            6.96590777907985        3.09602770815824        0.63460302605520
C            5.89074120211868        2.22480532029482        0.69928326521028
C            6.03606508275654        0.96859945542374        0.13382152831673
N            5.11658359693630       -0.06311766758204        0.02732606379886
C            3.84009256683091       -0.06426968954534        0.55996645601544
C            3.61429666541929        0.36852581213156        1.88786131635368
C            2.35857447413945        0.35678966363734        2.41728227905576
C            1.23928726800569       -0.03969032256185        1.63897849986509
N           -0.00029887033418       -0.01244853589365        2.21631504426790
C           -1.23976438684936        0.02151077861646        1.63914455464542
C           -2.35919187374209       -0.38399312627584        2.41260889655357
C           -3.61483876241829       -0.38950544932740        1.88290450626899
C           -3.84044030919501        0.05872616882646        0.56010606720633
N           -5.11686567602088        0.06379997849432        0.02729711279362
C           -5.70217771882764        1.09988164806450       -0.68392995826664
C           -5.21328075311511        2.36497304386125       -0.96612662807540
C           -6.02987235018875        3.23750536265375       -1.66690456902637
C           -7.31028624296458        2.86255876954474       -2.07240823641556
C           -7.81834731663890        1.61605528090348       -1.76581246230034
C           -7.01982392146235        0.72493879570345       -1.05637214994424
C           -7.23277539636361       -0.59282709435898       -0.54309269584261
C           -8.30096132146633       -1.48213196621725       -0.59999270405661
C           -8.15910331104643       -2.72690852412716       -0.01999455355530
C           -6.96631078055661       -3.10219609133311        0.59742984475055
C           -5.89115015719647       -2.23180357532666        0.67241910046409
C           -6.03636699137457       -0.96908318288560        0.12160692869408
C           -2.73715508225324        0.52817692271821       -0.18976252620413
C           -1.47382668207208        0.50066317078830        0.32517966767481
C            1.47353151663802       -0.50348914971327        0.31956262026366
C            2.73693364936430       -0.52498768851098       -0.19548377230410
H            7.91586035753627       -3.53591694727437       -2.66281891330695
H            5.66920877727298       -4.20521267506484       -1.94580031009026
H            4.23409766884627       -2.66826441568371       -0.66619090809958
H            8.81828158228141       -1.31075876928023       -2.07496683066986
H            9.21770918173728        1.21553153979583       -1.08063942205073
H            8.97757598709335        3.43190970682098       -0.01288126768410
H            6.87555152839624        4.08047367089574        1.06851292809461
H            4.96410201311976        2.52935592723223        1.16163274177716
H            4.45929025966676        0.65791556552053        2.49370064281027
H            2.19789202878118        0.65846759849966        3.44311686228260
H           -0.00037275411310       -0.01830702211840        3.23060590395379
H           -2.19865756021492       -0.69762096596325        3.43487515224121
H           -4.45992819738007       -0.68591120217812        2.48521567286977
H           -4.23427516261407        2.67685430828755       -0.63570270551629
H           -5.66920309652565        4.22860771767906       -1.89753211870705
H           -7.91575404678491        3.56772015507351       -2.62262475568296
H           -8.81825684002956        1.33586466150437       -2.06087187473498
H           -9.21784283924422       -1.20181797717091       -1.09611186442657
H           -8.97788900700604       -3.43049367613743       -0.05422736909707
H           -6.87603254729493       -4.09163237961939        1.01985732084841
H           -4.96458010677308       -2.54172410009206        1.13133735881344
H           -2.90123045798479        0.87955437564091       -1.19668328545509
H           -0.64863922274561        0.88560750468384       -0.25178009828114
H            0.64843722639435       -0.88168617259824       -0.26197507236782
H            2.90116525230200       -0.86459387221086       -1.20640476004716

 projected vibrational frequencies (cm⁻¹)
eigval :       -0.00     0.00     0.00     0.00     0.00     0.00
eigval :       10.95    13.41    17.55    35.14    43.13    58.78
eigval :       63.76    83.79   102.21   104.33   108.21   129.56
eigval :      143.76   145.35   156.18   184.57   192.07   228.01
eigval :      233.29   249.21   265.72   270.53   277.17   310.35
eigval :      310.46   352.57   370.89   371.81   383.02   388.38
eigval :      394.83   400.81   411.07   415.00   428.98   433.76
eigval :      437.04   437.61   446.58   513.59   513.59   528.38
eigval :      528.38   537.69   538.06   568.19   573.16   573.51
eigval :      580.66   583.23   587.69   588.95   606.57   625.22
eigval :      635.30   637.13   663.47   663.49   689.73   692.80
eigval :      697.30   702.08   752.43   752.76   760.97   761.18
eigval :      768.21   768.57   785.29   789.47   799.28   807.82
eigval :      838.97   843.65   861.86   861.95   862.29   863.85
eigval :      888.87   889.56   890.97   892.27   892.36   895.46
eigval :      901.81   905.15   907.34   907.95   908.35   910.80
eigval :      914.00   914.90   918.23   930.77   979.15   980.05
eigval :     1006.43  1006.51  1062.07  1066.79  1066.80  1070.25
eigval :     1101.84  1107.27  1124.74  1135.77  1140.48  1144.10
eigval :     1147.69  1149.10  1168.52  1174.59  1175.98  1176.41
eigval :     1176.65  1183.80  1199.07  1199.50  1226.97  1226.99
eigval :     1229.15  1235.37  1256.04  1267.14  1279.42  1280.01
eigval :     1289.52  1298.95  1304.49  1306.25  1334.10  1339.73
eigval :     1345.12  1347.21  1353.41  1356.59  1369.33  1371.31
eigval :     1403.16  1406.52  1406.84  1416.35  1417.62  1442.49
eigval :     1456.26  1457.82  1463.30  1475.78  1480.41  1482.63
eigval :     1490.81  1516.07  1517.37  1532.49  1532.54  1538.75
eigval :     1568.99  1569.70  1570.97  1570.99  1597.65  3062.36
eigval :     3063.23  3075.89  3075.93  3076.28  3076.43  3082.15
eigval :     3082.19  3083.26  3083.34  3088.55  3088.60  3090.74
eigval :     3090.87  3093.38  3094.03  3094.73  3095.11  3095.61
eigval :     3095.86  3096.04  3097.90  3108.04  3111.12  3347.54

   temp. (K)  partition function   enthalpy   heat capacity  entropy
                                   cal/mol     cal/K/mol   cal/K/mol   J/K/mol
 298.15  VIB  0.407E+13            17280.674    115.282    104.981
         ROT  0.319E+08              888.752      2.981     37.316
         INT  0.130E+21            18169.426    118.263    142.297
         TR   0.108E+29             1481.254      4.968     44.493
         TOT                       19650.6800   123.2314   186.7903   781.5305

       T/K    H(0)-H(T)+PV         H(T)/Eh          T*S/Eh         G(T)/Eh
   ------------------------------------------------------------------------
    298.15    0.313154E-01    0.521374E+00    0.887501E-01    0.432623E+00
   ------------------------------------------------------------------------

         :::::::::::::::::::::::::::::::::::::::::::::::::::::
         ::                  THERMODYNAMIC                  ::
         :::::::::::::::::::::::::::::::::::::::::::::::::::::
         :: total free energy         -98.143664435220 Eh   ::
         ::.................................................::
         :: total energy              -98.576287881698 Eh   ::
         :: zero point energy           0.490058176887 Eh   ::
         :: G(RRHO) w/o ZPVE           -0.057434730410 Eh   ::
         :: G(RRHO) contrib.            0.432623446477 Eh   ::
         :::::::::::::::::::::::::::::::::::::::::::::::::::::

           -------------------------------------------------
          | TOTAL ENERGY              -98.576287881698 Eh   |
          | TOTAL ENTHALPY            -98.054914352919 Eh   |
          | TOTAL FREE ENERGY         -98.143664435220 Eh   |
          | GRADIENT NORM               0.000099188388 Eh/α |
           -------------------------------------------------

 * finished run on 2025/08/25 at 06:39:45.050
