   * xtb version 6.7.1 (edcfbbe) compiled by 'albert@albert-system' on 2024-07-22

   ID    Z sym.   atoms
    1    6 C      1-12, 14-17, 19-22, 24-39
    2    7 N      13, 18, 23
    3    1 H      40-64

          program call               : xtb data2507/gas/arylene/arylene_gas_T1_crest.xyz --gfn 2 --spinpol --tblite --uhf 2 --ohess vtight --parallel 40 --molden --ceasefiles --namespace data2507/gas/arylene/arylene_gas_T1_finalOpt
 * total energy  :   -98.5779330 Eh     change       -0.2205283E-08 Eh
 * total energy  :   -98.5779525 Eh     change       -0.1943012E-04 Eh
 * total energy  :   -98.5779594 Eh     change       -0.6931027E-05 Eh
 * total energy  :   -98.5779601 Eh     change       -0.7083030E-06 Eh
 * total energy  :   -98.5779604 Eh     change       -0.3130711E-06 Eh
 * total energy  :   -98.5779607 Eh     change       -0.2410163E-06 Eh
 * total energy  :   -98.5779609 Eh     change       -0.1927651E-06 Eh
 * total energy  :   -98.5779611 Eh     change       -0.2454141E-06 Eh
 * total energy  :   -98.5779612 Eh     change       -0.5307386E-07 Eh
   *** GEOMETRY OPTIMIZATION CONVERGED AFTER 9 ITERATIONS ***

 final structure:
================
64
 xtb: 6.7.1 (edcfbbe)
C            8.83316153424293        1.36840610272747       -1.06330452608142
C            7.76099352434679        2.22529991866330       -1.30980848165171
C            6.46615286067324        1.87463001381870       -0.96432533608290
C            6.26392954409058        0.64707891033559       -0.35491624075511
C            7.34388963018059       -0.24925178513137       -0.14091772831640
C            8.63626857285464        0.12800301962220       -0.49047872350406
C            6.78413357136175       -1.44171050036367        0.41576905897826
C            7.33097315782124       -2.64780572648729        0.84152784106335
C            6.49249941276648       -3.60195720180250        1.38207817909505
C            5.12551982444795       -3.36370889835350        1.52056217138712
C            4.55707892349134       -2.17300247789366        1.09865099159909
C            5.38587886638638       -1.22346712002858        0.52384379347617
N            5.08382202651493        0.04631075717380        0.05571074275262
C            3.82261762685270        0.60908082163864        0.01128967670060
C            2.71518196800137       -0.13758975978004       -0.45518646203936
C            1.46451048829281        0.40398756614272       -0.48932761350866
C            1.23735272725170        1.72798924014296       -0.03227022039676
N            0.00094453306996        2.31034440599971       -0.01823892906570
C           -1.23472385503767        1.72662947797823       -0.00243978894389
C           -2.35959523657080        2.49339855832567       -0.40428706071256
C           -3.61073689721557        1.95316014726155       -0.42050515174812
C           -3.82081482228917        0.60909514367011       -0.03036481025930
N           -5.08361768888529        0.04875060697302       -0.06166506170013
C           -5.39391784845891       -1.21876336720322       -0.53022634060886
C           -4.57481737961026       -2.16629736117291       -1.12201420335977
C           -5.15069165198951       -3.35470690902221       -1.54026083936427
C           -6.51549609538260       -3.59269362582743       -1.38133985998046
C           -7.34473259613561       -2.64043093383271       -0.82345061394277
C           -6.79043550608625       -1.43652735898792       -0.40117217640180
C           -7.34048536482839       -0.24596377164856        0.16920255522482
C           -8.62686056598239        0.13057889683328        0.54096043597403
C           -8.81381569592813        1.36888955924595        1.12161448334398
C           -7.73738394084533        2.22436341743028        1.35390064114637
C           -6.44842490123511        1.87429457348713        0.98649411622029
C           -6.25668637554885        0.64880812785115        0.36961592653742
C           -2.70970967845802       -0.14109395781856        0.42107352666521
C           -1.45852063451116        0.39984415499155        0.44788584370994
C            2.35956655829660        2.49298405338946        0.38049020244791
C            3.61014888064731        1.95195989835135        0.40479450309894
H            9.82976558416922        1.67894584540292       -1.34066157829826
H            7.94155202410329        3.17775147012990       -1.78507921182535
H            5.64229071318783        2.53544087021851       -1.18684507055938
H            9.46442016351303       -0.54358036054434       -0.32155961861134
H            8.39215825279024       -2.82591090257428        0.75468992423521
H            6.89898440799340       -4.54484425715102        1.71720983826821
H            4.49835899194135       -4.11862947098422        1.97037011691463
H            3.50195971583081       -1.99070580012855        1.23433346411061
H            2.88717532898563       -1.12764248539219       -0.84919876704279
H            0.64693382941113       -0.14725030801024       -0.92599586722336
H            0.00033717241401        3.32415726595723       -0.01581607445431
H           -2.20361910845847        3.51181476923749       -0.73152402972714
H           -4.44818686592899        2.53069244390588       -0.77989771214464
H           -3.52178680923049       -1.98401989552131       -1.27317487523664
H           -4.53125638205985       -4.10802601564089       -2.00327028343450
H           -6.92786868870616       -4.53382036769522       -1.71422468522536
H           -8.40453061572290       -2.81829350923500       -0.72065558764296
H           -9.45797523408721       -0.53999375171753        0.38295007423803
H           -9.80563827337470        1.67882301953223        1.41623544532968
H           -7.90977264339488        3.17521898355553        1.83535419557015
H           -5.62073747026039        2.53392818327855        1.19803270735052
H           -2.87857808793220       -1.13361441659449        0.81019572433161
H           -0.63763605036585       -0.15457831509038        0.87411636809488
H            2.20137129698790        3.51001475927747        0.71094952718017
H            4.44477445810221        2.52734865318442        0.77400738060512

 projected vibrational frequencies (cm⁻¹)
eigval :       -0.00    -0.00    -0.00     0.00     0.00     0.00
eigval :       12.16    12.75    16.33    37.56    41.45    58.38
eigval :       61.13    82.55   102.30   102.84   111.04   136.79
eigval :      143.62   146.15   173.73   179.53   189.61   214.54
eigval :      232.82   263.36   267.22   271.82   292.78   294.80
eigval :      320.21   325.78   376.61   381.41   385.07   391.21
eigval :      403.06   404.13   411.18   415.73   430.46   435.47
eigval :      437.57   437.83   448.25   513.90   513.94   528.96
eigval :      529.05   538.89   539.34   566.11   566.25   573.09
eigval :      580.17   585.07   586.72   599.86   610.95   620.84
eigval :      634.53   638.01   663.83   663.90   690.40   693.43
eigval :      697.82   702.53   752.75   752.99   761.23   761.27
eigval :      768.61   768.95   782.98   787.54   802.42   803.37
eigval :      842.91   843.54   861.71   862.47   862.64   865.67
eigval :      883.95   889.41   890.58   892.41   892.68   895.20
eigval :      903.28   904.59   905.63   907.71   908.26   911.12
eigval :      913.50   915.29   917.88   928.61   977.12   978.70
eigval :     1006.51  1006.59  1063.73  1066.77  1066.83  1070.29
eigval :     1102.96  1108.04  1125.17  1138.88  1139.76  1145.01
eigval :     1146.87  1151.09  1171.26  1174.97  1176.59  1176.70
eigval :     1177.14  1183.93  1198.91  1199.53  1227.44  1227.57
eigval :     1229.60  1236.32  1258.03  1266.41  1280.29  1280.85
eigval :     1288.90  1299.77  1304.45  1305.84  1334.25  1339.05
eigval :     1346.92  1348.59  1354.51  1359.57  1369.37  1371.58
eigval :     1401.01  1407.93  1408.02  1417.70  1417.92  1444.35
eigval :     1457.39  1458.72  1465.41  1477.37  1481.04  1483.37
eigval :     1491.39  1520.30  1521.00  1534.22  1534.36  1540.11
eigval :     1570.14  1570.76  1572.13  1572.19  1599.58  3066.01
eigval :     3066.64  3076.30  3076.33  3076.65  3076.77  3082.54
eigval :     3082.57  3083.49  3083.59  3088.08  3088.74  3089.65
eigval :     3089.97  3091.47  3091.71  3096.07  3096.08  3096.73
eigval :     3097.24  3099.26  3099.65  3102.45  3104.55  3358.11

   temp. (K)  partition function   enthalpy   heat capacity  entropy
                                   cal/mol     cal/K/mol   cal/K/mol   J/K/mol
 298.15  VIB  0.380E+13            17246.944    115.148    104.696
         ROT  0.610E+08              888.752      2.981     38.606
         INT  0.232E+21            18135.696    118.129    143.302
         TR   0.108E+29             1481.254      4.968     44.493
         TOT                       19616.9498   123.0967   187.7944   785.7320

       T/K    H(0)-H(T)+PV         H(T)/Eh          T*S/Eh         G(T)/Eh
   ------------------------------------------------------------------------
    298.15    0.312616E-01    0.521564E+00    0.892272E-01    0.432336E+00
   ------------------------------------------------------------------------

         :::::::::::::::::::::::::::::::::::::::::::::::::::::
         ::                  THERMODYNAMIC                  ::
         :::::::::::::::::::::::::::::::::::::::::::::::::::::
         :: total free energy         -98.145624848724 Eh   ::
         ::.................................................::
         :: total energy              -98.577961236453 Eh   ::
         :: zero point energy           0.490301989361 Eh   ::
         :: G(RRHO) w/o ZPVE           -0.057965601632 Eh   ::
         :: G(RRHO) contrib.            0.432336387729 Eh   ::
         :::::::::::::::::::::::::::::::::::::::::::::::::::::

           -------------------------------------------------
          | TOTAL ENERGY              -98.577961236453 Eh   |
          | TOTAL ENTHALPY            -98.056397647680 Eh   |
          | TOTAL FREE ENERGY         -98.145624848724 Eh   |
          | GRADIENT NORM               0.000092006085 Eh/α |
           -------------------------------------------------

 * finished run on 2025/08/25 at 06:43:59.524
