   * xtb version 6.7.1 (edcfbbe) compiled by 'albert@albert-system' on 2024-07-22

   ID    Z sym.   atoms
    1    6 C      1-12, 14-17, 19-22, 24-39
    2    7 N      13, 18, 23
    3    1 H      40-64

          program call               : xtb data2507/gas/arylene/arylene_gas_S0_crest.xyz --gfn 2 --ohess vtight --parallel 40 --molden --ceasefiles --namespace data2507/gas/arylene/arylene_gas_S0_finalOpt
          :  Hamiltonian                  GFN2-xTB          :
 * total energy  :   -98.6780291 Eh     change       -0.2480775E-08 Eh
 * total energy  :   -98.6780298 Eh     change       -0.7512476E-06 Eh
 * total energy  :   -98.6780306 Eh     change       -0.7976478E-06 Eh
 * total energy  :   -98.6780317 Eh     change       -0.1101350E-05 Eh
 * total energy  :   -98.6780325 Eh     change       -0.7927924E-06 Eh
 * total energy  :   -98.6780329 Eh     change       -0.4310102E-06 Eh
 * total energy  :   -98.6780333 Eh     change       -0.3532158E-06 Eh
 * total energy  :   -98.6780336 Eh     change       -0.3413750E-06 Eh
 * total energy  :   -98.6780339 Eh     change       -0.2706466E-06 Eh
 * total energy  :   -98.6780341 Eh     change       -0.2372730E-06 Eh
 * total energy  :   -98.6780344 Eh     change       -0.2262727E-06 Eh
 * total energy  :   -98.6780345 Eh     change       -0.1772287E-06 Eh
 * total energy  :   -98.6780346 Eh     change       -0.1041737E-06 Eh
 * total energy  :   -98.6780347 Eh     change       -0.8289064E-07 Eh
   *** GEOMETRY OPTIMIZATION CONVERGED AFTER 14 ITERATIONS ***

 final structure:
================
64
 xtb: 6.7.1 (edcfbbe)
C            7.38404509839559       -2.98409960018164       -1.79093499556338
C            6.12008030241198       -3.35920982363025       -1.34021436755352
C            5.27749134077744       -2.45659330063828       -0.72066650012064
C            5.72633740803475       -1.15267683228850       -0.56538366872059
C            7.01636695239872       -0.76827266667941       -0.99932049725217
C            7.84480750082738       -1.69425167387078       -1.61965625829686
C            7.16944600600800        0.61505711905503       -0.64673269244398
C            8.19190284456863        1.53890450189613       -0.81900721306021
C            8.00127637514280        2.82896251057233       -0.36641316958560
C            6.80458443488114        3.20652049855078        0.23933811472119
C            5.77299024665040        2.30608726386424        0.42224720312656
C            5.96686995454744        1.00215562045161       -0.01124111658974
N            5.10454902730604       -0.07403519479021        0.02923886690719
C            3.81754503116693       -0.07056228800574        0.58701178156820
C            3.61558227484665        0.38680574048658        1.88643522314840
C            2.34807324094504        0.40554128679638        2.42710700022490
C            1.24680827639391       -0.03827833462166        1.69014365454684
N           -0.00029611298771       -0.02648492053027        2.28725064803296
C           -1.24720569920762       -0.00257084612499        1.69016333672521
C           -2.35058895453382       -0.44807994212006        2.42297686367195
C           -3.61827787330442       -0.41665581659690        1.88331476632598
C           -3.81838572909741        0.05512316587755        0.58874300180164
N           -5.10567743461167        0.07319324745647        0.03196757592968
C           -5.71843558806176        1.16143848840265       -0.55455216324016
C           -5.25976610657809        2.46330381233509       -0.69803318792266
C           -6.09449757303016        3.37727303057268       -1.31153557145937
C           -7.36036612628024        3.01534863686762       -1.76765821304458
C           -7.83108127907466        1.72765364310321       -1.60767078127100
C           -7.01065769956965        0.79045276408435       -0.99356118398253
C           -7.17475311174771       -0.59452262121460       -0.65264293968260
C           -8.20415538400558       -1.50887623277727       -0.83385673541364
C           -8.02421629247307       -2.80406965764522       -0.39168675500532
C           -6.83126199314892       -3.19590429702263        0.21234601463934
C           -5.79290719243254       -2.30509037552359        0.40399224226252
C           -5.97602348342268       -0.99611585272609       -0.01884011561679
C           -2.72691031533195        0.52106511263553       -0.13819823629709
C           -1.45999580033107        0.50641151734830        0.40774671912087
C            1.46182705176624       -0.53393611178050        0.40286504814485
C            2.72851250116632       -0.53613238458026       -0.14382870762269
H            8.01165553022870       -3.71901345808239       -2.27286351274813
H            5.79288096668255       -4.37976817603164       -1.47536476541670
H            4.30638548873071       -2.76047655511098       -0.35956525273772
H            8.82991822943758       -1.40719851038413       -1.95556927871279
H            9.11370049946180        1.25012638272102       -1.30127182310217
H            8.78464863269931        3.56220190579109       -0.48869760662672
H            6.67954686424856        4.22716074952095        0.57029186638494
H            4.84280227042610        2.61098382787107        0.87800140047912
H            4.45998328586552        0.71903425245880        2.47138931209488
H            2.20056441185308        0.76047436478410        3.43743863878934
H           -0.00043377175699       -0.03047591944397        3.29666933806349
H           -2.20455934063515       -0.81397821753205        3.42960327766205
H           -4.46421128328119       -0.74965413032231        2.46560154980571
H           -4.28717351705994        2.75708667510406       -0.33260116007365
H           -5.75949657558011        4.39646145647751       -1.43752782092884
H           -7.98152007901409        3.75884081663434       -2.24477514715929
H           -8.81770109620888        1.45070418207346       -1.94761701023349
H           -9.12302070291497       -1.20888597099219       -1.31487005847795
H           -8.81314604247119       -3.53011965204498       -0.52094287756663
H           -6.71460345250629       -4.22017087000590        0.53505266762209
H           -4.86574795014237       -2.62116309620924        0.85828634994499
H           -2.87654626412574        0.89729400906686       -1.13902623240874
H           -0.63292798516313        0.91061819530946       -0.15411400244821
H            0.63662151577830       -0.93733323140606       -0.16232660902226
H            2.87988718204336       -0.90189884905425       -1.14827297973573

          :  Hamiltonian                  GFN2-xTB          :
         :: gradient norm              0.000051386861 Eh/a0 ::
         :: HOMO-LUMO gap              2.892029418161 eV    ::
         :: SCC energy              -100.537624612170 Eh    ::
         :: -> dispersion             -0.084727870206 Eh    ::
         :: repulsion energy           1.859589879732 Eh    ::

    * Orbital Energies and Occupations

         #    Occupation            Energy/Eh            Energy/eV
      -------------------------------------------------------------
         1        2.0000           -0.6722073             -18.2917
       ...           ...                  ...                  ...
        80        2.0000           -0.4158111             -11.3148
        81        2.0000           -0.4154999             -11.3063
        82        2.0000           -0.4150882             -11.2951
        83        2.0000           -0.4131805             -11.2432
        84        2.0000           -0.4131303             -11.2418
        85        2.0000           -0.4119633             -11.2101
        86        2.0000           -0.4012582             -10.9188
        87        2.0000           -0.4012392             -10.9183
        88        2.0000           -0.3745615             -10.1923
        89        2.0000           -0.3745477             -10.1920
        90        2.0000           -0.3736538             -10.1676
        91        2.0000           -0.3594594              -9.7814
        92        2.0000           -0.3509975              -9.5511 (HOMO)
        93                         -0.2447173              -6.6591 (LUMO)
        94                         -0.2411639              -6.5624
        95                         -0.2371041              -6.4519
        96                         -0.2336719              -6.3585
        97                         -0.2325651              -6.3284
        98                         -0.2178474              -5.9279
        99                         -0.2178370              -5.9276
       100                         -0.2142950              -5.8313
       101                         -0.1876155              -5.1053
       102                         -0.1830951              -4.9823
       103                         -0.1820084              -4.9527
       ...                                ...                  ...
       181                          0.7502666              20.4158
      -------------------------------------------------------------
                  HL-Gap            0.1062801 Eh            2.8920 eV

     #   Z          covCN         q      C6AA      α(0)
     1   6 C        2.920    -0.042    29.032     8.836
     2   6 C        2.924    -0.034    28.845     8.808
     3   6 C        2.910    -0.052    29.280     8.873
     4   6 C        3.077     0.046    26.885     8.501
     5   6 C        3.069    -0.018    28.380     8.735
     6   6 C        2.912    -0.033    28.825     8.804
     7   6 C        3.068    -0.018    28.380     8.735
     8   6 C        2.912    -0.033    28.825     8.804
     9   6 C        2.920    -0.042    29.034     8.836
    10   6 C        2.924    -0.034    28.847     8.808
    11   6 C        2.910    -0.051    29.279     8.873
    12   6 C        3.078     0.046    26.884     8.501
    13   7 N        2.802    -0.044    22.086     6.980
    14   6 C        2.912     0.053    26.811     8.491
    15   6 C        2.921    -0.042    29.031     8.836
    16   6 C        2.926    -0.058    29.435     8.897
    17   6 C        2.903     0.067    26.495     8.440
    18   7 N        2.700    -0.150    24.248     7.313
    19   6 C        2.902     0.067    26.495     8.440
    20   6 C        2.926    -0.058    29.436     8.897
    21   6 C        2.921    -0.042    29.032     8.836
    22   6 C        2.912     0.053    26.812     8.491
    23   7 N        2.802    -0.044    22.085     6.980
    24   6 C        3.077     0.046    26.885     8.501
    25   6 C        2.910    -0.052    29.280     8.873
    26   6 C        2.924    -0.034    28.845     8.808
    27   6 C        2.920    -0.042    29.032     8.836
    28   6 C        2.912    -0.033    28.825     8.804
    29   6 C        3.069    -0.018    28.380     8.735
    30   6 C        3.068    -0.018    28.380     8.735
    31   6 C        2.912    -0.033    28.825     8.804
    32   6 C        2.920    -0.042    29.034     8.836
    33   6 C        2.924    -0.034    28.847     8.808
    34   6 C        2.910    -0.052    29.279     8.873
    35   6 C        3.078     0.046    26.884     8.501
    36   6 C        2.922    -0.043    29.063     8.841
    37   6 C        2.921    -0.053    29.311     8.878
    38   6 C        2.921    -0.053    29.309     8.878
    39   6 C        2.922    -0.043    29.063     8.841
    40   1 H        0.926     0.027     2.634     2.538
    41   1 H        0.926     0.028     2.622     2.532
    42   1 H        0.926     0.026     2.646     2.544
    43   1 H        0.926     0.030     2.589     2.516
    44   1 H        0.926     0.030     2.589     2.516
    45   1 H        0.926     0.027     2.635     2.538
    46   1 H        0.926     0.027     2.624     2.533
    47   1 H        0.926     0.026     2.650     2.545
    48   1 H        0.926     0.042     2.425     2.435
    49   1 H        0.926     0.030     2.587     2.515
    50   1 H        0.860     0.162     1.321     1.800
    51   1 H        0.926     0.030     2.587     2.515
    52   1 H        0.926     0.042     2.425     2.435
    53   1 H        0.926     0.026     2.646     2.544
    54   1 H        0.926     0.028     2.622     2.532
    55   1 H        0.926     0.027     2.634     2.538
    56   1 H        0.926     0.030     2.589     2.516
    57   1 H        0.926     0.030     2.589     2.516
    58   1 H        0.926     0.027     2.635     2.538
    59   1 H        0.926     0.027     2.624     2.533
    60   1 H        0.926     0.026     2.649     2.545
    61   1 H        0.926     0.043     2.416     2.430
    62   1 H        0.926     0.042     2.417     2.431
    63   1 H        0.926     0.042     2.416     2.431
    64   1 H        0.926     0.043     2.415     2.430

molecular dipole:
                 x           y           z       tot (Debye)
 q only:        0.001      -0.008       0.753
   full:        0.001      -0.008       0.966       2.456

 projected vibrational frequencies (cm⁻¹)
eigval :       -0.00    -0.00     0.00     0.00     0.00     0.00
eigval :        9.37    13.61    16.91    35.32    39.89    58.50
eigval :       60.85    70.01   101.61   103.86   103.94   130.76
eigval :      143.54   144.50   152.75   178.62   186.89   227.28
eigval :      230.67   252.93   271.57   271.92   283.29   316.44
eigval :      349.20   373.37   378.57   379.93   391.87   397.77
eigval :      398.21   406.57   418.24   423.45   429.44   430.49
eigval :      436.42   448.51   490.34   492.63   518.96   518.96
eigval :      532.45   532.96   541.26   541.29   579.83   580.08
eigval :      585.99   592.09   595.90   596.93   617.27   639.06
eigval :      672.94   673.35   674.38   675.32   702.64   705.01
eigval :      710.57   711.10   756.55   756.90   769.14   769.26
eigval :      780.50   780.52   807.22   809.93   825.47   858.88
eigval :      867.06   871.34   872.04   872.25   881.43   882.94
eigval :      896.82   897.53   901.29   901.30   901.61   902.97
eigval :      912.48   916.17   919.04   921.77   923.36   924.36
eigval :      927.80   934.91   946.19   950.60  1011.91  1011.98
eigval :     1017.80  1022.13  1069.73  1069.77  1073.29  1073.33
eigval :     1117.76  1118.54  1132.81  1142.89  1152.46  1152.74
eigval :     1176.61  1176.66  1181.55  1181.57  1182.24  1184.91
eigval :     1197.78  1202.53  1229.34  1237.06  1237.22  1237.24
eigval :     1245.03  1256.75  1273.78  1278.87  1300.33  1301.42
eigval :     1306.26  1306.68  1326.33  1332.11  1357.24  1357.70
eigval :     1361.02  1363.54  1363.67  1372.02  1395.26  1422.33
eigval :     1427.92  1429.20  1432.43  1436.69  1456.48  1477.31
eigval :     1477.57  1488.93  1488.94  1498.22  1501.70  1561.78
eigval :     1562.51  1574.73  1574.78  1589.11  1589.40  1599.19
eigval :     1599.23  1606.20  1606.57  1615.65  1615.97  3070.30
eigval :     3070.80  3074.56  3074.57  3074.94  3074.97  3079.75
eigval :     3079.77  3080.93  3080.98  3086.71  3086.76  3088.35
eigval :     3088.48  3090.82  3091.75  3093.92  3093.95  3094.81
eigval :     3095.01  3095.65  3095.82  3105.23  3107.72  3431.16

   temp. (K)  partition function   enthalpy   heat capacity  entropy
                                   cal/mol     cal/K/mol   cal/K/mol   J/K/mol
 298.15  VIB  0.528E+13            17051.658    112.966    104.229
         ROT  0.319E+08              888.752      2.981     37.316
         INT  0.168E+21            17940.410    115.947    141.545
         TR   0.108E+29             1481.254      4.968     44.493
         TOT                       19421.6641   120.9148   186.0374   778.3804

       T/K    H(0)-H(T)+PV         H(T)/Eh          T*S/Eh         G(T)/Eh
   ------------------------------------------------------------------------
    298.15    0.309504E-01    0.526722E+00    0.883924E-01    0.438329E+00
   ------------------------------------------------------------------------

         :::::::::::::::::::::::::::::::::::::::::::::::::::::
         ::                  THERMODYNAMIC                  ::
         :::::::::::::::::::::::::::::::::::::::::::::::::::::
         :: total free energy         -98.239705325850 Eh   ::
         ::.................................................::
         :: total energy              -98.678034732442 Eh   ::
         :: zero point energy           0.495771381331 Eh   ::
         :: G(RRHO) w/o ZPVE           -0.057441974740 Eh   ::
         :: G(RRHO) contrib.            0.438329406591 Eh   ::
         :::::::::::::::::::::::::::::::::::::::::::::::::::::

           -------------------------------------------------
          | TOTAL ENERGY              -98.678034732442 Eh   |
          | TOTAL ENTHALPY            -98.151312959271 Eh   |
          | TOTAL FREE ENERGY         -98.239705325850 Eh   |
          | GRADIENT NORM               0.000051357710 Eh/α |
          | HOMO-LUMO GAP               2.892029702059 eV   |
           -------------------------------------------------

 * finished run on 2025/08/25 at 06:39:33.678
