   * xtb version 6.7.1 (edcfbbe) compiled by 'albert@albert-system' on 2024-07-22

   ID    Z sym.   atoms
    1    6 C      1-4, 6-43
    2    7 N      5
    3    1 H      44-72

          program call               : xtb data2507/gas/TPA-AN-NA/TPA-AN-NA_gas_S0_finalOpt.xtbopt.xyz --gfn 2 --spinpol --tblite --uhf 2 --ohess vtight --parallel 40 --molden --ceasefiles --namespace data2507/gas/TPA-AN-NA/TPA-AN-NA_gas_T1_preOpt
 * total energy  :  -107.5823438 Eh     change       -0.5821107E-08 Eh
 * total energy  :  -107.5883210 Eh     change       -0.5977286E-02 Eh
 * total energy  :  -107.5897895 Eh     change       -0.1468492E-02 Eh
 * total energy  :  -107.5899440 Eh     change       -0.1544289E-03 Eh
 * total energy  :  -107.5901262 Eh     change       -0.1822451E-03 Eh
 * total energy  :  -107.5902277 Eh     change       -0.1014438E-03 Eh
 * total energy  :  -107.5903446 Eh     change       -0.1169173E-03 Eh
 * total energy  :  -107.5904681 Eh     change       -0.1235077E-03 Eh
 * total energy  :  -107.5905558 Eh     change       -0.8775387E-04 Eh
 * total energy  :  -107.5906375 Eh     change       -0.8169984E-04 Eh
 * total energy  :  -107.5915241 Eh     change       -0.5574186E-06 Eh
 * total energy  :  -107.5915246 Eh     change       -0.4701789E-06 Eh
 * total energy  :  -107.5915250 Eh     change       -0.4830875E-06 Eh
 * total energy  :  -107.5915256 Eh     change       -0.5623631E-06 Eh
 * total energy  :  -107.5915260 Eh     change       -0.4408928E-06 Eh
 * total energy  :  -107.5915266 Eh     change       -0.5454235E-06 Eh
 * total energy  :  -107.5915271 Eh     change       -0.5501653E-06 Eh
 * total energy  :  -107.5915276 Eh     change       -0.4829087E-06 Eh
 * total energy  :  -107.5915277 Eh     change       -0.6983939E-07 Eh
   *** GEOMETRY OPTIMIZATION CONVERGED AFTER 58 ITERATIONS ***

 final structure:
================
72
 xtb: 6.7.1 (edcfbbe)
C           -7.20207742879104        3.66117513555597       -0.42888235332940
C           -7.72255172278310        2.49055063650504       -0.95642034920654
C           -7.05415173304017        1.29267493454546       -0.79597730280922
C           -5.84989441881496        1.24947920845010       -0.09332333699671
N           -5.17081764190396        0.03723684717946        0.07498923096725
C           -5.89451303602474       -1.14095305435488        0.29127605133919
C           -7.05022278978580       -1.12645403941102        1.07232766809767
C           -7.76369791189775       -2.29067121985317        1.27943714893655
C           -7.33659762637173       -3.48463171717997        0.72121671826648
C           -6.18776737857322       -3.50486521619909       -0.05288767893246
C           -5.47120216669628       -2.34480445266538       -0.27221307254198
C           -3.77761074220739        0.00442099943735        0.02829737864830
C           -3.07177917250386        0.85092112589754       -0.83189129459343
C           -1.69714033861967        0.82702807330167       -0.86532249481580
C           -0.96300269890169       -0.05688143096363       -0.06236661717357
C            0.48985129111410       -0.08484732675933       -0.10734515265482
C            1.23212625321105        1.12746979060005        0.06819687120173
C            0.60545358426812        2.33429690010280        0.38742397137715
C            1.32081765127490        3.52540533321310        0.48008178890945
C            2.68024203138473        3.52756536920045        0.25440723932469
C            3.34029201907901        2.32860327652785        0.00154593275273
C            2.65407440106017        1.11175007887874       -0.04190364335929
C            3.33777234067153       -0.13224732930662       -0.21121203688363
C            4.79597039211999       -0.16127111546229       -0.28686763722776
C            5.43419356389661       -0.73882169076472       -1.41223097210215
C            6.79279286516807       -0.76203730565259       -1.51542181048710
C            7.61082694469812       -0.22704628937659       -0.49515477133094
C            9.01627429970127       -0.24242829861791       -0.56884674573710
C            9.77511347158722        0.28549616101784        0.44039182038218
C            9.15901568142944        0.85180145542613        1.56669730911999
C            7.79623581766910        0.88352212694715        1.66687923134700
C            6.98512915577845        0.34843059695898        0.64263602982678
C            5.58111761582883        0.37143166002294        0.71592899154883
C            2.60095467104706       -1.35263147306415       -0.31635038345026
C            3.24419743698488       -2.59109404470010       -0.39393112450628
C            2.53013665019480       -3.76965611954459       -0.59086076639614
C            1.15939139221978       -3.72396138643237       -0.72524377318729
C            0.48975995821162       -2.51026492772168       -0.59210253527307
C            1.17535756661517       -1.32265084126844       -0.32571725896269
C           -1.68158418518595       -0.91017452010559        0.78628158938794
C           -3.05543570566913       -0.87428023185752        0.84120593705165
C           -5.33257228946586        2.43009969420268        0.44006356356182
C           -6.00499105818570        3.62400085733964        0.26758268006792
H           -7.72596485849758        4.59575632725104       -0.55924340201193
H           -8.65269490963317        2.51119061500026       -1.50490815445439
H           -7.45616167785061        0.38283429618674       -1.21720141884422
H           -7.37896117635264       -0.19860113058052        1.51716075392802
H           -8.65540954059907       -2.26671210592683        1.88830141213852
H           -7.89543857268989       -4.39281034432789        0.88794112536224
H           -5.85119357671549       -4.42998524717125       -0.49707202671619
H           -4.58299512596413       -2.35988145568988       -0.88668580946126
H           -3.61740846858604        1.51772105211465       -1.48372338531353
H           -1.17042564067024        1.46645940227628       -1.55850758037616
H           -0.45734452499417        2.34822721416885        0.57479479219348
H            0.80109069823422        4.44211842873141        0.71670583594790
H            3.24201903858063        4.44928563299944        0.28667666386469
H            4.40602354925311        2.34312659740152       -0.16802898803314
H            4.81828358790915       -1.13253834013161       -2.20821087702363
H            7.26683805424949       -1.18839734318277       -2.38863766266988
H            9.48631768544999       -0.68050583862348       -1.43830012796657
H           10.85348360803429        0.26947009111762        0.37762874194528
H            9.77296475375692        1.26301190699429        2.35500440143732
H            7.31703695539989        1.32025183597223        2.53183263641661
H            5.11323655543806        0.79108168916795        1.59585760095858
H            4.31817487709447       -2.63864379580270       -0.29776699850851
H            3.05813934894498       -4.70963320972963       -0.65271499963648
H            0.59587858982153       -4.62463083736175       -0.91959997716544
H           -0.58334068245313       -2.49111223304711       -0.70555913253081
H           -1.13993359545482       -1.57209311667254        1.44601480646113
H           -3.58639606019672       -1.51747121276244        1.52795611404328
H           -4.40601587495822        2.40079374474716        0.99444965203083
H           -5.59537546124717        4.53069867500879        0.68775061144630

 projected vibrational frequencies (cm⁻¹)
eigval :       -0.00    -0.00    -0.00    -0.00     0.00     0.00
eigval :       10.14    14.67    16.10    34.19    35.36    42.58
eigval :       49.98    55.10    61.73    74.88    75.38    84.49
eigval :       99.68   126.54   141.00   142.70   165.44   174.01
eigval :      185.41   192.69   195.96   229.48   234.30   240.27
eigval :      291.92   295.52   317.11   319.56   341.03   350.60
eigval :      368.95   377.19   378.03   380.01   384.02   390.25
eigval :      399.16   410.10   413.18   425.09   428.95   450.82
eigval :      472.26   482.13   485.46   492.64   496.20   511.32
eigval :      542.45   563.77   570.83   576.98   579.96   585.13
eigval :      588.37   594.44   599.71   605.71   619.84   641.01
eigval :      643.95   659.83   665.29   674.17   687.21   688.99
eigval :      715.89   721.59   727.00   748.96   755.45   756.84
eigval :      760.19   761.21   792.82   813.95   818.42   834.72
eigval :      845.47   851.11   869.57   872.64   873.69   875.18
eigval :      882.62   885.07   888.70   890.72   892.99   894.78
eigval :      897.00   897.53   904.68   906.35   909.99   913.18
eigval :      925.77   926.94   928.03   928.34   929.32   929.75
eigval :      931.08   937.77   940.78   946.40   985.84   993.93
eigval :     1004.73  1023.00  1079.65  1082.85  1083.78  1102.62
eigval :     1106.48  1116.18  1121.65  1123.24  1124.38  1141.80
eigval :     1143.48  1173.68  1176.16  1179.18  1179.96  1180.05
eigval :     1182.00  1183.04  1184.89  1188.35  1194.04  1197.43
eigval :     1217.46  1219.81  1229.41  1234.55  1253.90  1260.98
eigval :     1264.46  1272.78  1277.57  1280.22  1292.06  1300.21
eigval :     1310.05  1316.43  1317.71  1324.69  1327.14  1330.79
eigval :     1340.85  1362.16  1367.46  1372.86  1379.25  1394.45
eigval :     1410.61  1416.87  1425.29  1425.89  1435.49  1442.38
eigval :     1446.17  1466.74  1469.41  1472.19  1479.97  1490.98
eigval :     1495.04  1522.87  1525.58  1531.47  1546.29  1555.65
eigval :     1574.99  1576.11  1579.60  1587.05  1591.59  1596.72
eigval :     1604.54  3064.03  3066.23  3068.33  3071.36  3074.07
eigval :     3074.20  3076.28  3077.45  3077.56  3078.17  3078.39
eigval :     3078.70  3079.16  3080.84  3083.17  3083.43  3087.07
eigval :     3087.93  3088.24  3088.52  3089.53  3090.60  3091.22
eigval :     3093.53  3094.02  3096.75  3097.22  3098.84  3099.35

   temp. (K)  partition function   enthalpy   heat capacity  entropy
                                   cal/mol     cal/K/mol   cal/K/mol   J/K/mol
 298.15  VIB  0.811E+15            19546.319    126.945    120.651
         ROT  0.657E+08              888.752      2.981     38.754
         INT  0.533E+23            20435.072    129.925    159.406
         TR   0.124E+29             1481.254      4.968     44.767
         TOT                       21916.3254   134.8936   204.1723   854.2568

       T/K    H(0)-H(T)+PV         H(T)/Eh          T*S/Eh         G(T)/Eh
   ------------------------------------------------------------------------
    298.15    0.349259E-01    0.594209E+00    0.970088E-01    0.497200E+00
   ------------------------------------------------------------------------

         :::::::::::::::::::::::::::::::::::::::::::::::::::::
         ::                  THERMODYNAMIC                  ::
         :::::::::::::::::::::::::::::::::::::::::::::::::::::
         :: total free energy        -107.094327283483 Eh   ::
         ::.................................................::
         :: total energy             -107.591527691748 Eh   ::
         :: zero point energy           0.559283356681 Eh   ::
         :: G(RRHO) w/o ZPVE           -0.062082948417 Eh   ::
         :: G(RRHO) contrib.            0.497200408265 Eh   ::
         :::::::::::::::::::::::::::::::::::::::::::::::::::::

           -------------------------------------------------
          | TOTAL ENERGY             -107.591527691748 Eh   |
          | TOTAL ENTHALPY           -106.997318447365 Eh   |
          | TOTAL FREE ENERGY        -107.094327283483 Eh   |
          | GRADIENT NORM               0.000077367356 Eh/α |
           -------------------------------------------------

 * finished run on 2025/08/30 at 16:43:10.008
