   * xtb version 6.7.1 (edcfbbe) compiled by 'albert@albert-system' on 2024-07-22

   ID    Z sym.   atoms
    1    6 C      1-4, 6-43
    2    7 N      5
    3    1 H      44-72

          program call               : xtb data2507/gas/TPA-AN-NA/TPA-AN-NA_gas_T1_crest.xyz --gfn 2 --spinpol --tblite --uhf 2 --ohess vtight --parallel 40 --molden --ceasefiles --namespace data2507/gas/TPA-AN-NA/TPA-AN-NA_gas_T1_finalOpt
 * total energy  :  -107.5914446 Eh     change       -0.1018769E-07 Eh
 * total energy  :  -107.5914868 Eh     change       -0.4222740E-04 Eh
 * total energy  :  -107.5915001 Eh     change       -0.1324925E-04 Eh
 * total energy  :  -107.5915035 Eh     change       -0.3494993E-05 Eh
 * total energy  :  -107.5915075 Eh     change       -0.3939545E-05 Eh
 * total energy  :  -107.5915099 Eh     change       -0.2425144E-05 Eh
 * total energy  :  -107.5915137 Eh     change       -0.3788404E-05 Eh
 * total energy  :  -107.5915161 Eh     change       -0.2437906E-05 Eh
 * total energy  :  -107.5915178 Eh     change       -0.1678682E-05 Eh
 * total energy  :  -107.5915194 Eh     change       -0.1596956E-05 Eh
 * total energy  :  -107.5915281 Eh     change       -0.1485281E-06 Eh
 * total energy  :  -107.5915284 Eh     change       -0.2469841E-06 Eh
 * total energy  :  -107.5915286 Eh     change       -0.2289779E-06 Eh
 * total energy  :  -107.5915289 Eh     change       -0.2910138E-06 Eh
 * total energy  :  -107.5915296 Eh     change       -0.7261496E-06 Eh
 * total energy  :  -107.5915299 Eh     change       -0.2454287E-06 Eh
 * total energy  :  -107.5915301 Eh     change       -0.1846986E-06 Eh
 * total energy  :  -107.5915301 Eh     change        0.2926555E-08 Eh
 * total energy  :  -107.5915301 Eh     change       -0.3238654E-08 Eh
   *** GEOMETRY OPTIMIZATION CONVERGED AFTER 45 ITERATIONS ***

 final structure:
================
72
 xtb: 6.7.1 (edcfbbe)
C           -7.19196092016172        3.66781761940847       -0.60829639372801
C           -7.71370622187565        2.47782850346765       -1.08922949967572
C           -7.04917783753048        1.28581441253716       -0.87729854564414
C           -5.84755283390197        1.26840470232555       -0.16899746087834
N           -5.17204257588960        0.06284891827821        0.05173722809109
C           -5.89745825780308       -1.10568648027539        0.31005175494378
C           -7.05827364592560       -1.06082238652185        1.08230250187120
C           -7.77240276011252       -2.21645331367397        1.33118018892616
C           -7.34102362570573       -3.43146860414311        0.82398954997219
C           -6.18710330509707       -3.48176914310956        0.05887044099560
C           -5.46976957668701       -2.33084334412748       -0.20195307669944
C           -3.77849160126762        0.02606668678828        0.01494769883209
C           -3.06607391915341        0.83035447302284       -0.87953375208368
C           -1.69141048805692        0.80067939216600       -0.90523585450341
C           -0.96394495615159       -0.04718876631273       -0.05838048896818
C            0.48866579230114       -0.08351045213382       -0.09673063472792
C            1.23598180151064        1.13295855651831        0.01886759988579
C            0.61419223722045        2.35688791476337        0.27661405969412
C            1.33430539550972        3.54824547113872        0.30851412799851
C            2.69358704089131        3.53353693672563        0.08211105670026
C            3.34884341592470        2.32068950684826       -0.10903390167130
C            2.65788784672230        1.10585261328971       -0.08930833260711
C            3.33647206935884       -0.14810161946028       -0.19263841255242
C            4.79431698592669       -0.18756645571105       -0.26731183930246
C            5.42861866179515       -0.82941746652739       -1.35961386688114
C            6.78693051584613       -0.86419546199938       -1.46283682188575
C            7.60854798664258       -0.27713925740715       -0.47456183501846
C            9.01379937129939       -0.30284280166966       -0.54874228440256
C            9.77623823798644        0.27626786672344        0.42922861564287
C            9.16406825457671        0.90643822221333        1.52329576962493
C            7.80156932469220        0.94992766915978        1.62285980187111
C            6.98681732072405        0.36296180571185        0.63041107361164
C            5.58303692644723        0.39622335582790        0.70378324701813
C            2.59462109062314       -1.36929511705252       -0.23361755871377
C            3.23274600531255       -2.61283294364943       -0.24227801428883
C            2.51428809190999       -3.79712436700158       -0.37932959525309
C            1.14437956601223       -3.75268428073128       -0.52284910892378
C            0.47959636745161       -2.53090524731918       -0.45678060136466
C            1.16925116558039       -1.33388675703578       -0.24931004271343
C           -1.68926450718566       -0.85712089661177        0.82645667987152
C           -3.06319115779396       -0.81534306157757        0.87213583485498
C           -5.32877511334743        2.46871687236344        0.31703974168084
C           -5.99733295939742        3.65622560453787        0.09326564172977
H           -7.71289952301961        4.59758024649288       -0.77874229812182
H           -8.64178178675981        2.47833983582435       -1.64159212539253
H           -7.45206741182934        0.36050577309685       -1.26242907593207
H           -7.39026520185990       -0.11619051654943        1.48763656211700
H           -8.66798278802470       -2.16894054331796        1.93293493259646
H           -7.90044837868131       -4.33269894470357        1.02326973366410
H           -5.84716642283337       -4.42362602313254       -0.34584267062886
H           -4.57746719961783       -2.36980071965279       -0.80941453348315
H           -3.60671614665415        1.46787990875607       -1.56401473803672
H           -1.15933779090421        1.40518059964296       -1.62514069691684
H           -0.44846727997900        2.38452639154196        0.46331272690144
H            0.81845158763293        4.47789357608076        0.49857960328573
H            3.25884852353487        4.45357694985447        0.06669731848958
H            4.41448521090033        2.32232208332897       -0.27978028541703
H            4.80993917108396       -1.26395531078226       -2.13184680599954
H            7.25799975141949       -1.34027867560371       -2.31161692007684
H            9.48072808906928       -0.79010534240754       -1.39334141591408
H           10.85444739895496        0.25198646529985        0.36636400812442
H            9.78083189495673        1.35751374536965        2.28723075149463
H            7.32536341060620        1.43579677928619        2.46289949865281
H            5.11809951241677        0.86558419330520        1.55982890198212
H            4.30608740007293       -2.65963368922838       -0.13890503604620
H            3.03819243203229       -4.74137848720329       -0.38847538275914
H            0.57775640123606       -4.65993160218228       -0.67242180907939
H           -0.59283241851101       -2.51332093673058       -0.57661302721913
H           -1.15275936654771       -1.48809011470083        1.51984473596237
H           -3.59986291560450       -1.42446593326443        1.58503378654383
H           -4.40418450899402        2.45988420429417        0.87540839587930
H           -5.58667368281539        4.57836836561236        0.47726683150132

 projected vibrational frequencies (cm⁻¹)
eigval :       -0.00    -0.00    -0.00     0.00     0.00     0.00
eigval :       10.09    14.82    16.12    34.29    35.41    42.60
eigval :       49.99    55.15    61.74    74.99    75.45    84.58
eigval :       99.06   126.71   141.16   142.89   165.74   173.91
eigval :      185.47   192.86   195.98   229.61   234.13   240.25
eigval :      291.55   295.62   316.83   319.52   341.10   350.72
eigval :      369.09   377.17   378.02   380.02   383.91   390.17
eigval :      399.21   410.09   413.28   425.30   429.10   450.90
eigval :      472.33   482.20   485.11   492.60   496.14   511.25
eigval :      542.44   563.80   570.87   576.90   579.94   585.08
eigval :      588.34   594.42   599.68   605.73   619.76   641.05
eigval :      644.04   659.76   665.24   674.22   687.27   689.07
eigval :      715.93   721.57   726.69   749.20   755.53   756.82
eigval :      760.25   761.44   792.92   813.98   818.31   834.83
eigval :      845.73   851.45   869.46   872.64   873.61   875.37
eigval :      882.66   885.10   888.92   890.80   892.89   894.87
eigval :      896.99   897.77   904.89   906.65   910.00   913.23
eigval :      925.85   926.97   928.06   928.39   929.37   929.66
eigval :      931.13   937.78   940.82   946.53   985.68   993.87
eigval :     1004.69  1022.61  1079.73  1082.64  1083.78  1102.67
eigval :     1106.30  1116.27  1121.81  1123.32  1124.36  1141.55
eigval :     1143.39  1173.69  1176.30  1179.24  1180.08  1180.16
eigval :     1181.88  1183.30  1185.00  1188.33  1194.25  1197.11
eigval :     1217.90  1219.73  1229.42  1234.72  1254.02  1260.88
eigval :     1264.43  1272.73  1277.71  1280.36  1291.85  1300.45
eigval :     1310.12  1316.56  1318.09  1324.68  1327.15  1330.91
eigval :     1340.76  1362.06  1367.42  1372.97  1379.50  1394.44
eigval :     1410.64  1417.10  1425.33  1425.91  1435.50  1442.40
eigval :     1446.08  1466.82  1469.58  1472.45  1479.76  1491.24
eigval :     1495.07  1523.01  1525.45  1531.38  1546.33  1555.56
eigval :     1575.00  1576.01  1579.61  1587.02  1591.66  1596.62
eigval :     1604.54  3063.90  3066.16  3068.27  3070.97  3073.91
eigval :     3074.07  3076.02  3077.09  3077.40  3078.13  3078.14
eigval :     3078.46  3078.94  3080.77  3083.02  3083.20  3086.96
eigval :     3087.81  3088.20  3088.24  3089.24  3090.21  3091.07
eigval :     3093.36  3093.88  3096.60  3096.96  3098.75  3099.34

   temp. (K)  partition function   enthalpy   heat capacity  entropy
                                   cal/mol     cal/K/mol   cal/K/mol   J/K/mol
 298.15  VIB  0.800E+15            19545.102    126.945    120.640
         ROT  0.657E+08              888.752      2.981     38.753
         INT  0.526E+23            20433.855    129.926    159.393
         TR   0.124E+29             1481.254      4.968     44.767
         TOT                       21915.1086   134.8945   204.1598   854.2046

       T/K    H(0)-H(T)+PV         H(T)/Eh          T*S/Eh         G(T)/Eh
   ------------------------------------------------------------------------
    298.15    0.349239E-01    0.594207E+00    0.970029E-01    0.497204E+00
   ------------------------------------------------------------------------

         :::::::::::::::::::::::::::::::::::::::::::::::::::::
         ::                  THERMODYNAMIC                  ::
         :::::::::::::::::::::::::::::::::::::::::::::::::::::
         :: total free energy        -107.094325953886 Eh   ::
         ::.................................................::
         :: total energy             -107.591530059471 Eh   ::
         :: zero point energy           0.559283067903 Eh   ::
         :: G(RRHO) w/o ZPVE           -0.062078962318 Eh   ::
         :: G(RRHO) contrib.            0.497204105585 Eh   ::
         :::::::::::::::::::::::::::::::::::::::::::::::::::::

           -------------------------------------------------
          | TOTAL ENERGY             -107.591530059471 Eh   |
          | TOTAL ENTHALPY           -106.997323043033 Eh   |
          | TOTAL FREE ENERGY        -107.094325953886 Eh   |
          | GRADIENT NORM               0.000062276681 Eh/α |
           -------------------------------------------------

 * finished run on 2025/08/30 at 16:47:28.596
