   * xtb version 6.7.1 (edcfbbe) compiled by 'albert@albert-system' on 2024-07-22

   ID    Z sym.   atoms
    1    6 C      1-4, 6-43
    2    7 N      5
    3    1 H      44-72

          program call               : xtb data2507/gas/TPA-AN-NA/TPA-AN-NA_gas_S0_crest.xyz --gfn 2 --ohess vtight --parallel 40 --molden --ceasefiles --namespace data2507/gas/TPA-AN-NA/TPA-AN-NA_gas_S0_finalOpt
          :  Hamiltonian                  GFN2-xTB          :
 * total energy  :  -107.6531374 Eh     change       -0.2716888E-08 Eh
 * total energy  :  -107.6531383 Eh     change       -0.9761162E-06 Eh
 * total energy  :  -107.6531398 Eh     change       -0.1469112E-05 Eh
 * total energy  :  -107.6531421 Eh     change       -0.2277524E-05 Eh
 * total energy  :  -107.6531427 Eh     change       -0.6522057E-06 Eh
 * total energy  :  -107.6531433 Eh     change       -0.5311414E-06 Eh
 * total energy  :  -107.6531444 Eh     change       -0.1126292E-05 Eh
 * total energy  :  -107.6531463 Eh     change       -0.1943346E-05 Eh
 * total energy  :  -107.6531477 Eh     change       -0.1390700E-05 Eh
 * total energy  :  -107.6531484 Eh     change       -0.7087469E-06 Eh
 * total energy  :  -107.6531513 Eh     change       -0.8252552E-06 Eh
 * total energy  :  -107.6531522 Eh     change       -0.9687708E-06 Eh
 * total energy  :  -107.6531532 Eh     change       -0.9971355E-06 Eh
 * total energy  :  -107.6531542 Eh     change       -0.1004986E-05 Eh
 * total energy  :  -107.6531551 Eh     change       -0.8901941E-06 Eh
 * total energy  :  -107.6531558 Eh     change       -0.7177637E-06 Eh
 * total energy  :  -107.6531564 Eh     change       -0.6069428E-06 Eh
 * total energy  :  -107.6531569 Eh     change       -0.4932217E-06 Eh
 * total energy  :  -107.6531569 Eh     change       -0.4866735E-08 Eh
   *** GEOMETRY OPTIMIZATION CONVERGED AFTER 22 ITERATIONS ***

 final structure:
================
72
 xtb: 6.7.1 (edcfbbe)
C           -7.25730012486129        3.52642177177430       -0.85023940185489
C           -7.77333160257418        2.29190007813982       -1.20900716390537
C           -7.08662536323577        1.13162016519840       -0.90931092526600
C           -5.86849352597355        1.19072437868766       -0.23252887758593
N           -5.17016459939482        0.01878504704641        0.07815897815353
C           -5.86575616874797       -1.13678693797398        0.44990022599522
C           -7.02122226124452       -1.04965517365857        1.22625351785440
C           -7.70567307795277       -2.19390606315575        1.58652471878856
C           -7.24884868237543       -3.44013321041291        1.18995524712656
C           -6.09911550375938       -3.53279391482583        0.42290554979515
C           -5.41261789482740       -2.39391909091174        0.04992381753341
C           -3.77267231121749        0.00418708921059        0.02053421926418
C           -3.09637528507745        0.70736725942123       -0.97664127041690
C           -1.71776323786410        0.69923107195795       -1.02445565397633
C           -0.97409730689254       -0.01923524323297       -0.09169602329837
C            0.50095053733058       -0.02898919187193       -0.14815106983995
C            1.21731157748403        1.15193141396439        0.09736435599886
C            0.56380067469095        2.36545632678127        0.43824438057819
C            1.26589442556791        3.51161547472147        0.64976914919204
C            2.66969866391357        3.51739096330607        0.52917513306000
C            3.33703443363660        2.36988015535085        0.23068220098125
C            2.64537059245112        1.14666904015795        0.02689943634610
C            3.32467505638735       -0.04731912234849       -0.25368503937040
C            4.80110573091292       -0.05906469755064       -0.31876141597380
C            5.44163817077214       -0.25637658906864       -1.56111162119870
C            6.80351576705084       -0.26584119911681       -1.64987012747317
C            7.60568712848153       -0.08363452889768       -0.50341827777604
C            9.01434398501249       -0.08911502544414       -0.56126592533897
C            9.76020565091790        0.09180847852812        0.56966604328208
C            9.13137962284516        0.28635805903744        1.80972458925487
C            7.76786964355896        0.29666437983220        1.89880409329894
C            6.96941702089718        0.11296583609611        0.75027948423512
C            5.56173708802855        0.12183748180849        0.80949415313526
C            2.61003870331332       -1.23177784828472       -0.48151660879792
C            3.27012375539326       -2.46315320793336       -0.73479508186046
C            2.56846385244034       -3.60227832906450       -0.98255440414422
C            1.15974411042567       -3.57896634014613       -0.99878635459483
C            0.48914531643175       -2.42440708821138       -0.73627067855834
C            1.18112019772794       -1.21929397745902       -0.44556285606615
C           -1.65271941360331       -0.72729050561170        0.89693336105325
C           -3.03069484019007       -0.71249882827283        0.95963486436339
C           -5.35555909831038        2.43622574883232        0.12984547637653
C           -6.04542392903059        3.59120213636395       -0.18241586256492
H           -7.79552996738767        4.43104206408874       -1.08917218435918
H           -8.71496057249965        2.23158049404722       -1.73480608261618
H           -7.48671026634724        0.17109435295307       -1.19957873444336
H           -7.37421609188188       -0.08007229718508        1.54598932121881
H           -8.59818309275199       -2.11185087512222        2.18940553352768
H           -7.78476943159779       -4.33220859707091        1.47649488248450
H           -5.73801921523183       -4.49972127842004        0.10431326157067
H           -4.52264236671001       -2.46881453633262       -0.55778880753656
H           -3.66130426183311        1.25782116347150       -1.71469968222736
H           -1.20475301125702        1.24188734455622       -1.80542108872262
H           -0.51197838214700        2.36248560598388        0.53123875882953
H            0.75296943084612        4.42651150045548        0.90839933678276
H            3.21073552875130        4.43994265463940        0.68111653179344
H            4.41329610076943        2.37441827113039        0.14195428799088
H            4.83092383161131       -0.39237407794029       -2.44234391378425
H            7.28860570996814       -0.41326475298273       -2.60463386211460
H            9.49348823622211       -0.23912156141054       -1.51861385457419
H           10.83928774261515        0.08658207860491        0.51834061109845
H            9.73670997185992        0.42785048193343        2.69333366964519
H            7.27871847790269        0.44644539120764        2.85102200633590
H            5.07927842581157        0.26832183735829        1.76620776023565
H            4.34996665552330       -2.48099272559834       -0.72450797783606
H            3.08518124376652       -4.53151151481575       -1.17343079821872
H            0.61792623989870       -4.48735300926150       -1.21852682796117
H           -0.59047152417736       -2.40818139510804       -0.74920649952337
H           -1.08791553882623       -1.27900019765727        1.63461352504148
H           -3.54379467260137       -1.25396190255566        1.74092519546477
H           -4.41629481428768        2.48945170919609        0.66081678626961
H           -5.63745199724547        4.54885094556719        0.10621796222302

          :  Hamiltonian                  GFN2-xTB          :
         :: gradient norm              0.000045221204 Eh/a0 ::
         :: HOMO-LUMO gap              1.888101314489 eV    ::
         :: SCC energy              -109.748854281991 Eh    ::
         :: -> dispersion             -0.100967022469 Eh    ::
         :: repulsion energy           2.095697336006 Eh    ::

    * Orbital Energies and Occupations

         #    Occupation            Energy/Eh            Energy/eV
      -------------------------------------------------------------
         1        2.0000           -0.6639431             -18.0668
       ...           ...                  ...                  ...
        89        2.0000           -0.4132334             -11.2447
        90        2.0000           -0.4079984             -11.1022
        91        2.0000           -0.4066933             -11.0667
        92        2.0000           -0.4041212             -10.9967
        93        2.0000           -0.4041024             -10.9962
        94        2.0000           -0.4036877             -10.9849
        95        2.0000           -0.4003316             -10.8936
        96        2.0000           -0.3982509             -10.8370
        97        2.0000           -0.3961702             -10.7803
        98        2.0000           -0.3948519             -10.7445
        99        2.0000           -0.3769847             -10.2583
       100        2.0000           -0.3567922              -9.7088
       101        2.0000           -0.3468512              -9.4383 (HOMO)
       102                         -0.2774647              -7.5502 (LUMO)
       103                         -0.2576632              -7.0114
       104                         -0.2299558              -6.2574
       105                         -0.2294375              -6.2433
       106                         -0.2283955              -6.2150
       107                         -0.2271533              -6.1812
       108                         -0.2264921              -6.1632
       109                         -0.2213046              -6.0220
       110                         -0.2206996              -6.0055
       111                         -0.2171637              -5.9093
       112                         -0.1948332              -5.3017
       ...                                ...                  ...
       201                          0.7191753              19.5698
      -------------------------------------------------------------
                  HL-Gap            0.0693865 Eh            1.8881 eV

     #   Z          covCN         q      C6AA      α(0)
     1   6 C        2.919    -0.039    28.960     8.825
     2   6 C        2.920    -0.029    28.731     8.790
     3   6 C        2.922    -0.048    29.186     8.859
     4   6 C        2.924     0.065    26.539     8.448
     5   7 N        2.752    -0.076    22.721     7.080
     6   6 C        2.924     0.065    26.539     8.448
     7   6 C        2.922    -0.048    29.187     8.860
     8   6 C        2.920    -0.029    28.731     8.790
     9   6 C        2.919    -0.039    28.961     8.825
    10   6 C        2.920    -0.029    28.733     8.790
    11   6 C        2.923    -0.048    29.183     8.859
    12   6 C        2.924     0.063    26.587     8.456
    13   6 C        2.921    -0.049    29.212     8.863
    14   6 C        2.923    -0.033    28.812     8.803
    15   6 C        2.976     0.007    27.859     8.658
    16   6 C        2.977    -0.006    28.165     8.705
    17   6 C        2.984     0.006    27.886     8.662
    18   6 C        2.918    -0.035    28.865     8.810
    19   6 C        2.914    -0.031    28.765     8.795
    20   6 C        2.914    -0.031    28.761     8.794
    21   6 C        2.917    -0.035    28.867     8.810
    22   6 C        2.984     0.006    27.879     8.661
    23   6 C        2.978    -0.007    28.191     8.709
    24   6 C        2.973     0.015    27.682     8.630
    25   6 C        2.920    -0.033    28.812     8.802
    26   6 C        2.916    -0.037    28.908     8.817
    27   6 C        2.987     0.011    27.770     8.644
    28   6 C        2.918    -0.035    28.872     8.811
    29   6 C        2.916    -0.031    28.764     8.795
    30   6 C        2.916    -0.030    28.750     8.793
    31   6 C        2.918    -0.035    28.880     8.813
    32   6 C        2.986     0.012    27.741     8.640
    33   6 C        2.923    -0.040    28.992     8.830
    34   6 C        2.984     0.006    27.877     8.661
    35   6 C        2.918    -0.034    28.858     8.809
    36   6 C        2.914    -0.031    28.762     8.794
    37   6 C        2.914    -0.031    28.765     8.795
    38   6 C        2.917    -0.035    28.863     8.810
    39   6 C        2.984     0.006    27.889     8.663
    40   6 C        2.924    -0.033    28.812     8.803
    41   6 C        2.921    -0.049    29.213     8.863
    42   6 C        2.923    -0.048    29.182     8.859
    43   6 C        2.919    -0.029    28.732     8.790
    44   1 H        0.926     0.030     2.590     2.517
    45   1 H        0.926     0.031     2.572     2.508
    46   1 H        0.926     0.031     2.567     2.505
    47   1 H        0.926     0.031     2.567     2.506
    48   1 H        0.926     0.031     2.572     2.508
    49   1 H        0.926     0.030     2.590     2.517
    50   1 H        0.926     0.031     2.572     2.508
    51   1 H        0.926     0.030     2.582     2.513
    52   1 H        0.926     0.032     2.557     2.500
    53   1 H        0.926     0.032     2.552     2.498
    54   1 H        0.926     0.031     2.578     2.511
    55   1 H        0.926     0.027     2.623     2.533
    56   1 H        0.926     0.028     2.620     2.531
    57   1 H        0.926     0.031     2.573     2.508
    58   1 H        0.926     0.030     2.586     2.515
    59   1 H        0.926     0.031     2.579     2.511
    60   1 H        0.926     0.030     2.591     2.517
    61   1 H        0.926     0.029     2.606     2.524
    62   1 H        0.926     0.029     2.604     2.523
    63   1 H        0.926     0.030     2.586     2.515
    64   1 H        0.925     0.030     2.582     2.513
    65   1 H        0.926     0.031     2.574     2.509
    66   1 H        0.926     0.028     2.620     2.531
    67   1 H        0.926     0.027     2.623     2.533
    68   1 H        0.926     0.031     2.578     2.511
    69   1 H        0.926     0.032     2.552     2.498
    70   1 H        0.926     0.032     2.557     2.500
    71   1 H        0.926     0.030     2.582     2.513
    72   1 H        0.926     0.031     2.572     2.508

molecular dipole:
                 x           y           z       tot (Debye)
 q only:       -0.079      -0.001      -0.008
   full:       -0.079      -0.002      -0.008       0.202

 projected vibrational frequencies (cm⁻¹)
eigval :       -0.00    -0.00    -0.00     0.00     0.00     0.00
eigval :       11.89    12.40    15.18    25.67    36.17    39.47
eigval :       48.64    52.94    65.39    71.25    72.35    80.21
eigval :       97.96   114.98   134.35   135.42   165.55   166.70
eigval :      181.86   184.96   196.30   214.78   233.03   236.45
eigval :      291.45   294.42   319.09   319.80   350.78   352.37
eigval :      367.40   378.19   378.39   387.14   388.60   392.52
eigval :      402.48   412.33   416.58   446.62   448.55   450.76
eigval :      459.22   481.45   485.49   491.87   496.93   512.09
eigval :      544.63   570.05   580.43   581.98   584.85   589.22
eigval :      589.68   596.86   604.47   611.16   636.46   643.77
eigval :      650.53   659.76   665.50   686.76   692.00   693.18
eigval :      724.48   729.46   739.67   756.59   757.55   760.79
eigval :      774.16   776.05   795.26   815.65   818.47   835.23
eigval :      871.94   873.36   874.19   875.01   875.68   878.02
eigval :      885.74   886.66   891.13   891.24   897.91   898.70
eigval :      910.26   914.71   915.91   917.89   921.07   924.44
eigval :      927.14   927.31   928.28   928.41   928.59   929.08
eigval :      929.97   931.91   932.92   943.18   986.71   995.45
eigval :     1005.01  1027.93  1079.29  1082.24  1083.00  1083.45
eigval :     1084.36  1122.03  1124.39  1135.14  1136.50  1138.98
eigval :     1146.83  1173.58  1179.22  1180.77  1180.81  1181.70
eigval :     1183.34  1187.72  1190.27  1194.25  1195.91  1208.40
eigval :     1224.17  1228.08  1228.67  1235.17  1258.61  1259.54
eigval :     1263.48  1270.93  1278.72  1282.03  1310.71  1315.24
eigval :     1321.80  1323.99  1326.75  1328.66  1331.25  1350.45
eigval :     1359.30  1381.80  1385.02  1398.65  1407.88  1418.66
eigval :     1426.77  1429.70  1436.36  1441.15  1443.89  1459.37
eigval :     1472.81  1477.34  1482.23  1496.79  1501.80  1526.96
eigval :     1529.51  1542.19  1555.58  1561.52  1577.18  1581.23
eigval :     1595.30  1595.50  1601.82  1606.46  1608.65  1611.46
eigval :     1622.75  3066.18  3067.46  3069.54  3071.71  3072.65
eigval :     3072.73  3075.17  3075.42  3075.84  3076.45  3076.78
eigval :     3077.70  3079.27  3079.49  3079.93  3082.21  3085.54
eigval :     3086.23  3087.95  3089.01  3089.24  3089.33  3089.65
eigval :     3089.91  3090.51  3093.55  3094.57  3097.03  3097.52

   temp. (K)  partition function   enthalpy   heat capacity  entropy
                                   cal/mol     cal/K/mol   cal/K/mol   J/K/mol
 298.15  VIB  0.159E+16            19527.406    125.838    121.140
         ROT  0.655E+08              888.752      2.981     38.746
         INT  0.104E+24            20416.159    128.819    159.886
         TR   0.124E+29             1481.254      4.968     44.767
         TOT                       21897.4124   133.7871   204.6525   856.2659

       T/K    H(0)-H(T)+PV         H(T)/Eh          T*S/Eh         G(T)/Eh
   ------------------------------------------------------------------------
    298.15    0.348957E-01    0.596540E+00    0.972370E-01    0.499303E+00
   ------------------------------------------------------------------------

         :::::::::::::::::::::::::::::::::::::::::::::::::::::
         ::                  THERMODYNAMIC                  ::
         :::::::::::::::::::::::::::::::::::::::::::::::::::::
         :: total free energy        -107.153853597562 Eh   ::
         ::.................................................::
         :: total energy             -107.653156945984 Eh   ::
         :: zero point energy           0.561644589854 Eh   ::
         :: G(RRHO) w/o ZPVE           -0.062341241432 Eh   ::
         :: G(RRHO) contrib.            0.499303348422 Eh   ::
         :::::::::::::::::::::::::::::::::::::::::::::::::::::

           -------------------------------------------------
          | TOTAL ENERGY             -107.653156945984 Eh   |
          | TOTAL ENTHALPY           -107.056616608222 Eh   |
          | TOTAL FREE ENERGY        -107.153853597562 Eh   |
          | GRADIENT NORM               0.000045221010 Eh/α |
          | HOMO-LUMO GAP               1.888102180364 eV   |
           -------------------------------------------------

 * finished run on 2025/08/30 at 16:43:01.699
