   * xtb version 6.7.1 (edcfbbe) compiled by 'albert@albert-system' on 2024-07-22

   ID    Z sym.   atoms
    1    6 C      1-4, 6-43
    2    7 N      5
    3    1 H      44-72

          program call               : xtb data2507/gas/TPA-AN-NA/TPA-AN-NA.xyz --gfn 2 --ohess vtight --parallel 40 --molden --ceasefiles --namespace data2507/gas/TPA-AN-NA/TPA-AN-NA_gas_S0_preOpt
          :  Hamiltonian                  GFN2-xTB          :
 * total energy  :  -107.6289599 Eh     change       -0.7568232E-08 Eh
 * total energy  :  -107.6452329 Eh     change       -0.1627300E-01 Eh
 * total energy  :  -107.6505262 Eh     change       -0.5293296E-02 Eh
 * total energy  :  -107.6515222 Eh     change       -0.9960331E-03 Eh
 * total energy  :  -107.6520434 Eh     change       -0.5211905E-03 Eh
 * total energy  :  -107.6522187 Eh     change       -0.1753433E-03 Eh
 * total energy  :  -107.6523212 Eh     change       -0.1024682E-03 Eh
 * total energy  :  -107.6523785 Eh     change       -0.5733821E-04 Eh
 * total energy  :  -107.6524310 Eh     change       -0.5243501E-04 Eh
 * total energy  :  -107.6524564 Eh     change       -0.2540076E-04 Eh
 * total energy  :  -107.6530759 Eh     change       -0.6047852E-06 Eh
 * total energy  :  -107.6530764 Eh     change       -0.4469419E-06 Eh
 * total energy  :  -107.6530768 Eh     change       -0.3915647E-06 Eh
 * total energy  :  -107.6530772 Eh     change       -0.4318939E-06 Eh
 * total energy  :  -107.6530776 Eh     change       -0.4211302E-06 Eh
 * total energy  :  -107.6530780 Eh     change       -0.4017385E-06 Eh
 * total energy  :  -107.6530784 Eh     change       -0.3838903E-06 Eh
 * total energy  :  -107.6530788 Eh     change       -0.3315932E-06 Eh
 * total energy  :  -107.6530788 Eh     change       -0.3097711E-08 Eh
   *** GEOMETRY OPTIMIZATION CONVERGED AFTER 68 ITERATIONS ***

 final structure:
================
72
 xtb: 6.7.1 (edcfbbe)
C           -7.29076536326727        3.38448155984804       -0.84194739847247
C           -7.75561825019286        2.13595736798204       -1.22158995268417
C           -7.02836872882050        0.99897561603010       -0.92838897058524
C           -5.82042779776901        1.09577158018743       -0.23785156626136
N           -5.08172213010446       -0.05376959788483        0.06405902859129
C           -5.74117652259152       -1.23629662478002        0.41771236690737
C           -6.89792329181576       -1.19539610139608        1.19589585825741
C           -7.54718712787564       -2.36491080895078        1.53979631355241
C           -7.05349774723887       -3.59070710512414        1.12419354615314
C           -5.90283977594256       -3.63732369411504        0.35432378707570
C           -5.25124895856876       -2.47288310748357       -0.00210427577570
C           -3.68469156074838       -0.02019052004266        0.01418697572947
C           -3.02694128152657        0.73384044924730       -0.95803860332731
C           -1.64852276607903        0.77330265289867       -0.99732235498768
C           -0.88660829898701        0.05137658426291       -0.08272465991956
C            0.58902892472092        0.09247070033035       -0.13105267080017
C            1.26514092051771        1.27226157891739        0.21193045565598
C            0.57009937733483        2.43444590791674        0.63822964367967
C            1.23645182267087        3.56895719399543        0.98506722566934
C            2.64424504883686        3.60774710701258        0.94152818023178
C            3.34918768126270        2.51096841818127        0.55218996875449
C            2.69329774344329        1.31195450034729        0.16718132031270
C            3.41146330780258        0.17225932651003       -0.22167861956973
C            4.88764137575123        0.22083858059898       -0.27593660673577
C            5.52259810827136        1.00065138534506       -1.26653649677619
C            6.88408145773451        1.05933316309806       -1.34146867879436
C            7.69135680725437        0.34668381544254       -0.42963433533269
C            9.09973927909473        0.38735422956031       -0.47933302200305
C            9.85065892756788       -0.31670079076500        0.41981657055037
C            9.22736133666748       -1.09344027537112        1.40934562645267
C            7.86426204471735       -1.15337677844130        1.48383865744452
C            7.06068139654514       -0.43844709253151        0.57088336410589
C            5.65328076935214       -0.48213148071256        0.62058351072554
C            2.73618477022382       -1.00754123331299       -0.56535848613318
C            3.43120155539975       -2.16952559824544       -0.99290810805672
C            2.76469508607152       -3.30457185949438       -1.33760082383104
C            1.35702570345360       -3.34444299792332       -1.29056291364258
C            0.65246308854330       -2.24785618241680       -0.90031472254639
C            1.30772792747108       -1.04771665881817       -0.51818900401198
C           -1.54561348436270       -0.70815287743545        0.88006835000949
C           -2.92367518065350       -0.73935897975910        0.93615815827649
C           -5.35972210315203        2.35491083789978        0.14660107384136
C           -6.08987937270071        3.48669618532325       -0.15908514809532
H           -7.86014472662284        4.27103256878839       -1.07637043922534
H           -8.68843586470995        2.04660274684855       -1.75883355870576
H           -7.38832978236378        0.02755711476115       -1.23455048946932
H           -7.27947714378181       -0.24152275755373        1.52982220144293
H           -8.44083215774227       -2.31879199237757        2.14480347055119
H           -7.56173467592891       -4.50271797812438        1.39814878398221
H           -5.51361624177036       -4.58811566894159        0.02066341812686
H           -4.36031192715574       -2.51171790307669       -0.61177883417641
H           -3.60566549487871        1.28658049611712       -1.68354928956276
H           -1.14969203075960        1.35756232273927       -1.75716678190903
H           -0.50791660046290        2.39899811179945        0.69054691594037
H            0.69265900374653        4.44510933440206        1.30703578610063
H            3.15822455415946        4.51271205684562        1.23098660055966
H            4.42884598894846        2.53558042519896        0.53866423314616
H            4.90800791948136        1.54485300350284       -1.96951096248017
H            7.36490052022940        1.65521989298187       -2.10459498828695
H            9.57460236149750        0.98675218235849       -1.24341590656713
H           10.92950420919685       -0.28116578145468        0.37616266860761
H            9.83662192634166       -1.64355087118216        2.11176125773467
H            7.37940653250936       -1.75021827578492        2.24352430725695
H            5.17512613045686       -1.07778988016068        1.38614965715548
H            4.50917062959377       -2.13462855593877       -1.04760373290126
H            3.30872467262414       -4.18019415382640       -1.66048253025815
H            0.84328047703458       -4.25021143460727       -1.57808224484378
H           -0.42700039336405       -2.27224338322285       -0.88308524279604
H           -0.96619681288909       -1.26477795074926        1.60255588190325
H           -3.42184152184216       -1.31975688357877        1.69890174828980
H           -4.42913241529883        2.43694082876805        0.68904913868954
H           -5.72219085455623        4.45540400953948        0.14628436806592

          :  Hamiltonian                  GFN2-xTB          :
         :: gradient norm              0.000039103863 Eh/a0 ::
         :: HOMO-LUMO gap              1.894093814848 eV    ::
         :: SCC energy              -109.748979583446 Eh    ::
         :: -> dispersion             -0.100910262004 Eh    ::
         :: repulsion energy           2.095900824793 Eh    ::

    * Orbital Energies and Occupations

         #    Occupation            Energy/Eh            Energy/eV
      -------------------------------------------------------------
         1        2.0000           -0.6638793             -18.0651
       ...           ...                  ...                  ...
        89        2.0000           -0.4129071             -11.2358
        90        2.0000           -0.4079431             -11.1007
        91        2.0000           -0.4068204             -11.0701
        92        2.0000           -0.4042213             -10.9994
        93        2.0000           -0.4041740             -10.9981
        94        2.0000           -0.4026418             -10.9564
        95        2.0000           -0.4001366             -10.8883
        96        2.0000           -0.3990055             -10.8575
        97        2.0000           -0.3962850             -10.7835
        98        2.0000           -0.3950843             -10.7508
        99        2.0000           -0.3770154             -10.2591
       100        2.0000           -0.3567284              -9.7071
       101        2.0000           -0.3468691              -9.4388 (HOMO)
       102                         -0.2772625              -7.5447 (LUMO)
       103                         -0.2576521              -7.0111
       104                         -0.2298071              -6.2534
       105                         -0.2295215              -6.2456
       106                         -0.2283280              -6.2131
       107                         -0.2271117              -6.1800
       108                         -0.2265182              -6.1639
       109                         -0.2211967              -6.0191
       110                         -0.2207794              -6.0077
       111                         -0.2172389              -5.9114
       112                         -0.1945855              -5.2949
       ...                                ...                  ...
       201                          0.7191445              19.5689
      -------------------------------------------------------------
                  HL-Gap            0.0696067 Eh            1.8941 eV

     #   Z          covCN         q      C6AA      α(0)
     1   6 C        2.919    -0.039    28.959     8.825
     2   6 C        2.920    -0.029    28.731     8.790
     3   6 C        2.922    -0.048    29.184     8.859
     4   6 C        2.924     0.065    26.538     8.448
     5   7 N        2.752    -0.076    22.723     7.080
     6   6 C        2.924     0.065    26.538     8.448
     7   6 C        2.922    -0.048    29.184     8.859
     8   6 C        2.920    -0.029    28.731     8.790
     9   6 C        2.919    -0.039    28.958     8.825
    10   6 C        2.920    -0.029    28.733     8.790
    11   6 C        2.922    -0.047    29.179     8.858
    12   6 C        2.924     0.063    26.590     8.456
    13   6 C        2.921    -0.049    29.219     8.864
    14   6 C        2.923    -0.033    28.814     8.803
    15   6 C        2.976     0.007    27.860     8.658
    16   6 C        2.977    -0.006    28.159     8.704
    17   6 C        2.984     0.006    27.888     8.663
    18   6 C        2.917    -0.035    28.859     8.809
    19   6 C        2.914    -0.031    28.762     8.794
    20   6 C        2.914    -0.030    28.761     8.794
    21   6 C        2.917    -0.034    28.858     8.809
    22   6 C        2.984     0.006    27.877     8.661
    23   6 C        2.978    -0.007    28.189     8.709
    24   6 C        2.973     0.015    27.681     8.630
    25   6 C        2.920    -0.033    28.813     8.802
    26   6 C        2.916    -0.037    28.908     8.817
    27   6 C        2.987     0.011    27.770     8.644
    28   6 C        2.918    -0.035    28.872     8.811
    29   6 C        2.916    -0.031    28.765     8.795
    30   6 C        2.916    -0.030    28.750     8.793
    31   6 C        2.918    -0.035    28.880     8.813
    32   6 C        2.986     0.012    27.741     8.640
    33   6 C        2.923    -0.040    28.995     8.830
    34   6 C        2.983     0.006    27.878     8.661
    35   6 C        2.917    -0.035    28.867     8.810
    36   6 C        2.914    -0.030    28.760     8.794
    37   6 C        2.914    -0.031    28.762     8.794
    38   6 C        2.918    -0.035    28.861     8.810
    39   6 C        2.984     0.006    27.886     8.662
    40   6 C        2.924    -0.033    28.814     8.803
    41   6 C        2.921    -0.049    29.219     8.864
    42   6 C        2.922    -0.047    29.179     8.858
    43   6 C        2.920    -0.029    28.733     8.790
    44   1 H        0.926     0.030     2.589     2.516
    45   1 H        0.926     0.031     2.571     2.507
    46   1 H        0.926     0.031     2.568     2.506
    47   1 H        0.926     0.031     2.568     2.506
    48   1 H        0.926     0.031     2.571     2.507
    49   1 H        0.926     0.030     2.589     2.516
    50   1 H        0.926     0.031     2.571     2.507
    51   1 H        0.926     0.031     2.578     2.511
    52   1 H        0.926     0.032     2.558     2.501
    53   1 H        0.926     0.032     2.559     2.502
    54   1 H        0.926     0.030     2.581     2.512
    55   1 H        0.926     0.027     2.622     2.532
    56   1 H        0.926     0.028     2.619     2.531
    57   1 H        0.926     0.031     2.572     2.508
    58   1 H        0.926     0.030     2.586     2.515
    59   1 H        0.926     0.030     2.579     2.512
    60   1 H        0.926     0.030     2.592     2.518
    61   1 H        0.926     0.029     2.606     2.524
    62   1 H        0.926     0.029     2.604     2.523
    63   1 H        0.926     0.030     2.586     2.515
    64   1 H        0.925     0.030     2.583     2.513
    65   1 H        0.926     0.031     2.572     2.508
    66   1 H        0.926     0.028     2.619     2.531
    67   1 H        0.926     0.027     2.622     2.532
    68   1 H        0.926     0.030     2.580     2.512
    69   1 H        0.926     0.032     2.558     2.501
    70   1 H        0.926     0.032     2.558     2.501
    71   1 H        0.926     0.031     2.579     2.511
    72   1 H        0.926     0.031     2.571     2.508

molecular dipole:
                 x           y           z       tot (Debye)
 q only:       -0.087       0.005      -0.006
   full:       -0.087       0.007      -0.005       0.223

 projected vibrational frequencies (cm⁻¹)
eigval :       -0.00    -0.00     0.00     0.00     0.00     0.00
eigval :       10.88    12.16    14.99    25.95    35.72    39.75
eigval :       47.21    54.02    66.42    69.76    71.40    79.80
eigval :       98.10   109.92   133.83   134.73   163.58   166.01
eigval :      182.06   184.85   197.85   212.57   233.17   238.01
eigval :      291.24   293.01   319.52   320.26   350.64   351.98
eigval :      365.87   377.67   378.24   386.85   388.98   393.77
eigval :      401.90   411.41   415.58   446.00   447.56   450.50
eigval :      459.07   484.97   486.33   491.00   497.07   510.09
eigval :      544.62   569.86   580.15   582.31   584.84   588.62
eigval :      590.03   597.17   604.30   611.79   632.06   646.89
eigval :      650.99   659.91   665.64   686.05   691.70   693.48
eigval :      724.46   729.49   739.95   756.67   757.38   760.81
eigval :      774.00   775.89   795.24   814.92   818.37   835.10
eigval :      871.94   873.41   874.30   874.98   875.67   877.58
eigval :      885.60   886.74   891.06   891.50   897.94   898.78
eigval :      910.19   914.54   916.04   917.73   919.88   924.24
eigval :      927.07   927.42   928.16   928.41   928.70   929.10
eigval :      929.73   930.88   932.56   943.21   986.75   995.41
eigval :     1005.04  1027.98  1079.32  1082.04  1082.81  1083.33
eigval :     1084.29  1121.93  1124.21  1135.27  1136.59  1139.10
eigval :     1146.82  1173.55  1179.25  1180.76  1180.81  1181.72
eigval :     1183.34  1187.73  1190.27  1194.21  1195.79  1208.32
eigval :     1224.17  1228.09  1228.71  1235.11  1258.60  1259.56
eigval :     1263.64  1270.78  1278.64  1281.97  1310.57  1315.50
eigval :     1321.08  1323.90  1326.78  1328.77  1331.38  1350.58
eigval :     1359.49  1381.96  1385.10  1398.66  1407.82  1418.83
eigval :     1426.71  1429.92  1436.37  1441.35  1443.87  1459.60
eigval :     1472.77  1477.22  1482.20  1497.44  1501.81  1527.24
eigval :     1529.86  1542.54  1555.90  1561.55  1577.24  1581.26
eigval :     1595.45  1595.88  1602.02  1606.51  1608.78  1611.48
eigval :     1622.93  3066.09  3067.39  3069.46  3071.62  3072.62
eigval :     3072.66  3075.20  3075.47  3075.88  3076.49  3076.77
eigval :     3077.76  3079.28  3079.49  3079.83  3082.09  3085.52
eigval :     3086.22  3087.99  3089.10  3089.21  3089.33  3089.67
eigval :     3089.94  3090.37  3093.41  3094.41  3097.04  3097.52

   temp. (K)  partition function   enthalpy   heat capacity  entropy
                                   cal/mol     cal/K/mol   cal/K/mol   J/K/mol
 298.15  VIB  0.193E+16            19545.063    125.834    121.423
         ROT  0.655E+08              888.752      2.981     38.745
         INT  0.126E+24            20433.815    128.814    160.169
         TR   0.124E+29             1481.254      4.968     44.767
         TOT                       21915.0689   133.7826   204.9355   857.4500

       T/K    H(0)-H(T)+PV         H(T)/Eh          T*S/Eh         G(T)/Eh
   ------------------------------------------------------------------------
    298.15    0.349239E-01    0.596525E+00    0.973715E-01    0.499153E+00
   ------------------------------------------------------------------------

         :::::::::::::::::::::::::::::::::::::::::::::::::::::
         ::                  THERMODYNAMIC                  ::
         :::::::::::::::::::::::::::::::::::::::::::::::::::::
         :: total free energy        -107.153925290682 Eh   ::
         ::.................................................::
         :: total energy             -107.653078758652 Eh   ::
         :: zero point energy           0.561601041979 Eh   ::
         :: G(RRHO) w/o ZPVE           -0.062447574008 Eh   ::
         :: G(RRHO) contrib.            0.499153467970 Eh   ::
         :::::::::::::::::::::::::::::::::::::::::::::::::::::

           -------------------------------------------------
          | TOTAL ENERGY             -107.653078758652 Eh   |
          | TOTAL ENTHALPY           -107.056553831402 Eh   |
          | TOTAL FREE ENERGY        -107.153925290682 Eh   |
          | GRADIENT NORM               0.000039099607 Eh/α |
          | HOMO-LUMO GAP               1.894093629342 eV   |
           -------------------------------------------------

 * finished run on 2025/08/30 at 16:38:48.573
