   * xtb version 6.7.1 (edcfbbe) compiled by 'albert@albert-system' on 2024-07-22

   ID    Z sym.   atoms
    1    6 C      1-31, 33-61, 63-67
    2    7 N      32, 62
    3    1 H      68-131

          program call               : xtb data2507/gas/C3FLA-2/C3FLA-2_gas_T1_crest.xyz --gfn 2 --spinpol --tblite --uhf 2 --ohess vtight --parallel 40 --molden --ceasefiles --namespace data2507/gas/C3FLA-2/C3FLA-2_gas_T1_finalOpt
 * total energy  :  -177.5544637 Eh     change       -0.1714650E-07 Eh
 * total energy  :  -177.5544758 Eh     change       -0.1203238E-04 Eh
 * total energy  :  -177.5544791 Eh     change       -0.3344813E-05 Eh
 * total energy  :  -177.5544770 Eh     change        0.2070627E-05 Eh
 * total energy  :  -177.5544803 Eh     change       -0.3264561E-05 Eh
 * total energy  :  -177.5544795 Eh     change        0.8364703E-06 Eh
 * total energy  :  -177.5544820 Eh     change       -0.2571595E-05 Eh
 * total energy  :  -177.5544828 Eh     change       -0.7039920E-06 Eh
 * total energy  :  -177.5544827 Eh     change        0.5415180E-07 Eh
 * total energy  :  -177.5544852 Eh     change       -0.2491413E-05 Eh
 * total energy  :  -177.5545249 Eh     change       -0.1938176E-07 Eh
 * total energy  :  -177.5545250 Eh     change       -0.5808167E-07 Eh
 * total energy  :  -177.5545253 Eh     change       -0.2533213E-06 Eh
 * total energy  :  -177.5545253 Eh     change       -0.2088143E-09 Eh
 * total energy  :  -177.5545255 Eh     change       -0.2167565E-06 Eh
 * total energy  :  -177.5545255 Eh     change        0.1886198E-07 Eh
 * total energy  :  -177.5545254 Eh     change        0.7373197E-07 Eh
 * total energy  :  -177.5545254 Eh     change       -0.2851411E-07 Eh
 * total energy  :  -177.5545255 Eh     change       -0.9928729E-07 Eh
   *** GEOMETRY OPTIMIZATION CONVERGED AFTER 61 ITERATIONS ***

 final structure:
================
131
 xtb: 6.7.1 (edcfbbe)
C           -0.71021430185826        4.34025023184896        1.42638096367337
C            0.43613176623123        3.88567570216343        0.53018212037117
C            0.26177224958389        2.46013135430077        0.00620992774904
C            0.36427100581070        1.40665296781037        1.10730978526951
C            0.24999677442430       -0.03003250761096        0.56624787115573
C            0.35229016903666       -1.03009825193873        1.73341456120530
C            0.24280989889182       -2.48453699757752        1.28182725676723
C            0.34414956129114       -3.45082299269724        2.45917743285377
C            0.23289770038286       -4.90178386496698        2.00838279972111
C            1.29399874177820       -0.31472276798806       -0.48845880937265
C            2.64777392181293       -0.27850432126682       -0.38091728703487
C            3.44324165981796       -0.59515891892685       -1.51671256421897
C            4.82009956311052       -0.55705298517142       -1.43979259746429
C            6.04102052528988       -0.51806194669747       -1.38066720638533
C            7.42526944191004       -0.46876292543137       -1.31952363943790
C            8.19653797830071       -0.86048881181984       -2.43664739905187
C            9.56810101681210       -0.81880374605826       -2.39845383228380
C           10.20028431053991       -0.37550398530156       -1.23594696714146
C            9.43709787604681        0.02360116246613       -0.11452990690451
C            8.07173457547491       -0.02235684579570       -0.14368465188490
C           10.34347030419645        0.47236603191082        1.00806149485817
C           10.10362160694681        1.95210342539931        1.36190050095048
C           10.26908344342486        2.88962449072949        0.16761182956322
C           10.01943921195739        4.33948000952788        0.56326561106090
C           10.15658868926187       -0.39401788045981        2.26676082724710
C           10.37730397804648       -1.88293380110347        2.00834001792197
C           10.18073348204684       -2.69987703339746        3.27913604432971
C           11.70888321658686        0.26994132561799        0.39568400998553
C           12.94074417711083        0.50556541439255        0.95083706975027
C           14.08466458322658        0.24153144495966        0.18199704170498
C           15.36007661128085        0.47624410466615        0.73291166132818
N           16.39712790455879        0.66931524667648        1.18663611412443
C           13.97295053079781       -0.25138355482392       -1.12413309434726
C           12.73322589029656       -0.48651843055784       -1.67931186295811
C           11.59486048441292       -0.22637639149585       -0.92031822186079
C            2.80847247607082       -0.94852012064395       -2.73962194533971
C            1.44961808492599       -0.97724683161382       -2.84869946388028
C            0.66175506630799       -0.65672807357955       -1.72379547829762
C           -0.73574135146952       -0.59774399551623       -1.55805714999133
C           -1.78821383522002       -0.82989154741884       -2.46758710213107
C           -3.07673336063865       -0.68948125293541       -2.04427741293417
C           -3.37705403295337       -0.31854956366400       -0.70425538878910
C           -4.68952751762971       -0.18055282970098       -0.30271010373942
C           -5.85289808108411       -0.05582852884823        0.05333356616281
C           -7.17560026559491        0.08286575275574        0.44481735467766
C           -7.49189687918762        0.40587120059808        1.78332582968773
C           -8.79651535349827        0.54362671188737        2.18780949060671
C           -9.81818524292054        0.36343718093040        1.25431693172867
C           -9.51149008154682        0.04433183257747       -0.08869148559650
C           -8.21535801014748       -0.09811172128331       -0.49668269455506
C          -10.77773571961539       -0.09147820929452       -0.90164399633032
C          -10.82862101648526        0.94852802859938       -2.03641234604633
C          -10.69616730018939        2.38656809180818       -1.53936785372633
C          -10.74841643732271        3.37837942465702       -2.69457313545926
C          -10.91913882454415       -1.50560729838511       -1.49371135877104
C          -10.87967409200040       -2.60592720790404       -0.43535448265274
C          -11.01937486011610       -3.98549436741332       -1.06637939482662
C          -11.83754080639291        0.17966339710167        0.13927700379761
C          -13.20097887147685        0.19241054413867       -0.00910508445684
C          -13.99533472424602        0.47398071208772        1.11300460369135
C          -15.39811958995027        0.49189361786040        0.98289034954967
N          -16.54093740966062        0.50532299413126        0.87135822115000
C          -13.41036836334542        0.73690999751940        2.35806965258666
C          -12.03958768547987        0.72370546617544        2.50364254981419
C          -11.24675002562215        0.44447842981415        1.39315408050216
C           -2.31492892535832       -0.08952897119496        0.21363969891126
C           -1.03146248881479       -0.22504195877841       -0.21040643301857
H           -0.74225436917907        3.76337710422159        2.34700857675522
H           -1.66226742434696        4.22414932025889        0.91273550488037
H           -0.58905205534829        5.38831124963612        1.69059099610091
H            0.50251160784645        4.56189928667423       -0.32524058117014
H            1.37795463844262        3.95649068848424        1.07932327515468
H            1.03299899365644        2.26434258108005       -0.74319592587491
H           -0.70862781043858        2.37573517318511       -0.48879086529572
H            1.32248629988253        1.51468176342199        1.62060948764861
H           -0.42917377712773        1.56121241696871        1.83964862018678
H            1.30816207958301       -0.88123573457289        2.24090535212919
H           -0.44309758285382       -0.81537602720619        2.45084690978555
H           -0.71189909787283       -2.63662129944570        0.77253499557396
H            1.03833027438210       -2.70464255415836        0.56580209303975
H           -0.45092340977049       -3.23176317780113        3.17581734338435
H            1.29924847843757       -3.30129851475704        2.96820827717785
H            1.02864979781204       -5.14479231348607        1.30752717760029
H           -0.72118018235186       -5.07507010819480        1.51527343179978
H            0.30707721741950       -5.57488546746396        2.85928605454755
H            3.14171598721437       -0.01746974258345        0.54368952095592
H            7.68145261705268       -1.19748467065820       -3.32438563456913
H           10.15026220709886       -1.12292253470948       -3.25563603263853
H            7.47291441478191        0.27739291889403        0.70395964391014
H           10.80491836050409        2.24388702828286        2.14695562477587
H            9.09277051131396        2.05699029445035        1.76262113231301
H            9.56943826525377        2.60226389067437       -0.62068195717004
H           11.27992251010472        2.79233748667454       -0.23492894635491
H            9.00933644086218        4.46226776907515        0.94847689942668
H           10.14073242840364        4.99534817482398       -0.29535367270242
H           10.72058152658464        4.65148949399378        1.33435493298080
H           10.85651023226282       -0.05528507595309        3.03399071650133
H            9.14470414490711       -0.24249013680423        2.64955493072106
H           11.38921358144299       -2.04074516787726        1.62829419919594
H            9.67831772176425       -2.22702489400581        1.24249045845291
H           10.88262385499327       -2.38480903037386        4.04831821631919
H            9.17098394619643       -2.57194175104914        3.66363273255477
H           10.34091742711237       -3.75698940058856        3.08184950453679
H           13.04986586435084        0.88580069403149        1.95616602478179
H           14.87311932486675       -0.44430269093999       -1.68950046003494
H           12.64836197727928       -0.86645751695957       -2.68623780390871
H            3.43580795963942       -1.18926543776107       -3.58563851177327
H            0.97517922644343       -1.24110629450906       -3.78212241612584
H           -1.56836696385581       -1.11273287584986       -3.48626765595983
H           -3.90182970141555       -0.85862439794224       -2.72097913434316
H           -6.68194331292919        0.54062854730688        2.48532408795503
H           -9.02988127731232        0.78841318221126        3.21341341460318
H           -7.96249303603203       -0.34287523359344       -1.51798042589593
H          -10.02150958857885        0.73716808808885       -2.74160292938955
H          -11.77489791510842        0.83938424097364       -2.57110454328878
H          -11.50344825988027        2.60522935080413       -0.83662356261401
H           -9.75075942603128        2.50124599189524       -1.00407368383151
H          -11.69226301721076        3.29347289280281       -3.22886239318177
H          -10.65350835907688        4.39724301949034       -2.32711513939572
H           -9.93897598928750        3.19037627629458       -3.39688231210070
H          -11.86375166457251       -1.56578780668396       -2.03899323823792
H          -10.11062870515545       -1.66797711184895       -2.21018780436699
H          -11.68908942505452       -2.45109355403358        0.28175216515446
H           -9.93625958210842       -2.55023454726355        0.11269541767948
H          -11.96324464442430       -4.06731082255814       -1.60113234194076
H          -10.20995223297895       -4.16773136894521       -1.77023744777915
H          -10.99027218954002       -4.75905250095347       -0.30293484439684
H          -13.67290481428249       -0.00739867576161       -0.96016367789681
H          -14.04999059798799        0.95008218062586        3.20222689349055
H          -11.58992175026298        0.92655539334137        3.46391682224711
H           -2.55633612360172        0.19145572836509        1.22841927766049

 projected vibrational frequencies (cm⁻¹)
eigval :       -0.00    -0.00    -0.00    -0.00     0.00     0.00
eigval :        3.10     5.34     7.32     9.74    10.39    13.79
eigval :       20.23    21.55    26.05    39.29    40.49    40.82
eigval :       41.74    48.40    49.58    52.67    54.88    56.61
eigval :       58.13    59.12    64.13    67.51    69.11    70.45
eigval :       70.69    74.20    77.43    80.47    86.42    87.52
eigval :       98.20   101.70   105.48   110.33   113.59   118.22
eigval :      120.55   141.06   143.29   153.40   156.22   167.46
eigval :      173.21   188.46   190.30   202.71   204.45   209.90
eigval :      216.54   221.72   222.00   224.73   226.94   230.44
eigval :      234.65   236.26   237.44   244.36   249.31   253.80
eigval :      254.19   263.96   265.28   266.56   284.87   285.20
eigval :      300.80   304.46   304.77   305.71   316.87   331.01
eigval :      335.42   339.28   340.07   358.02   366.37   379.58
eigval :      381.75   403.17   406.81   413.09   425.06   426.53
eigval :      431.28   436.40   436.43   438.76   443.13   444.11
eigval :      458.95   459.05   473.10   484.67   489.69   508.22
eigval :      509.09   513.84   514.22   547.42   552.62   560.78
eigval :      565.45   566.34   567.63   571.86   572.22   581.88
eigval :      582.93   588.13   589.40   608.01   621.29   624.14
eigval :      635.97   636.37   664.50   683.20   704.17   707.90
eigval :      712.94   712.98   717.22   717.23   718.96   724.03
eigval :      726.29   733.81   736.05   774.56   781.53   781.56
eigval :      784.75   791.87   795.22   805.33   813.77   814.69
eigval :      815.65   820.37   826.89   826.93   827.33   851.25
eigval :      858.90   861.37   862.65   863.58   867.21   876.70
eigval :      876.74   885.38   889.99   894.62   894.67   904.78
eigval :      906.55   906.73   907.48   908.69   909.85   909.93
eigval :      925.08   930.44   930.44   930.59   934.62   943.70
eigval :      951.21   960.11   960.17   969.49   970.14   977.76
eigval :      991.21   996.83  1005.72  1010.87  1017.64  1028.25
eigval :     1028.42  1067.86  1079.99  1080.00  1086.66  1086.68
eigval :     1090.32  1091.86  1093.36  1096.87  1096.89  1097.88
eigval :     1102.39  1110.11  1113.06  1114.11  1118.13  1128.67
eigval :     1132.49  1137.29  1137.33  1138.23  1138.67  1142.04
eigval :     1142.94  1144.46  1148.64  1154.77  1157.03  1158.46
eigval :     1183.79  1184.73  1186.27  1202.91  1203.76  1210.30
eigval :     1214.52  1218.96  1220.65  1221.13  1226.25  1230.82
eigval :     1231.89  1231.89  1237.68  1241.10  1248.29  1250.15
eigval :     1257.56  1263.44  1266.50  1270.47  1271.42  1276.82
eigval :     1278.69  1278.71  1279.33  1284.56  1285.43  1285.46
eigval :     1292.52  1297.27  1298.34  1298.66  1303.34  1307.15
eigval :     1311.04  1312.18  1326.49  1327.11  1331.15  1334.28
eigval :     1339.00  1340.46  1341.15  1352.34  1355.59  1356.52
eigval :     1356.54  1366.10  1371.09  1371.61  1376.02  1391.88
eigval :     1398.10  1408.74  1416.00  1416.27  1416.28  1416.39
eigval :     1416.43  1416.45  1423.32  1439.69  1441.96  1443.57
eigval :     1445.60  1447.42  1465.31  1476.50  1477.67  1479.71
eigval :     1479.78  1482.98  1486.20  1486.88  1489.12  1490.23
eigval :     1490.85  1495.64  1496.60  1497.66  1497.68  1498.25
eigval :     1498.50  1498.61  1503.44  1503.72  1504.37  1504.38
eigval :     1504.44  1504.46  1505.35  1505.36  1505.49  1505.60
eigval :     1505.70  1506.75  1510.81  1511.27  1522.42  1524.06
eigval :     1550.46  1556.84  1568.59  1577.95  1592.20  1594.67
eigval :     1599.86  2070.77  2209.56  2351.08  2354.16  2956.68
eigval :     2959.23  2959.28  2959.99  2961.22  2961.22  2962.14
eigval :     2964.40  2969.97  2972.48  2972.57  2974.21  2974.26
eigval :     2974.39  2974.45  2974.49  2975.17  2976.14  2979.04
eigval :     2979.08  2980.81  2981.74  2984.18  2984.34  2984.88
eigval :     2986.52  2986.64  2992.36  3029.59  3029.65  3029.82
eigval :     3029.85  3030.90  3031.25  3033.19  3033.23  3033.48
eigval :     3033.58  3033.61  3034.99  3038.90  3041.00  3041.06
eigval :     3041.24  3041.38  3044.66  3076.23  3077.86  3078.12
eigval :     3078.49  3080.61  3081.26  3081.71  3081.85  3082.20
eigval :     3082.25  3083.36  3083.47  3088.49  3089.75  3089.97
eigval :     3091.00  3093.40  3093.73

   temp. (K)  partition function   enthalpy   heat capacity  entropy
                                   cal/mol     cal/K/mol   cal/K/mol   J/K/mol
 298.15  VIB  0.114E+37            40641.035    232.414    266.931
         ROT  0.400E+09              888.752      2.981     42.340
         INT  0.456E+45            41529.787    235.395    309.271
         TR   0.250E+29             1481.254      4.968     46.156
         TOT                       43011.0412   240.3635   355.4273  1487.1080

       T/K    H(0)-H(T)+PV         H(T)/Eh          T*S/Eh         G(T)/Eh
   ------------------------------------------------------------------------
    298.15    0.685425E-01    0.114789E+01    0.168875E+00    0.979016E+00
   ------------------------------------------------------------------------

         :::::::::::::::::::::::::::::::::::::::::::::::::::::
         ::                  THERMODYNAMIC                  ::
         :::::::::::::::::::::::::::::::::::::::::::::::::::::
         :: total free energy        -176.575509502533 Eh   ::
         ::.................................................::
         :: total energy             -177.554525612552 Eh   ::
         :: zero point energy           1.079348647554 Eh   ::
         :: G(RRHO) w/o ZPVE           -0.100332537534 Eh   ::
         :: G(RRHO) contrib.            0.979016110019 Eh   ::
         :::::::::::::::::::::::::::::::::::::::::::::::::::::

           -------------------------------------------------
          | TOTAL ENERGY             -177.554525612552 Eh   |
          | TOTAL ENTHALPY           -176.406634507857 Eh   |
          | TOTAL FREE ENERGY        -176.575509502533 Eh   |
          | GRADIENT NORM               0.000103937635 Eh/α |
           -------------------------------------------------

 * finished run on 2025/09/06 at 05:55:12.738
