   * xtb version 6.7.1 (edcfbbe) compiled by 'albert@albert-system' on 2024-07-22

   ID    Z sym.   atoms
    1    6 C      1-31, 33-61, 63-67
    2    7 N      32, 62
    3    1 H      68-131

          program call               : xtb data2507/gas/C3FLA-2/C3FLA-2.xyz --gfn 2 --ohess vtight --parallel 40 --molden --ceasefiles --namespace data2507/gas/C3FLA-2/C3FLA-2_gas_S0_preOpt
          :  Hamiltonian                  GFN2-xTB          :
 * total energy  :  -177.5890341 Eh     change       -0.9995290E-08 Eh
 * total energy  :  -177.6004777 Eh     change       -0.1144366E-01 Eh
 * total energy  :  -177.6031389 Eh     change       -0.2661129E-02 Eh
 * total energy  :  -177.6037972 Eh     change       -0.6583915E-03 Eh
 * total energy  :  -177.6040008 Eh     change       -0.2035823E-03 Eh
 * total energy  :  -177.6042569 Eh     change       -0.2560259E-03 Eh
 * total energy  :  -177.6044470 Eh     change       -0.1901118E-03 Eh
 * total energy  :  -177.6046349 Eh     change       -0.1879108E-03 Eh
 * total energy  :  -177.6048763 Eh     change       -0.2414461E-03 Eh
 * total energy  :  -177.6050768 Eh     change       -0.2004795E-03 Eh
 * total energy  :  -177.6099272 Eh     change        0.1570086E-06 Eh
 * total energy  :  -177.6099276 Eh     change       -0.3701722E-06 Eh
 * total energy  :  -177.6099275 Eh     change        0.1075974E-06 Eh
 * total energy  :  -177.6099278 Eh     change       -0.2559586E-06 Eh
 * total energy  :  -177.6099279 Eh     change       -0.1267009E-06 Eh
 * total energy  :  -177.6099281 Eh     change       -0.2107688E-06 Eh
 * total energy  :  -177.6099283 Eh     change       -0.2239955E-06 Eh
 * total energy  :  -177.6099285 Eh     change       -0.1554742E-06 Eh
 * total energy  :  -177.6099285 Eh     change       -0.5721648E-07 Eh
   *** GEOMETRY OPTIMIZATION CONVERGED AFTER 682 ITERATIONS ***

 final structure:
================
131
 xtb: 6.7.1 (edcfbbe)
C            0.12132496760455        5.73726514219359       -0.54167606793713
C           -0.96209149420426        4.83771191639920       -1.12619045013852
C           -1.20787910262381        3.57257953844669       -0.29992629663242
C           -0.06796242481486        2.56685823110712       -0.43752590894907
C           -0.14008585841611        1.32476270033667        0.47438280812343
C           -0.24171615228806        1.65275380869786        1.97862656501789
C            0.83769209261256        2.56832203834714        2.54873856075311
C            0.55193326941720        2.90849389817690        4.01066274205672
C            1.62922981114783        3.81125187691775        4.59914565937041
C            1.05227410788527        0.44493874426982        0.15070655933587
C            2.39362188650229        0.74134667546186        0.21094196801734
C            3.32651955712729       -0.23614305062348       -0.16118809127934
C            4.70321274138121        0.05301979440511       -0.08792197125568
C            5.88203585350227        0.31140440475420       -0.01697038912421
C            7.25749049333268        0.60379312121098        0.06323009166015
C            7.68347935521144        1.79819334262120        0.65573390983444
C            9.02723921710289        2.09863349056068        0.75210255328853
C            9.95222980754399        1.19484685331004        0.24888878273141
C            9.53125929060067       -0.00248253999526       -0.35224916202700
C            8.19396776353465       -0.30285283264565       -0.45061319174308
C           10.71767188504780       -0.79338433254041       -0.86136704699670
C           10.75419049221059       -2.21938533332743       -0.29453585256749
C           10.70962037883485       -2.24709587999750        1.23243674868554
C           10.76270905548736       -3.67439581051045        1.76248152888739
C           10.62528435525655       -0.79267528670269       -2.40584923039912
C           11.82028406327212       -1.37467748132814       -3.15545805565934
C           11.55629430807236       -1.39277504940392       -4.65703599309508
C           11.87181337545700        0.04969929649464       -0.37012546397586
C           13.22188991581891       -0.20608372233096       -0.42777724956482
C           14.10827342568380        0.74583023387089        0.09183032705484
C           15.49732873657688        0.49964946843847        0.03471262629053
N           16.62507503653836        0.29535260338986       -0.01620421557852
C           13.63922993412471        1.92956185395087        0.66663995552675
C           12.28163858297920        2.16946818323102        0.75137660818045
C           11.40084337755372        1.22672941638861        0.24061759808994
C            2.89775659463749       -1.49040144448555       -0.60700560370473
C            1.55120869722213       -1.77810451190773       -0.69804629841709
C            0.63094756338529       -0.80935023022746       -0.32352626626219
C           -0.81617617438137       -0.83473955386302       -0.34053092051005
C           -1.69268624935854       -1.84507018058571       -0.71009283084419
C           -3.05047064236317       -1.62018811697512       -0.61045874903021
C           -3.53388832531922       -0.40000431327973       -0.12730728811210
C           -4.92194535698908       -0.18786560662267       -0.01579533380900
C           -6.11200011066099        0.00354671611240        0.07658087112543
C           -7.50009859180808        0.21782341420647        0.18277792192603
C           -7.98573440157332        1.47202598325640        0.56808271642507
C           -9.34351264419930        1.70132225515908        0.65273601014009
C          -10.21771936477443        0.66107751136102        0.37040989132751
C           -9.73993526156401       -0.61125238885974        0.01272577631557
C           -8.38689129943869       -0.82802227691010       -0.10608621981481
C          -10.89067630634202       -1.56223062424550       -0.25536544319754
C          -10.78817009914362       -2.02461017642787       -1.72355242955456
C          -11.87973628742475       -2.96768328373316       -2.22223050316657
C          -11.57597446294029       -3.43757556513553       -3.64075177061783
C          -10.95704245162860       -2.71579851000215        0.76746219923340
C           -9.81861034489500       -3.73131061400914        0.72429645756475
C          -10.07358927507641       -4.86525492389169        1.71134857310337
C          -12.08383062374870       -0.65984986649305       -0.00856466809422
C          -13.42538486703725       -0.96284737586313       -0.04021549035980
C          -14.35134780026328        0.04767252109626        0.24720112433154
C          -15.73117588140120       -0.24815843195795        0.20312517315271
N          -16.85112111632228       -0.49372146942044        0.16412662422198
C          -13.93158925344876        1.33759765674946        0.58089369125901
C          -12.58404000408705        1.63085996449228        0.64654687614905
C          -11.66506832596900        0.63188503350713        0.35688901136820
C           -2.64517947853434        0.61546749249300        0.25102223041073
C           -1.29257507500913        0.40427940911160        0.12164745567676
H            0.20660685632602        6.65161695943685       -1.12444187392540
H            1.09078599631312        5.24527254133325       -0.54823354229608
H           -0.12176097348226        6.00823882695271        0.48399244435820
H           -1.89450899934004        5.40503281160303       -1.17701663804286
H           -0.69192309990067        4.55664394188641       -2.14657765887654
H           -2.13466557786025        3.11177839014707       -0.64456678709920
H           -1.33672496005062        3.85867533734176        0.74494186221236
H           -0.03667518568352        2.21427933788426       -1.47288086419698
H            0.88032166627096        3.06665242739797       -0.23930099962492
H           -1.21869679635718        2.10505563956744        2.16170558563569
H           -0.22159647407222        0.70424020872348        2.52368951144812
H            1.80945784889465        2.07701080865738        2.48898699506662
H            0.88654279703850        3.49612340196076        1.97685260420501
H            0.49394590627213        1.98547754130924        4.59215035934400
H           -0.41799156512627        3.40642571004240        4.08526139917160
H            1.69071965458447        4.74509086492593        4.04393162361430
H            2.60075294406461        3.32351166321918        4.55614449271574
H            1.40873982308345        4.04450808945161        5.63815903789988
H            2.75351410286986        1.70886541735605        0.52688405331721
H            6.94211895613820        2.48277420315409        1.04134309802915
H            9.34994816890194        3.02048421751949        1.21276948356571
H            7.85009843108012       -1.21952611742882       -0.90709287187869
H           11.66575337274541       -2.71728314878869       -0.62878906581600
H            9.90328513201637       -2.77875709728231       -0.68975083784556
H            9.79356350184945       -1.76394311456530        1.57973833774046
H           11.55418978271513       -1.67983445584926        1.63082261056087
H           11.68017410252411       -4.16630448646638        1.44621792473187
H            9.91874076162831       -4.25172895286900        1.39074643311166
H           10.72894786624645       -3.67949795551837        2.84918487136503
H            9.72839451837089       -1.35180307304665       -2.68362558533065
H           10.48067079285900        0.24097396603904       -2.73354675962631
H           12.01703581148720       -2.39352237050547       -2.81825243341248
H           12.70772356787310       -0.77112313061657       -2.96004331079516
H           12.41468263760289       -1.79537256505382       -5.18934872039136
H           10.68979963427479       -2.00915336596275       -4.88723518220119
H           11.36677989626678       -0.38620255658438       -5.02359009683161
H           13.61413776885036       -1.12065808920991       -0.84647603420435
H           14.34947932340527        2.64508721082672        1.05449235589366
H           11.91492666436477        3.07302676692596        1.21454196373618
H            3.63593644651667       -2.22729688540559       -0.88841522318869
H            1.22053079876945       -2.74049100410091       -1.05965827254065
H           -1.31984822817376       -2.79414583483775       -1.06583190122159
H           -3.75552996757750       -2.38772211664870       -0.89490605024738
H           -7.28190643629516        2.26207566945494        0.78541955501144
H           -9.71816697481739        2.67551500023068        0.92970746906711
H           -7.98465962094584       -1.77780780128832       -0.42418435200705
H          -10.78692924344020       -1.12847136584440       -2.35132657653714
H           -9.81906501274528       -2.50970233300493       -1.85645911530836
H          -11.95378250509125       -3.83834455528033       -1.56916163575822
H          -12.84214301772580       -2.45503009254186       -2.22114852428686
H          -12.36289308808014       -4.09613892994531       -4.00064235094086
H          -11.50360382362471       -2.58855585287342       -4.31710370842519
H          -10.63349479300105       -3.98057430452464       -3.67271837209518
H          -10.98769765851436       -2.26870443103991        1.76566327876992
H          -11.90219219975769       -3.24322824378155        0.62316088956992
H           -8.87832515778440       -3.24383329403828        0.98327555692299
H           -9.72444077733761       -4.14924826027218       -0.27896583035830
H          -10.16276159936949       -4.47744994266217        2.72385598510066
H          -10.99421945062920       -5.39039338990328        1.46501124340580
H           -9.25508427124348       -5.58097431329029        1.68955108750932
H          -13.78589144377440       -1.95398231134172       -0.27004941870033
H          -14.67134907754475        2.09454110039634        0.79665915421947
H          -12.25324951414365        2.62050187084509        0.92318127754713
H           -3.04619392384628        1.53729501607731        0.64432130712067

          :  Hamiltonian                  GFN2-xTB          :
         :: gradient norm              0.000126131287 Eh/a0 ::
         :: HOMO-LUMO gap              2.132158098201 eV    ::
         :: SCC energy              -180.928336669602 Eh    ::
         :: -> dispersion             -0.158578810612 Eh    ::
         :: repulsion energy           3.318408135579 Eh    ::

    * Orbital Energies and Occupations

         #    Occupation            Energy/Eh            Energy/eV
      -------------------------------------------------------------
         1        2.0000           -0.6702967             -18.2397
       ...           ...                  ...                  ...
       155        2.0000           -0.4156527             -11.3105
       156        2.0000           -0.4151005             -11.2955
       157        2.0000           -0.4140727             -11.2675
       158        2.0000           -0.4096266             -11.1465
       159        2.0000           -0.4092526             -11.1363
       160        2.0000           -0.4079110             -11.0998
       161        2.0000           -0.4075548             -11.0901
       162        2.0000           -0.4035268             -10.9805
       163        2.0000           -0.4031529             -10.9703
       164        2.0000           -0.4007414             -10.9047
       165        2.0000           -0.3956740             -10.7668
       166        2.0000           -0.3802791             -10.3479
       167        2.0000           -0.3664143              -9.9706 (HOMO)
       168                         -0.2880589              -7.8385 (LUMO)
       169                         -0.2822206              -7.6796
       170                         -0.2653735              -7.2212
       171                         -0.2455162              -6.6808
       172                         -0.2385919              -6.4924
       173                         -0.2382595              -6.4834
       174                         -0.2306528              -6.2764
       175                         -0.2301711              -6.2633
       176                         -0.2288826              -6.2282
       177                         -0.2250961              -6.1252
       178                         -0.2248075              -6.1173
       ...                                ...                  ...
       332                          1.4267553              38.8240
      -------------------------------------------------------------
                  HL-Gap            0.0783554 Eh            2.1322 eV

     #   Z          covCN         q      C6AA      α(0)
     1   6 C        3.751    -0.100    22.470     6.760
     2   6 C        3.800    -0.053    21.531     6.607
     3   6 C        3.801    -0.058    21.615     6.619
     4   6 C        3.808    -0.053    21.525     6.604
     5   6 C        3.932     0.009    20.354     6.412
     6   6 C        3.808    -0.052    21.508     6.602
     7   6 C        3.802    -0.059    21.634     6.622
     8   6 C        3.801    -0.052    21.510     6.603
     9   6 C        3.752    -0.102    22.507     6.765
    10   6 C        3.051    -0.001    28.001     8.678
    11   6 C        2.924    -0.036    28.885     8.814
    12   6 C        2.973     0.033    27.250     8.563
    13   6 C        1.984    -0.040    32.135     9.155
    14   6 C        1.983    -0.044    32.227     9.168
    15   6 C        2.973     0.037    27.169     8.550
    16   6 C        2.929    -0.033    28.824     8.805
    17   6 C        2.912    -0.032    28.803     8.800
    18   6 C        3.036    -0.002    28.043     8.686
    19   6 C        3.058     0.001    27.949     8.670
    20   6 C        2.923    -0.035    28.868     8.811
    21   6 C        3.935     0.010    20.349     6.411
    22   6 C        3.807    -0.056    21.575     6.612
    23   6 C        3.800    -0.049    21.456     6.595
    24   6 C        3.752    -0.102    22.516     6.767
    25   6 C        3.811    -0.054    21.526     6.604
    26   6 C        3.800    -0.052    21.514     6.604
    27   6 C        3.753    -0.103    22.526     6.768
    28   6 C        3.050     0.004    27.879     8.660
    29   6 C        2.923    -0.027    28.669     8.781
    30   6 C        2.975     0.012    27.731     8.638
    31   6 C        1.913     0.110    28.371     8.602
    32   7 N        0.911    -0.242    26.326     7.421
    33   6 C        2.928    -0.024    28.611     8.772
    34   6 C        2.913    -0.033    28.812     8.802
    35   6 C        3.038     0.007    27.826     8.652
    36   6 C        2.929    -0.033    28.814     8.803
    37   6 C        2.912    -0.034    28.843     8.807
    38   6 C        3.037    -0.000    28.000     8.679
    39   6 C        3.037    -0.000    28.000     8.679
    40   6 C        2.912    -0.034    28.844     8.807
    41   6 C        2.929    -0.033    28.815     8.803
    42   6 C        2.973     0.033    27.248     8.562
    43   6 C        1.984    -0.041    32.140     9.155
    44   6 C        1.984    -0.044    32.232     9.168
    45   6 C        2.973     0.037    27.174     8.551
    46   6 C        2.929    -0.033    28.813     8.803
    47   6 C        2.912    -0.032    28.803     8.801
    48   6 C        3.037    -0.002    28.040     8.685
    49   6 C        3.051     0.000    27.973     8.674
    50   6 C        2.924    -0.036    28.886     8.814
    51   6 C        3.931     0.010    20.351     6.411
    52   6 C        3.809    -0.054    21.538     6.606
    53   6 C        3.800    -0.052    21.514     6.604
    54   6 C        3.753    -0.102    22.513     6.766
    55   6 C        3.809    -0.054    21.528     6.605
    56   6 C        3.800    -0.053    21.519     6.605
    57   6 C        3.753    -0.102    22.515     6.766
    58   6 C        3.052     0.002    27.939     8.669
    59   6 C        2.924    -0.028    28.689     8.784
    60   6 C        2.975     0.013    27.723     8.637
    61   6 C        1.914     0.111    28.368     8.602
    62   7 N        0.911    -0.242    26.319     7.420
    63   6 C        2.928    -0.024    28.609     8.772
    64   6 C        2.913    -0.033    28.811     8.802
    65   6 C        3.037     0.007    27.833     8.653
    66   6 C        2.924    -0.036    28.891     8.815
    67   6 C        3.051    -0.001    28.006     8.679
    68   1 H        0.925     0.032     2.559     2.501
    69   1 H        0.925     0.032     2.556     2.500
    70   1 H        0.925     0.033     2.540     2.492
    71   1 H        0.924     0.029     2.598     2.521
    72   1 H        0.924     0.029     2.594     2.519
    73   1 H        0.924     0.031     2.567     2.506
    74   1 H        0.924     0.037     2.490     2.468
    75   1 H        0.924     0.028     2.611     2.527
    76   1 H        0.925     0.041     2.431     2.438
    77   1 H        0.924     0.036     2.504     2.474
    78   1 H        0.924     0.028     2.608     2.526
    79   1 H        0.924     0.034     2.527     2.486
    80   1 H        0.924     0.037     2.484     2.465
    81   1 H        0.924     0.028     2.614     2.528
    82   1 H        0.924     0.027     2.629     2.536
    83   1 H        0.925     0.033     2.538     2.491
    84   1 H        0.925     0.034     2.536     2.490
    85   1 H        0.925     0.034     2.536     2.490
    86   1 H        0.926     0.032     2.561     2.503
    87   1 H        0.926     0.033     2.538     2.491
    88   1 H        0.926     0.031     2.566     2.505
    89   1 H        0.926     0.032     2.558     2.501
    90   1 H        0.924     0.038     2.482     2.464
    91   1 H        0.924     0.037     2.492     2.468
    92   1 H        0.924     0.029     2.595     2.519
    93   1 H        0.924     0.027     2.630     2.536
    94   1 H        0.925     0.035     2.515     2.480
    95   1 H        0.925     0.035     2.519     2.482
    96   1 H        0.925     0.035     2.511     2.478
    97   1 H        0.924     0.039     2.468     2.457
    98   1 H        0.924     0.032     2.558     2.501
    99   1 H        0.924     0.033     2.548     2.496
   100   1 H        0.924     0.034     2.532     2.488
   101   1 H        0.925     0.037     2.486     2.466
   102   1 H        0.925     0.035     2.523     2.484
   103   1 H        0.925     0.034     2.524     2.484
   104   1 H        0.926     0.040     2.451     2.448
   105   1 H        0.926     0.039     2.467     2.456
   106   1 H        0.926     0.037     2.495     2.470
   107   1 H        0.926     0.031     2.572     2.508
   108   1 H        0.926     0.030     2.589     2.516
   109   1 H        0.926     0.030     2.588     2.516
   110   1 H        0.926     0.031     2.572     2.508
   111   1 H        0.926     0.034     2.537     2.491
   112   1 H        0.926     0.031     2.565     2.505
   113   1 H        0.926     0.034     2.529     2.487
   114   1 H        0.924     0.031     2.578     2.511
   115   1 H        0.924     0.040     2.447     2.446
   116   1 H        0.924     0.035     2.513     2.479
   117   1 H        0.924     0.033     2.547     2.496
   118   1 H        0.925     0.036     2.501     2.473
   119   1 H        0.925     0.034     2.532     2.488
   120   1 H        0.925     0.033     2.545     2.495
   121   1 H        0.924     0.030     2.580     2.512
   122   1 H        0.924     0.039     2.466     2.456
   123   1 H        0.924     0.034     2.526     2.485
   124   1 H        0.924     0.035     2.515     2.480
   125   1 H        0.925     0.034     2.532     2.488
   126   1 H        0.925     0.034     2.536     2.490
   127   1 H        0.925     0.035     2.514     2.480
   128   1 H        0.926     0.039     2.462     2.454
   129   1 H        0.926     0.039     2.462     2.453
   130   1 H        0.926     0.037     2.490     2.468
   131   1 H        0.926     0.032     2.557     2.501

molecular dipole:
                 x           y           z       tot (Debye)
 q only:        0.043       0.015      -0.139
   full:        0.020       0.257      -0.087       0.692

 projected vibrational frequencies (cm⁻¹)
eigval :       -0.00    -0.00    -0.00     0.00     0.00     0.00
eigval :        3.09     4.19     5.16     5.66    11.96    13.82
eigval :       22.25    23.68    31.99    34.52    35.37    39.07
eigval :       44.82    45.76    49.12    51.35    53.11    56.07
eigval :       56.25    58.39    61.26    63.97    67.66    72.42
eigval :       73.67    79.58    82.14    83.42    87.54    91.56
eigval :       96.99   104.04   110.15   112.30   119.65   124.33
eigval :      127.46   150.14   155.73   162.72   168.04   170.99
eigval :      181.39   186.12   190.21   194.44   204.08   211.35
eigval :      217.67   225.75   227.33   234.09   235.61   236.19
eigval :      238.02   239.10   240.47   254.99   261.05   269.12
eigval :      270.98   276.67   280.58   281.65   285.77   291.84
eigval :      302.92   305.01   307.28   310.94   317.77   324.18
eigval :      333.24   334.78   357.48   361.40   365.35   368.20
eigval :      394.72   405.76   409.44   415.70   422.66   428.55
eigval :      430.73   433.59   436.82   440.54   441.99   469.89
eigval :      473.78   474.56   476.02   478.22   491.04   496.16
eigval :      507.31   512.78   516.05   548.46   555.77   565.14
eigval :      567.79   584.49   586.18   593.02   596.30   599.64
eigval :      600.55   603.71   614.61   618.63   623.26   633.41
eigval :      648.31   659.78   681.24   692.71   693.66   697.90
eigval :      703.90   723.95   726.37   727.87   734.30   740.89
eigval :      745.42   746.60   754.05   778.89   784.28   784.85
eigval :      787.44   789.76   799.41   813.59   820.02   821.11
eigval :      822.62   826.24   831.92   834.00   834.38   853.62
eigval :      874.84   877.33   878.13   885.29   886.09   887.17
eigval :      889.35   889.92   891.99   897.48   901.50   908.97
eigval :      909.84   909.98   911.42   912.21   912.34   919.39
eigval :      929.68   936.39   941.18   943.50   946.68   949.35
eigval :      956.16   961.85   970.44   983.46   996.63   997.34
eigval :      997.38  1000.23  1006.28  1015.74  1021.73  1029.80
eigval :     1068.59  1071.46  1074.46  1087.78  1088.01  1090.71
eigval :     1090.97  1091.51  1094.41  1106.67  1106.95  1111.99
eigval :     1113.96  1118.65  1122.02  1126.59  1127.69  1128.07
eigval :     1134.89  1141.82  1143.74  1147.06  1151.57  1152.03
eigval :     1154.04  1155.41  1158.02  1159.67  1169.88  1172.22
eigval :     1176.45  1185.24  1188.30  1195.73  1207.72  1212.70
eigval :     1216.06  1220.70  1222.16  1225.22  1231.07  1232.77
eigval :     1238.85  1242.43  1246.72  1248.61  1250.77  1256.18
eigval :     1261.32  1264.05  1265.69  1276.77  1279.37  1283.43
eigval :     1285.66  1286.13  1287.48  1288.75  1289.29  1289.77
eigval :     1295.40  1299.68  1303.64  1304.17  1308.50  1309.69
eigval :     1314.51  1323.82  1325.40  1326.08  1332.75  1333.31
eigval :     1348.14  1353.31  1357.26  1362.89  1365.76  1366.89
eigval :     1367.37  1367.55  1368.31  1372.21  1380.04  1417.17
eigval :     1417.19  1417.37  1417.41  1417.90  1418.23  1419.59
eigval :     1420.27  1422.89  1426.39  1436.05  1437.43  1438.90
eigval :     1440.76  1452.12  1457.80  1479.54  1482.74  1484.75
eigval :     1485.11  1486.94  1487.87  1490.14  1492.09  1493.55
eigval :     1494.86  1494.89  1498.04  1499.85  1499.86  1501.46
eigval :     1502.23  1504.34  1504.90  1504.96  1505.10  1505.30
eigval :     1506.02  1506.21  1506.98  1507.10  1507.27  1508.21
eigval :     1512.72  1559.17  1560.91  1562.71  1572.88  1575.22
eigval :     1577.18  1582.17  1584.54  1588.09  1596.87  1600.19
eigval :     1602.90  2310.22  2311.02  2369.38  2369.64  2952.87
eigval :     2953.67  2953.84  2954.36  2954.67  2961.54  2963.36
eigval :     2965.63  2971.16  2975.54  2975.80  2978.62  2979.51
eigval :     2980.75  2981.11  2981.99  2984.94  2988.84  2989.78
eigval :     2990.18  2990.87  2991.37  2994.82  2995.81  2999.25
eigval :     2999.97  3001.62  3002.95  3026.82  3028.51  3028.88
eigval :     3029.62  3029.73  3030.86  3032.53  3033.21  3033.62
eigval :     3033.71  3034.00  3034.34  3038.78  3039.41  3040.26
eigval :     3041.02  3041.46  3042.49  3076.59  3078.92  3079.03
eigval :     3079.25  3083.00  3083.85  3084.15  3088.60  3089.80
eigval :     3090.55  3090.91  3091.08  3091.69  3092.67  3092.89
eigval :     3094.24  3094.84  3095.18

   temp. (K)  partition function   enthalpy   heat capacity  entropy
                                   cal/mol     cal/K/mol   cal/K/mol   J/K/mol
 298.15  VIB  0.116E+37            40213.008    230.167    264.406
         ROT  0.449E+09              888.752      2.981     42.573
         INT  0.520E+45            41101.760    233.148    306.979
         TR   0.250E+29             1481.254      4.968     46.156
         TOT                       42583.0143   238.1163   353.1354  1477.5184

       T/K    H(0)-H(T)+PV         H(T)/Eh          T*S/Eh         G(T)/Eh
   ------------------------------------------------------------------------
    298.15    0.678604E-01    0.115299E+01    0.167786E+00    0.985201E+00
   ------------------------------------------------------------------------

         :::::::::::::::::::::::::::::::::::::::::::::::::::::
         ::                  THERMODYNAMIC                  ::
         :::::::::::::::::::::::::::::::::::::::::::::::::::::
         :: total free energy        -176.624727516968 Eh   ::
         ::.................................................::
         :: total energy             -177.609928534008 Eh   ::
         :: zero point energy           1.085126678707 Eh   ::
         :: G(RRHO) w/o ZPVE           -0.099925661666 Eh   ::
         :: G(RRHO) contrib.            0.985201017041 Eh   ::
         :::::::::::::::::::::::::::::::::::::::::::::::::::::

           -------------------------------------------------
          | TOTAL ENERGY             -177.609928534008 Eh   |
          | TOTAL ENTHALPY           -176.456941502450 Eh   |
          | TOTAL FREE ENERGY        -176.624727516968 Eh   |
          | GRADIENT NORM               0.000126188988 Eh/α |
          | HOMO-LUMO GAP               2.132157772388 eV   |
           -------------------------------------------------

 * finished run on 2025/09/05 at 15:48:15.665
