   * xtb version 6.7.1 (edcfbbe) compiled by 'albert@albert-system' on 2024-07-22

   ID    Z sym.   atoms
    1    6 C      1-31, 33-61, 63-67
    2    7 N      32, 62
    3    1 H      68-131

          program call               : xtb data2507/gas/C3FLA-2/C3FLA-2_gas_S0_finalOpt.xtbopt.xyz --gfn 2 --spinpol --tblite --uhf 2 --ohess vtight --parallel 40 --molden --ceasefiles --namespace data2507/gas/C3FLA-2/C3FLA-2_gas_T1_preOpt
 * total energy  :  -177.5475977 Eh     change       -0.2041847E-07 Eh
 * total energy  :  -177.5527929 Eh     change       -0.5195213E-02 Eh
 * total energy  :  -177.5542674 Eh     change       -0.1474484E-02 Eh
 * total energy  :  -177.5543422 Eh     change       -0.7478607E-04 Eh
 * total energy  :  -177.5542966 Eh     change        0.4560826E-04 Eh
 * total energy  :  -177.5543907 Eh     change       -0.9406236E-04 Eh
 * total energy  :  -177.5544016 Eh     change       -0.1089753E-04 Eh
 * total energy  :  -177.5544131 Eh     change       -0.1159409E-04 Eh
 * total energy  :  -177.5544019 Eh     change        0.1128239E-04 Eh
 * total energy  :  -177.5544267 Eh     change       -0.2486065E-04 Eh
 * total energy  :  -177.5544616 Eh     change       -0.1084497E-05 Eh
 * total energy  :  -177.5544629 Eh     change       -0.1243691E-05 Eh
 * total energy  :  -177.5544640 Eh     change       -0.1177385E-05 Eh
 * total energy  :  -177.5544651 Eh     change       -0.1089785E-05 Eh
 * total energy  :  -177.5544666 Eh     change       -0.1518409E-05 Eh
 * total energy  :  -177.5544681 Eh     change       -0.1416593E-05 Eh
 * total energy  :  -177.5544693 Eh     change       -0.1231675E-05 Eh
 * total energy  :  -177.5544705 Eh     change       -0.1213691E-05 Eh
 * total energy  :  -177.5544705 Eh     change       -0.7588596E-11 Eh
   *** GEOMETRY OPTIMIZATION CONVERGED AFTER 44 ITERATIONS ***

 final structure:
================
131
 xtb: 6.7.1 (edcfbbe)
C           -0.67443145907583        3.96854943356786        2.72198690842566
C            0.45239055714335        3.83487711766384        1.70397144101403
C            0.25945447111986        2.66214373842357        0.74241246977055
C            0.36796548574537        1.30446042697801        1.43347436511787
C            0.24591608729234        0.12722836492019        0.44964583348602
C            0.34982768087611       -1.20278046613573        1.22062786487501
C            0.23449797103618       -2.42588259355815        0.31384330862713
C            0.33742227867277       -3.72799639813117        1.10372391538764
C            0.21959119522662       -4.94670980378840        0.19717644465691
C            1.28411250311494        0.20182051350313       -0.64559048286873
C            2.63814090346369        0.18875602502681       -0.53917936521581
C            3.42848725753257        0.25442011118532       -1.72026675111565
C            4.80501527130492        0.23045087373615       -1.63921577762684
C            6.02564619743266        0.20075460126767       -1.56569276226192
C            7.40839293787828        0.15823392106382       -1.48028639698819
C            8.19325792236408        0.18123190517238       -2.65513143337871
C            9.56336570353397        0.12846358727735       -2.59097018011991
C           10.18105877538465        0.05299342227339       -1.34158039287757
C            9.40447035164916        0.03529452140362       -0.15985041759945
C            8.04041911789716        0.08595210352802       -0.21690750278670
C           10.29660148781399       -0.04509669990970        1.05695476698358
C           10.12650276556209        1.19093775865267        1.95974335394924
C           10.38455966358185        2.50752385365238        1.22999839802616
C           10.20457270415667        3.70039006097585        2.16038531873764
C           10.02088141516797       -1.32042307207594        1.87428465495165
C           10.16631967945658       -2.60126332493259        1.05529933255588
C            9.87952949361090       -3.83482839767973        1.90208623719439
C           11.66823046844038       -0.07941760602618        0.42631700329707
C           12.89211094279990       -0.15657142303957        1.04043527073014
C           14.04458774960353       -0.17428766927022        0.23977962397501
C           15.31196195590767       -0.25414277754725        0.85001294515408
N           16.34249614990194       -0.31951907159099        1.35241567904594
C           13.94901246503320       -0.11386616491943       -1.15623263502064
C           12.71731963829328       -0.03591897491307       -1.77030658083634
C           11.57039122739395       -0.01859186821739       -0.98022097914868
C            2.78758237333594        0.33700706110784       -2.98756311749103
C            1.42821367095665        0.35217660179422       -3.09306468900064
C            0.64550872816896        0.28331186499504       -1.92178139351572
C           -0.75123995231623        0.27673265202479       -1.73908064792542
C           -1.80929657060393        0.32997958382964       -2.66988844592172
C           -3.09574192165807        0.30288172915598       -2.21799717310442
C           -3.38797161800855        0.23210415515664       -0.82808465760816
C           -4.69737842618449        0.20635750630012       -0.39353993028570
C           -5.85472743479863        0.17822366030853        0.00002367912721
C           -7.16923466524569        0.14145465350547        0.44051320452005
C           -7.45548084573573        0.19600850366929        1.82270957816741
C           -8.75019512419837        0.16331681205535        2.27826472191530
C           -9.79110971456760        0.06543629953452        1.35415646430223
C           -9.51426724261166        0.00136495320181       -0.03083707948116
C           -8.22831458066967        0.04418666970142       -0.49116652339524
C          -10.79660995808988       -0.12049998484548       -0.82050077198418
C          -10.97904850971842        1.05910071560969       -1.79232369266060
C          -10.94653623800809        2.41886389759938       -1.09787827181462
C          -11.12939913512051        3.55435533665516       -2.09694987442441
C          -10.84317106263821       -1.44532045165843       -1.60518837180879
C          -10.67019614254102       -2.67590554940001       -0.71724445687466
C          -10.71985539727366       -3.96021513734498       -1.53516469290526
C          -11.83291683941521       -0.09910524011085        0.27766103497020
C          -13.19832215691916       -0.17152367996363        0.16924841652622
C          -13.96723647495423       -0.13541646683731        1.34258208860618
C          -15.37159889093859       -0.20788096944248        1.25420651498726
N          -16.51576217039587       -0.26745151505918        1.17680585481426
C          -13.35568753788521       -0.02873976432968        2.59793435362890
C          -11.98298036538523        0.04281064470544        2.70336593870266
C          -11.21545131545754        0.00795298504790        1.54187777761349
C           -2.32042716766315        0.18112413951874        0.11015328220165
C           -1.03936448151496        0.19606677030080       -0.34163240583465
H           -0.69271647353143        3.12073400441225        3.40188948525754
H           -1.63651353019573        4.02766306300790        2.21740381273753
H           -0.54206917461952        4.87127077350913        3.31402265142085
H            0.50794201510527        4.75549681992065        1.11847482119978
H            1.40436901508199        3.72014047132311        2.22760598107182
H            1.01929455560985        2.72167251943826       -0.04107875427419
H           -0.71797120949842        2.74843458058372        0.26175029616252
H            1.33057631049468        1.23714615802152        1.94553792051727
H           -0.41915965772849        1.20854217702717        2.18249031148224
H            1.30805497763251       -1.23138982264500        1.74439805445139
H           -0.44228570713101       -1.23622732409488        1.97219399893287
H           -0.72257209523571       -2.39955632983014       -0.21273075584550
H            1.02659056656099       -2.39778691700870       -0.43834678394263
H           -0.45414735029871       -3.75779505116419        1.85618063770296
H            1.29502863682948       -3.75760757218623        1.62885827872294
H            1.01158181206684       -4.94435958475511       -0.54863633685657
H           -0.73710120422663       -4.94466805693090       -0.32069929731756
H            0.29511772637052       -5.86442780336536        0.77568727869498
H            3.13660945340814        0.12597686941174        0.41716199971447
H            7.68949121020645        0.23878472800910       -3.60899238287542
H           10.15579730850420        0.14408824150392       -3.49371144873867
H            7.43138096171277        0.07140915835418        0.67516255432501
H           10.81532368791116        1.10736284994450        2.80344318787208
H            9.10976762249683        1.19569377147989        2.35928891300190
H            9.69649210587344        2.59714160418004        0.38617824434708
H           11.40115683313709        2.50950244886861        0.83022024739480
H            9.19069110832841        3.72884073943565        2.55409145726482
H           10.39202854543062        4.63023210453915        1.62902771320529
H           10.89589443436929        3.63933132176395        2.99818180166239
H           10.71318745522012       -1.35370500118648        2.71859184513794
H            9.00704688238745       -1.26579453859309        2.27748101163571
H           11.18038159988219       -2.66408574993190        0.65402407849124
H            9.47621520365705       -2.57254960339793        0.20887502560166
H           10.57014423968589       -3.89172723884286        2.74074505325693
H            8.86545407896885       -3.80157420974560        2.29496551185794
H            9.98728997438799       -4.73896588954928        1.30794686926683
H           12.98873302789207       -0.20390767135613        2.11541879268304
H           14.85538216345080       -0.12954196992018       -1.74394475824865
H           12.64495703498534        0.01041004818405       -2.84643955386482
H            3.41063713415240        0.38715762632362       -3.86878451829213
H            0.94926281019558        0.41521502731765       -4.05880670311363
H           -1.59557878035343        0.38924739316009       -3.72671002895818
H           -3.92477496760044        0.33948271958679       -2.90987790401357
H           -6.63068479500870        0.26910117898221        2.51651814591708
H           -8.96076814453170        0.21070158875235        3.33639727632879
H           -7.99823209010816       -0.00090406029875       -1.54565383516018
H          -10.18643493064066        1.02064482542867       -2.54310380874007
H          -11.93364116497120        0.94347704559810       -2.31062971638417
H          -11.73943610513192        2.46402468089724       -0.34778219332685
H           -9.99260946640549        2.54005167880303       -0.57938725222432
H          -12.08416489327666        3.46161890816467       -2.61016118273599
H          -11.10500363036408        4.51608852783388       -1.59044806900075
H          -10.33697772993256        3.53912073863061       -2.84235900278147
H          -11.80056827964846       -1.51114053352511       -2.12701728771790
H          -10.05290983742087       -1.43352562819391       -2.35933497407448
H          -11.46030312791030       -2.69537582464039        0.03688856393502
H           -9.71348796003697       -2.61546890365788       -0.19329060783894
H          -11.67411020694235       -4.04895414085806       -2.04997496365798
H           -9.92651915311253       -3.97038917257862       -2.27966057605787
H          -10.59642810058225       -4.82742936924438       -0.89108212656737
H          -13.69063522706274       -0.25466732448353       -0.78880363701348
H          -13.97618656623707       -0.00340123776000        3.48196138653567
H          -11.51266596904387        0.12505440364192        3.67162041004028
H           -2.55585940117882        0.12372374924488        1.16290148059006

 projected vibrational frequencies (cm⁻¹)
eigval :       -0.00    -0.00    -0.00     0.00     0.00     0.00
eigval :        2.66     5.03     6.35     9.37     9.97    13.50
eigval :       20.24    21.39    25.82    39.14    40.30    40.58
eigval :       42.13    47.86    49.39    52.30    54.45    56.43
eigval :       57.60    58.51    63.88    66.84    68.62    69.56
eigval :       71.11    74.03    77.02    80.11    86.41    87.35
eigval :       98.27   101.32   105.27   110.15   113.46   118.08
eigval :      120.30   140.70   143.01   153.26   155.73   167.65
eigval :      173.20   188.71   190.37   202.51   204.48   209.62
eigval :      216.35   221.56   221.79   224.77   226.57   230.60
eigval :      234.25   235.99   237.27   244.22   249.24   253.47
eigval :      254.34   263.64   265.03   266.60   284.73   285.01
eigval :      300.64   304.37   304.66   305.42   316.55   330.94
eigval :      335.37   339.09   339.98   357.69   366.29   379.43
eigval :      381.72   402.98   406.61   413.02   424.90   426.53
eigval :      431.01   436.10   436.27   438.71   442.97   443.79
eigval :      458.47   458.96   472.95   484.58   489.80   508.14
eigval :      509.05   513.58   514.20   547.37   552.36   560.69
eigval :      565.16   566.48   567.45   571.72   572.16   581.71
eigval :      582.88   587.97   589.29   607.94   621.20   624.06
eigval :      635.85   636.32   664.30   683.08   704.14   707.75
eigval :      712.78   712.99   717.07   717.26   718.84   723.80
eigval :      726.36   733.73   735.97   774.11   781.12   781.13
eigval :      784.48   791.50   794.87   804.61   813.16   813.84
eigval :      814.98   820.22   826.13   826.35   827.10   851.15
eigval :      858.25   860.55   861.88   862.23   867.89   875.83
eigval :      875.99   885.18   889.75   894.22   894.24   903.96
eigval :      905.82   905.94   906.67   908.97   909.10   909.26
eigval :      924.72   930.10   930.17   930.18   934.41   943.47
eigval :      950.83   959.79   959.83   969.25   969.83   977.69
eigval :      991.06   996.61  1005.76  1010.54  1017.36  1027.99
eigval :     1028.34  1067.48  1079.73  1079.75  1086.23  1086.25
eigval :     1090.05  1091.59  1092.93  1096.56  1096.60  1097.51
eigval :     1102.14  1109.74  1112.77  1113.73  1117.83  1128.03
eigval :     1131.94  1136.94  1137.06  1137.92  1138.25  1141.66
eigval :     1142.58  1143.97  1148.19  1154.15  1156.52  1157.88
eigval :     1183.52  1184.51  1186.11  1202.69  1203.48  1209.92
eigval :     1214.22  1218.54  1220.30  1220.75  1225.78  1230.36
eigval :     1231.40  1231.41  1237.29  1240.75  1247.84  1249.71
eigval :     1257.01  1263.06  1266.08  1270.06  1271.10  1276.11
eigval :     1278.01  1278.02  1279.01  1284.07  1284.88  1284.91
eigval :     1292.25  1296.48  1297.66  1297.95  1302.69  1306.63
eigval :     1311.32  1311.78  1326.48  1327.12  1330.66  1334.12
eigval :     1338.90  1339.87  1341.38  1351.86  1355.62  1355.99
eigval :     1356.01  1365.43  1370.42  1370.94  1375.40  1391.89
eigval :     1397.87  1408.39  1414.94  1415.29  1415.32  1415.41
eigval :     1415.45  1415.48  1423.23  1439.46  1441.92  1443.50
eigval :     1445.38  1447.49  1465.13  1476.15  1476.82  1478.78
eigval :     1478.81  1482.45  1485.78  1486.09  1488.29  1489.76
eigval :     1489.92  1494.52  1495.72  1496.58  1496.66  1497.10
eigval :     1497.42  1497.53  1502.35  1502.97  1503.04  1503.05
eigval :     1503.10  1503.44  1504.35  1504.41  1504.44  1504.55
eigval :     1504.70  1505.86  1509.90  1511.22  1522.41  1524.22
eigval :     1550.45  1556.92  1568.59  1578.11  1592.16  1594.78
eigval :     1600.19  2071.45  2209.59  2350.94  2354.08  2956.65
eigval :     2959.03  2959.11  2959.68  2961.00  2961.04  2962.10
eigval :     2964.17  2969.55  2972.26  2972.31  2973.76  2973.85
eigval :     2974.11  2974.23  2974.24  2974.98  2975.80  2978.58
eigval :     2978.64  2980.33  2981.24  2983.70  2983.84  2984.44
eigval :     2986.02  2986.11  2991.78  3029.27  3029.30  3029.47
eigval :     3029.58  3030.51  3030.95  3032.79  3032.85  3033.12
eigval :     3033.21  3033.23  3034.52  3038.36  3040.42  3040.57
eigval :     3040.76  3040.82  3043.96  3075.97  3077.63  3077.93
eigval :     3078.20  3080.48  3081.04  3081.47  3081.60  3081.96
eigval :     3082.04  3083.21  3083.28  3088.28  3089.56  3089.84
eigval :     3090.66  3093.22  3093.54

   temp. (K)  partition function   enthalpy   heat capacity  entropy
                                   cal/mol     cal/K/mol   cal/K/mol   J/K/mol
 298.15  VIB  0.203E+37            40667.362    232.416    267.561
         ROT  0.399E+09              888.752      2.981     42.338
         INT  0.812E+45            41556.114    235.397    309.899
         TR   0.250E+29             1481.254      4.968     46.156
         TOT                       43037.3683   240.3649   356.0559  1489.7378

       T/K    H(0)-H(T)+PV         H(T)/Eh          T*S/Eh         G(T)/Eh
   ------------------------------------------------------------------------
    298.15    0.685844E-01    0.114763E+01    0.169174E+00    0.978458E+00
   ------------------------------------------------------------------------

         :::::::::::::::::::::::::::::::::::::::::::::::::::::
         ::                  THERMODYNAMIC                  ::
         :::::::::::::::::::::::::::::::::::::::::::::::::::::
         :: total free energy        -176.576011848595 Eh   ::
         ::.................................................::
         :: total energy             -177.554470283226 Eh   ::
         :: zero point energy           1.079047665206 Eh   ::
         :: G(RRHO) w/o ZPVE           -0.100589230575 Eh   ::
         :: G(RRHO) contrib.            0.978458434631 Eh   ::
         :::::::::::::::::::::::::::::::::::::::::::::::::::::

           -------------------------------------------------
          | TOTAL ENERGY             -177.554470283226 Eh   |
          | TOTAL ENTHALPY           -176.406838206027 Eh   |
          | TOTAL FREE ENERGY        -176.576011848595 Eh   |
          | GRADIENT NORM               0.000140706137 Eh/α |
           -------------------------------------------------

 * finished run on 2025/09/05 at 22:24:11.144
