   * xtb version 6.7.1 (edcfbbe) compiled by 'albert@albert-system' on 2024-07-22

   ID    Z sym.   atoms
    1    6 C      1-31, 33-61, 63-67
    2    7 N      32, 62
    3    1 H      68-131

          program call               : xtb data2507/gas/C3FLA-2/C3FLA-2_gas_S0_crest.xyz --gfn 2 --ohess vtight --parallel 40 --molden --ceasefiles --namespace data2507/gas/C3FLA-2/C3FLA-2_gas_S0_finalOpt
          :  Hamiltonian                  GFN2-xTB          :
 * total energy  :  -177.6262275 Eh     change       -0.4015050E-08 Eh
 * total energy  :  -177.6262246 Eh     change        0.2904499E-05 Eh
 * total energy  :  -177.6262290 Eh     change       -0.4461909E-05 Eh
 * total energy  :  -177.6262248 Eh     change        0.4270763E-05 Eh
 * total energy  :  -177.6262307 Eh     change       -0.5958841E-05 Eh
 * total energy  :  -177.6262314 Eh     change       -0.7103781E-06 Eh
 * total energy  :  -177.6262336 Eh     change       -0.2107053E-05 Eh
 * total energy  :  -177.6262368 Eh     change       -0.3245562E-05 Eh
 * total energy  :  -177.6262405 Eh     change       -0.3710057E-05 Eh
 * total energy  :  -177.6262449 Eh     change       -0.4414550E-05 Eh
 * total energy  :  -177.6265342 Eh     change       -0.2149672E-06 Eh
 * total energy  :  -177.6265344 Eh     change       -0.2381195E-06 Eh
 * total energy  :  -177.6265348 Eh     change       -0.3766990E-06 Eh
 * total energy  :  -177.6265354 Eh     change       -0.5996393E-06 Eh
 * total energy  :  -177.6265361 Eh     change       -0.6744391E-06 Eh
 * total energy  :  -177.6265366 Eh     change       -0.5172176E-06 Eh
 * total energy  :  -177.6265371 Eh     change       -0.5213697E-06 Eh
 * total energy  :  -177.6265378 Eh     change       -0.6895207E-06 Eh
 * total energy  :  -177.6265378 Eh     change       -0.8200857E-08 Eh
   *** GEOMETRY OPTIMIZATION CONVERGED AFTER 185 ITERATIONS ***

 final structure:
================
131
 xtb: 6.7.1 (edcfbbe)
C           -0.69497498251856        3.93178083249955        2.73220822124584
C            0.44927421016078        3.80924988200977        1.73235243305699
C            0.26857224876294        2.65225742495789        0.74952414170758
C            0.36868412280909        1.28335191214738        1.41959816709148
C            0.24291922675846        0.12024665763146        0.41891333036716
C            0.34196235940584       -1.21925338789413        1.17204326855943
C            0.22665162942175       -2.43164306603884        0.25100927486673
C            0.32751349310907       -3.74212851290240        1.02737189061186
C            0.21283066035659       -4.95142525695263        0.10795491003163
C            1.28009443229197        0.21149504546559       -0.67521361536295
C            2.64873753005769        0.18047760491831       -0.56423490392191
C            3.42380788674092        0.27381337125204       -1.72823623683739
C            4.82890627468115        0.23580068066489       -1.63954572013517
C            6.03475656357770        0.19749932079207       -1.56298760873831
C            7.43933153093198        0.14717055363466       -1.47315046749291
C            8.21392724516693        0.16344757399741       -2.63869725879501
C            9.59190673219985        0.10867593271584       -2.57245104975332
C           10.19926877408469        0.03784213049579       -1.32704225109879
C            9.42704392791388        0.02383197181717       -0.15304849799576
C            8.05571050530116        0.07741526919463       -0.21657524777793
C           10.31179300823339       -0.05444761346443        1.06858837967836
C           10.13481833711149        1.18144471274443        1.97008019900862
C           10.39210993683066        2.49871106551518        1.24117025305895
C           10.20034363449112        3.69124296843139        2.16964918036049
C           10.03396027285731       -1.33033071416286        1.88451074885197
C           10.18232525157225       -2.61121031501721        1.06596883012006
C            9.89725437793431       -3.84497410819474        1.91307619465461
C           11.68661125341775       -0.08770833963964        0.44525791560173
C           12.90963082587830       -0.16094688127110        1.06738611002468
C           14.06265685226255       -0.17890723673845        0.27271758179970
C           15.32960221633397       -0.25442505353518        0.89116087674536
N           16.35643987119110       -0.31610814596579        1.39896687607828
C           13.97600498085085       -0.12344727296724       -1.12085761232701
C           12.74354649039818       -0.04963476706104       -1.74132025541576
C           11.59914475093143       -0.03191406003291       -0.95713661429850
C            2.80708189062116        0.39930625893505       -2.97776388968620
C            1.43077511111356        0.43173702329792       -3.08636858728938
C            0.66559533264302        0.33633805134199       -1.93318219016779
C           -0.77145086408789        0.33702274347472       -1.74484571065516
C           -1.80794558528423        0.43415492069856       -2.66167372392562
C           -3.10973819569924        0.40412150485633       -2.20166456848950
C           -3.38351303439698        0.28107818602213       -0.83518436383447
C           -4.71793348386587        0.24866764076889       -0.38552993103243
C           -5.86017930895458        0.21526995811566        0.00878306673807
C           -7.19474925344959        0.17187667819740        0.45683357001994
C           -7.47552899085509        0.24627485743167        1.82585676949769
C           -8.77736209839827        0.20268836672360        2.28378042001358
C           -9.80683162247483        0.08078085211373        1.36177543931692
C           -9.53109623171397        0.00421753796212       -0.01409214316913
C           -8.23673633414927        0.05051306179353       -0.47223702272214
C          -10.80819702929196       -0.12864667298750       -0.80934106373709
C          -10.99489863874504        1.05405890199249       -1.77734590735176
C          -10.96853284711107        2.41215431344787       -1.07916763349481
C          -11.15174036271388        3.54965120313884       -2.07591594175713
C          -10.84206594675314       -1.44995167864620       -1.59961903453299
C          -10.65993748498527       -2.68320042096363       -0.71723451338632
C          -10.69318677147840       -3.96330474848872       -1.54258810269860
C          -11.84889275612244       -0.11545489873636        0.28454813945642
C          -13.21528510023834       -0.20629451995932        0.17064421225665
C          -13.98614565212749       -0.17302604215308        1.33937396978514
C          -15.39185077057241       -0.26595940465829        1.24593790308009
N          -16.53363741610233       -0.34226843237773        1.16508315133993
C          -13.38394730098294       -0.05002597984783        2.59432015334305
C          -12.00945593792781        0.04082271544031        2.70317247420407
C          -11.24264303448037        0.00770913540879        1.54739131246527
C           -2.33472311041094        0.18564017041406        0.08953263255579
C           -1.04106143703489        0.21205045873154       -0.37112706975270
H           -0.72785027605538        3.07430452494741        3.39935539147427
H           -1.64771522649765        4.00074838735764        2.21137974492982
H           -0.57090037308248        4.82555438768524        3.33952079184209
H            0.51808262002983        4.73848162959309        1.16199593516530
H            1.39164622173285        3.68323202404206        2.27063393646654
H            1.03765046078734        2.72461455081812       -0.02362476214807
H           -0.70286695355158        2.74699567372112        0.25866179655580
H            1.32964529190282        1.20385391853784        1.93326726607135
H           -0.42079987868558        1.18021943176592        2.16534342266340
H            1.29871018640707       -1.25660296823211        1.69824817074421
H           -0.45168810919053       -1.26061963119083        1.92177546259918
H           -0.72947865551631       -2.39844885702345       -0.27665164785091
H            1.01993269471616       -2.39596904001629       -0.49944037240205
H           -0.46618328090812       -3.78017088849033        1.77730680206567
H            1.28368848236325       -3.77711579100833        1.55493943267977
H            1.00680340698717       -4.94063897722566       -0.63566571284414
H           -0.74245112699338       -4.94442637070343       -0.41243254609870
H            0.28743893033086       -5.87517350018167        0.67705440156054
H            3.13765440372997        0.08390782127238        0.39441505007182
H            7.71514963015900        0.21839044485440       -3.59531783350760
H           10.18355391838041        0.12049757917251       -3.47573368139578
H            7.44617391534181        0.06667406779497        0.67528954895761
H           10.81957089998178        1.09999944575322        2.81733862530805
H            9.11621601994357        1.18354265903852        2.36465165466763
H            9.70915790618355        2.58482733966200        0.39292578824668
H           11.41131241247715        2.50532065872444        0.84797500271030
H            9.18347046611317        3.71554628031833        2.55570848872551
H           10.38758941034382        4.62150163589884        1.63899197366158
H           10.88573982320419        3.63378716848915        3.01257833133183
H           10.72309805784276       -1.36344169413152        2.73147381765039
H            9.01870138411400       -1.27611115701311        2.28393197529884
H           11.19669940526314       -2.67278489711890        0.66513780788375
H            9.49258579772297       -2.58408567771616        0.21928409996784
H           10.58764448876917       -3.90069003178878        2.75203088515434
H            8.88298171267978       -3.81333168142756        2.30540696694090
H           10.00671702939664       -4.74897707271334        1.31907085624754
H           13.00002439272303       -0.20461256731572        2.14302535346968
H           14.88433075895999       -0.13917857614057       -1.70534368346011
H           12.67674947318208       -0.00692343431058       -2.81793796012643
H            3.42625198557121        0.47016015835428       -3.86029485268949
H            0.96127180988397        0.52839629528846       -4.05411291837076
H           -1.60376178121751        0.53063712429242       -3.71777806130776
H           -3.93531164841562        0.47694860662193       -2.89482057621444
H           -6.65503071692532        0.33987936743026        2.52228267604803
H           -8.98714555828812        0.26163597909726        3.34146711392642
H           -8.00583393289361       -0.00684342446646       -1.52599528277426
H          -10.20082659057602        1.02126161697921       -2.52675087903199
H          -11.94813884409728        0.93595152226122       -2.29764836136554
H          -11.76346791371259        2.45358441705908       -0.33093330993230
H          -10.01631481708940        2.53510498648012       -0.55810338593575
H          -12.10540104762723        3.45680135596687       -2.59116497813978
H          -11.12968167672108        4.51008919193574       -1.56687702514424
H          -10.35781180704091        3.53758430111299       -2.81969973862727
H          -11.79738711278958       -1.52166296073122       -2.12454486469380
H          -10.05017142374662       -1.42788080712452       -2.35171196043531
H          -11.45248026867649       -2.71502990823754        0.03400241003852
H           -9.70577583619311       -2.61563860054753       -0.18964520652980
H          -11.64459697224478       -4.05933709929122       -2.06138944786027
H           -9.89713279423231       -3.96064822727860       -2.28418693195937
H          -10.56265052394846       -4.83281621546293       -0.90307482602519
H          -13.70188732766796       -0.30193438552953       -0.78910846648701
H          -14.00683015837065       -0.02719182151123        3.47661297724955
H          -11.54433544281234        0.13568905436633        3.67275030973460
H           -2.56049345527253        0.09085924286299        1.14186305249888

          :  Hamiltonian                  GFN2-xTB          :
         :: gradient norm              0.000086527022 Eh/a0 ::
         :: HOMO-LUMO gap              2.127320694023 eV    ::
         :: SCC energy              -180.947501361480 Eh    ::
         :: -> dispersion             -0.161078716956 Eh    ::
         :: repulsion energy           3.320963570090 Eh    ::

    * Orbital Energies and Occupations

         #    Occupation            Energy/Eh            Energy/eV
      -------------------------------------------------------------
         1        2.0000           -0.6706478             -18.2493
       ...           ...                  ...                  ...
       155        2.0000           -0.4174609             -11.3597
       156        2.0000           -0.4155082             -11.3066
       157        2.0000           -0.4154587             -11.3052
       158        2.0000           -0.4095714             -11.1450
       159        2.0000           -0.4091262             -11.1329
       160        2.0000           -0.4078752             -11.0988
       161        2.0000           -0.4076965             -11.0940
       162        2.0000           -0.4047682             -11.0143
       163        2.0000           -0.4033752             -10.9764
       164        2.0000           -0.4018754             -10.9356
       165        2.0000           -0.3953870             -10.7590
       166        2.0000           -0.3805758             -10.3560
       167        2.0000           -0.3667062              -9.9786 (HOMO)
       168                         -0.2885286              -7.8513 (LUMO)
       169                         -0.2826722              -7.6919
       170                         -0.2658855              -7.2351
       171                         -0.2459695              -6.6932
       172                         -0.2389789              -6.5029
       173                         -0.2386811              -6.4948
       174                         -0.2308129              -6.2807
       175                         -0.2301924              -6.2639
       176                         -0.2295361              -6.2460
       177                         -0.2255136              -6.1365
       178                         -0.2245669              -6.1108
       ...                                ...                  ...
       332                          1.4267771              38.8246
      -------------------------------------------------------------
                  HL-Gap            0.0781776 Eh            2.1273 eV

     #   Z          covCN         q      C6AA      α(0)
     1   6 C        3.751    -0.102    22.504     6.765
     2   6 C        3.800    -0.053    21.522     6.605
     3   6 C        3.801    -0.054    21.549     6.609
     4   6 C        3.808    -0.054    21.544     6.607
     5   6 C        3.938     0.009    20.356     6.411
     6   6 C        3.809    -0.054    21.534     6.606
     7   6 C        3.802    -0.055    21.563     6.611
     8   6 C        3.801    -0.053    21.517     6.604
     9   6 C        3.752    -0.102    22.514     6.766
    10   6 C        3.053     0.002    27.929     8.667
    11   6 C        2.923    -0.034    28.844     8.807
    12   6 C        2.973     0.033    27.248     8.562
    13   6 C        1.983    -0.040    32.133     9.154
    14   6 C        1.983    -0.044    32.224     9.167
    15   6 C        2.973     0.037    27.173     8.551
    16   6 C        2.929    -0.033    28.821     8.804
    17   6 C        2.912    -0.032    28.800     8.800
    18   6 C        3.037    -0.002    28.029     8.684
    19   6 C        3.054     0.003    27.905     8.663
    20   6 C        2.923    -0.034    28.844     8.807
    21   6 C        3.937     0.010    20.351     6.411
    22   6 C        3.809    -0.055    21.559     6.609
    23   6 C        3.800    -0.049    21.453     6.595
    24   6 C        3.753    -0.103    22.523     6.768
    25   6 C        3.809    -0.055    21.560     6.610
    26   6 C        3.800    -0.049    21.453     6.595
    27   6 C        3.753    -0.103    22.522     6.768
    28   6 C        3.055     0.005    27.866     8.657
    29   6 C        2.922    -0.026    28.648     8.777
    30   6 C        2.975     0.013    27.721     8.636
    31   6 C        1.913     0.111    28.364     8.601
    32   7 N        0.911    -0.242    26.317     7.420
    33   6 C        2.928    -0.025    28.618     8.773
    34   6 C        2.913    -0.033    28.810     8.802
    35   6 C        3.037     0.007    27.820     8.651
    36   6 C        2.929    -0.033    28.824     8.805
    37   6 C        2.912    -0.034    28.842     8.806
    38   6 C        3.037     0.000    27.985     8.677
    39   6 C        3.037     0.000    27.984     8.677
    40   6 C        2.912    -0.034    28.843     8.807
    41   6 C        2.929    -0.033    28.826     8.805
    42   6 C        2.973     0.033    27.250     8.563
    43   6 C        1.983    -0.040    32.135     9.155
    44   6 C        1.983    -0.044    32.226     9.168
    45   6 C        2.973     0.037    27.175     8.551
    46   6 C        2.929    -0.033    28.824     8.805
    47   6 C        2.912    -0.032    28.803     8.801
    48   6 C        3.037    -0.002    28.029     8.684
    49   6 C        3.054     0.003    27.902     8.663
    50   6 C        2.923    -0.034    28.843     8.807
    51   6 C        3.937     0.010    20.350     6.411
    52   6 C        3.809    -0.055    21.561     6.610
    53   6 C        3.800    -0.049    21.452     6.595
    54   6 C        3.753    -0.103    22.523     6.768
    55   6 C        3.809    -0.055    21.560     6.610
    56   6 C        3.800    -0.049    21.453     6.595
    57   6 C        3.753    -0.103    22.523     6.768
    58   6 C        3.055     0.005    27.864     8.657
    59   6 C        2.922    -0.026    28.647     8.777
    60   6 C        2.975     0.013    27.721     8.636
    61   6 C        1.913     0.111    28.364     8.601
    62   7 N        0.911    -0.242    26.316     7.419
    63   6 C        2.928    -0.025    28.618     8.773
    64   6 C        2.913    -0.033    28.811     8.802
    65   6 C        3.037     0.007    27.821     8.651
    66   6 C        2.923    -0.034    28.841     8.807
    67   6 C        3.054     0.002    27.920     8.666
    68   1 H        0.925     0.034     2.537     2.491
    69   1 H        0.925     0.035     2.521     2.483
    70   1 H        0.925     0.033     2.548     2.496
    71   1 H        0.924     0.030     2.590     2.517
    72   1 H        0.924     0.030     2.592     2.517
    73   1 H        0.924     0.028     2.620     2.531
    74   1 H        0.924     0.031     2.571     2.508
    75   1 H        0.924     0.033     2.543     2.494
    76   1 H        0.924     0.037     2.485     2.465
    77   1 H        0.924     0.033     2.546     2.495
    78   1 H        0.924     0.033     2.544     2.495
    79   1 H        0.924     0.030     2.581     2.512
    80   1 H        0.924     0.030     2.580     2.512
    81   1 H        0.924     0.029     2.600     2.522
    82   1 H        0.924     0.029     2.603     2.523
    83   1 H        0.925     0.034     2.530     2.487
    84   1 H        0.925     0.034     2.530     2.487
    85   1 H        0.925     0.034     2.527     2.486
    86   1 H        0.926     0.030     2.593     2.518
    87   1 H        0.926     0.034     2.535     2.490
    88   1 H        0.926     0.031     2.567     2.506
    89   1 H        0.926     0.032     2.560     2.502
    90   1 H        0.924     0.036     2.504     2.475
    91   1 H        0.924     0.037     2.492     2.469
    92   1 H        0.924     0.030     2.590     2.517
    93   1 H        0.924     0.028     2.616     2.530
    94   1 H        0.925     0.035     2.517     2.481
    95   1 H        0.925     0.036     2.502     2.473
    96   1 H        0.925     0.036     2.508     2.477
    97   1 H        0.924     0.036     2.504     2.475
    98   1 H        0.924     0.037     2.493     2.469
    99   1 H        0.924     0.028     2.617     2.530
   100   1 H        0.924     0.030     2.590     2.517
   101   1 H        0.925     0.036     2.508     2.477
   102   1 H        0.925     0.035     2.517     2.481
   103   1 H        0.925     0.036     2.502     2.474
   104   1 H        0.926     0.037     2.486     2.466
   105   1 H        0.926     0.039     2.465     2.455
   106   1 H        0.926     0.037     2.493     2.469
   107   1 H        0.926     0.031     2.570     2.507
   108   1 H        0.926     0.030     2.591     2.517
   109   1 H        0.926     0.030     2.593     2.518
   110   1 H        0.926     0.031     2.578     2.511
   111   1 H        0.926     0.033     2.541     2.493
   112   1 H        0.926     0.031     2.570     2.507
   113   1 H        0.926     0.032     2.555     2.500
   114   1 H        0.924     0.037     2.490     2.468
   115   1 H        0.924     0.036     2.503     2.474
   116   1 H        0.924     0.028     2.618     2.530
   117   1 H        0.924     0.030     2.591     2.517
   118   1 H        0.925     0.036     2.508     2.476
   119   1 H        0.925     0.036     2.503     2.474
   120   1 H        0.925     0.035     2.515     2.480
   121   1 H        0.924     0.036     2.503     2.474
   122   1 H        0.924     0.037     2.489     2.467
   123   1 H        0.924     0.028     2.618     2.530
   124   1 H        0.924     0.030     2.591     2.517
   125   1 H        0.925     0.036     2.507     2.476
   126   1 H        0.925     0.035     2.515     2.480
   127   1 H        0.925     0.036     2.503     2.474
   128   1 H        0.926     0.037     2.485     2.465
   129   1 H        0.926     0.039     2.465     2.455
   130   1 H        0.926     0.037     2.494     2.470
   131   1 H        0.926     0.030     2.585     2.514

molecular dipole:
                 x           y           z       tot (Debye)
 q only:        0.000       0.115      -0.347
   full:        0.061       0.171      -0.537       1.441

 projected vibrational frequencies (cm⁻¹)
eigval :       -0.00    -0.00    -0.00     0.00     0.00     0.00
eigval :        2.47     4.16     4.97     5.93    10.75    14.01
eigval :       21.06    21.43    25.53    39.53    40.80    40.89
eigval :       41.58    47.60    48.83    52.29    53.66    54.62
eigval :       57.12    57.54    64.65    66.91    68.04    69.24
eigval :       71.21    73.65    76.25    81.70    86.52    87.78
eigval :       98.37   103.03   104.32   110.25   112.97   119.33
eigval :      121.58   140.35   141.06   151.87   159.05   168.88
eigval :      174.14   189.52   193.76   204.57   205.37   211.07
eigval :      217.30   222.04   222.13   224.96   227.02   230.85
eigval :      235.12   237.32   237.93   244.88   249.45   254.43
eigval :      255.82   264.95   272.24   283.42   285.03   285.58
eigval :      301.06   303.50   304.53   304.96   330.73   331.33
eigval :      336.44   340.85   354.25   362.00   367.01   385.37
eigval :      407.00   409.61   414.46   418.39   424.82   430.95
eigval :      431.80   438.81   439.76   439.77   441.50   467.25
eigval :      471.28   471.32   472.31   495.15   507.53   508.00
eigval :      509.02   524.85   526.10   547.47   552.19   561.59
eigval :      565.67   572.47   574.63   574.76   584.39   586.47
eigval :      587.73   598.69   602.39   609.14   628.71   636.81
eigval :      642.93   644.91   665.94   690.14   715.51   717.40
eigval :      717.42   720.83   722.49   723.09   723.25   736.20
eigval :      736.80   737.56   741.16   774.91   781.81   781.85
eigval :      785.83   792.58   795.98   818.77   820.96   821.17
eigval :      822.39   829.68   831.28   833.49   833.82   856.33
eigval :      877.37   877.97   878.29   878.42   879.80   879.83
eigval :      883.44   891.13   892.05   894.88   894.94   909.50
eigval :      910.37   910.53   911.88   912.58   912.73   930.53
eigval :      930.60   930.62   938.49   938.90   944.51   952.07
eigval :      960.73   961.01   969.71   981.48   994.59   995.81
eigval :      996.75  1005.54  1014.07  1034.12  1034.91  1035.71
eigval :     1069.53  1080.39  1080.41  1087.12  1087.14  1091.09
eigval :     1091.12  1094.47  1096.98  1097.02  1099.17  1113.13
eigval :     1113.48  1116.17  1118.85  1122.52  1132.59  1137.50
eigval :     1137.55  1137.76  1137.89  1142.06  1143.74  1148.06
eigval :     1149.81  1152.71  1153.81  1155.82  1156.72  1160.60
eigval :     1183.72  1184.28  1192.87  1203.69  1210.69  1214.71
eigval :     1219.94  1221.51  1221.54  1222.77  1230.09  1232.07
eigval :     1232.10  1233.80  1239.60  1247.79  1249.54  1252.10
eigval :     1258.88  1265.68  1266.65  1271.62  1277.02  1278.99
eigval :     1279.02  1279.41  1284.17  1285.34  1285.73  1285.76
eigval :     1287.02  1297.79  1298.01  1299.31  1304.17  1308.82
eigval :     1311.09  1322.75  1325.29  1326.45  1332.91  1333.56
eigval :     1340.21  1352.78  1356.69  1356.91  1356.92  1363.15
eigval :     1366.75  1371.17  1372.54  1375.44  1378.34  1416.42
eigval :     1416.80  1416.88  1416.95  1416.97  1417.02  1421.19
eigval :     1421.84  1424.59  1429.69  1438.10  1438.86  1440.79
eigval :     1441.59  1454.03  1459.45  1478.84  1480.06  1480.26
eigval :     1481.14  1485.13  1488.85  1489.51  1489.73  1491.98
eigval :     1496.41  1497.62  1498.38  1498.43  1499.27  1499.32
eigval :     1499.59  1503.98  1504.52  1504.57  1504.59  1504.63
eigval :     1505.68  1505.73  1505.79  1505.84  1506.24  1507.43
eigval :     1511.48  1559.64  1561.21  1562.15  1574.82  1575.85
eigval :     1577.26  1584.06  1586.39  1590.37  1599.64  1602.39
eigval :     1605.38  2310.34  2311.17  2369.53  2369.77  2956.68
eigval :     2959.62  2959.69  2960.36  2961.36  2961.62  2961.63
eigval :     2963.86  2969.99  2972.90  2973.02  2973.98  2975.02
eigval :     2975.10  2975.15  2975.26  2976.05  2976.94  2979.96
eigval :     2980.07  2981.59  2982.47  2984.86  2985.00  2985.65
eigval :     2987.20  2987.35  2991.51  3030.24  3030.39  3030.44
eigval :     3030.64  3031.31  3031.46  3033.46  3033.55  3033.75
eigval :     3033.94  3034.16  3034.47  3038.84  3041.62  3041.66
eigval :     3042.02  3042.04  3044.57  3076.50  3078.64  3078.94
eigval :     3079.45  3079.96  3080.71  3082.38  3082.95  3083.60
eigval :     3083.74  3084.61  3084.62  3088.41  3090.31  3090.87
eigval :     3091.47  3094.73  3094.91

   temp. (K)  partition function   enthalpy   heat capacity  entropy
                                   cal/mol     cal/K/mol   cal/K/mol   J/K/mol
 298.15  VIB  0.347E+37            40391.848    230.537    266.785
         ROT  0.400E+09              888.752      2.981     42.343
         INT  0.139E+46            41280.600    233.518    309.128
         TR   0.250E+29             1481.254      4.968     46.156
         TOT                       42761.8542   238.4865   355.2841  1486.5087

       T/K    H(0)-H(T)+PV         H(T)/Eh          T*S/Eh         G(T)/Eh
   ------------------------------------------------------------------------
    298.15    0.681454E-01    0.115209E+01    0.168807E+00    0.983285E+00
   ------------------------------------------------------------------------

         :::::::::::::::::::::::::::::::::::::::::::::::::::::
         ::                  THERMODYNAMIC                  ::
         :::::::::::::::::::::::::::::::::::::::::::::::::::::
         :: total free energy        -176.643252757781 Eh   ::
         ::.................................................::
         :: total energy             -177.626537791390 Eh   ::
         :: zero point energy           1.083946626770 Eh   ::
         :: G(RRHO) w/o ZPVE           -0.100661593161 Eh   ::
         :: G(RRHO) contrib.            0.983285033610 Eh   ::
         :::::::::::::::::::::::::::::::::::::::::::::::::::::

           -------------------------------------------------
          | TOTAL ENERGY             -177.626537791390 Eh   |
          | TOTAL ENTHALPY           -176.474445812255 Eh   |
          | TOTAL FREE ENERGY        -176.643252757781 Eh   |
          | GRADIENT NORM               0.000086525932 Eh/α |
          | HOMO-LUMO GAP               2.127320707055 eV   |
           -------------------------------------------------

 * finished run on 2025/09/05 at 22:23:44.007
