   * xtb version 6.7.1 (edcfbbe) compiled by 'albert@albert-system' on 2024-07-22

   ID    Z sym.   atoms
    1    6 C      1-12, 14-20, 23-29, 31-44, 46, 47
    2    7 N      13, 21, 22, 30
    3    8 O      45
    4    1 H      48-79

          program call               : xtb data2507/toluene/2,7-MeCzOXD/2,7-MeCzOXD_toluene_S0_finalOpt.xtbopt.xyz --gfn 2 --uhf 2 --gbsa toluene --ohess vtight --parallel 40 --molden --ceasefiles --namespace data2507/toluene/2,7-MeCzOXD/2,7-MeCzOXD_toluene_T1_preOpt
      * Solvation model:               GBSA
        Solvent                        toluene
        Solvent mass                       9.2140E+01 g/mol
          :  Hamiltonian                  GFN2-xTB          :
 * total energy  :  -122.0781590 Eh     change       -0.1340742E-07 Eh
 * total energy  :  -122.0826494 Eh     change       -0.4490403E-02 Eh
 * total energy  :  -122.0844720 Eh     change       -0.1822636E-02 Eh
 * total energy  :  -122.0846981 Eh     change       -0.2260709E-03 Eh
 * total energy  :  -122.0849452 Eh     change       -0.2471188E-03 Eh
 * total energy  :  -122.0850293 Eh     change       -0.8403710E-04 Eh
 * total energy  :  -122.0851109 Eh     change       -0.8163110E-04 Eh
 * total energy  :  -122.0851566 Eh     change       -0.4573764E-04 Eh
 * total energy  :  -122.0851921 Eh     change       -0.3552583E-04 Eh
 * total energy  :  -122.0852320 Eh     change       -0.3984472E-04 Eh
 * total energy  :  -122.0866374 Eh     change       -0.3383986E-06 Eh
 * total energy  :  -122.0866377 Eh     change       -0.3293340E-06 Eh
 * total energy  :  -122.0866380 Eh     change       -0.3197430E-06 Eh
 * total energy  :  -122.0866383 Eh     change       -0.3166025E-06 Eh
 * total energy  :  -122.0866386 Eh     change       -0.3056054E-06 Eh
 * total energy  :  -122.0866389 Eh     change       -0.2457936E-06 Eh
 * total energy  :  -122.0866391 Eh     change       -0.1681142E-06 Eh
 * total energy  :  -122.0866392 Eh     change       -0.1233311E-06 Eh
 * total energy  :  -122.0866393 Eh     change       -0.7919988E-07 Eh
   *** GEOMETRY OPTIMIZATION CONVERGED AFTER 91 ITERATIONS ***

 final structure:
================
79
 xtb: 6.7.1 (edcfbbe)
C            4.62092106693993        1.21963118452627       -3.75109425431968
C            4.02898298655027        1.51044342611355       -2.40466111017989
C            3.57839794537932        2.80359514183342       -2.11389540965333
C            3.02963711862288        3.13356151287596       -0.88625991945063
C            2.93337497007161        2.15095235162881        0.08497769395678
C            2.42990957760820        2.11032115034144        1.43378449153745
C            1.87565019140730        3.04748208724081        2.28989300873712
C            1.50993464205224        2.64827797373630        3.56458759474479
C            1.68855500204624        1.33556532074214        4.01141193554116
C            1.27134480239229        0.96535455893448        5.40330709819620
C            2.24339754494014        0.38908807815556        3.16223501045092
C            2.59872355082232        0.77958365880363        1.87961922211777
N            3.18850269167293        0.03590131482951        0.88409995635839
C            3.44656893550579       -1.34671029241405        0.93903038468332
C            4.74926978944848       -1.79596041547793        1.02494784079038
C            5.03155977714911       -3.15393609248997        1.09894898629051
C            3.98282871539545       -4.07486152104324        1.08393765302346
C            2.68280159417393       -3.65096014932980        0.97729894911782
C            2.36781733069590       -2.27501306417641        0.88264441802009
C            1.04502827312340       -1.85253561525406        0.64722309039120
N            0.59870295995324       -0.61030225765396        0.50717010524750
N           -0.67930548111968       -0.65340113085600        0.24946973253746
C           -1.06054929555704       -1.92541769642090        0.20382811263757
C           -2.34512488561792       -2.42510830050649       -0.07540537000569
C           -2.66258013671769       -3.78452135874023        0.15600933870886
C           -3.94500397821422       -4.24535278142159        0.01484288219116
C           -4.97449404807463       -3.37934006540020       -0.36848749027728
C           -4.68467540477437       -2.05202087704975       -0.64420274852009
C           -3.39272100446442       -1.56752637116699       -0.53318073180194
N           -3.11320864847080       -0.24402401889049       -0.89064250347003
C           -3.68882723336353        0.87504451807893       -0.34435577805999
C           -4.65253127447835        0.96740894771673        0.65452138722659
C           -5.07197055147210        2.22427852073234        1.05636251076263
C           -6.11397104515750        2.38269549465403        2.12207150686224
C           -4.51807480247383        3.36628382253063        0.46225709172980
C           -3.54568004951385        3.28515069751021       -0.51856481079945
C           -3.12084325046842        2.03304598682323       -0.93213529850944
C           -2.15544219220980        1.56738459978379       -1.89322072774841
C           -1.29709053767074        2.19666028717757       -2.77919091101559
C           -0.50202258881570        1.41677141833715       -3.60280178456144
C           -0.56094951835516        0.02314633228768       -3.57933743262952
C            0.31303692816356       -0.79126493967206       -4.48577854459904
C           -1.42289993238818       -0.61654609051734       -2.69575463433602
C           -2.18776322630070        0.15622439080068       -1.83817586131337
O            0.00906492105436       -2.76003451353287        0.48560921818628
C            3.39210285189633        0.84284729416504       -0.20548365543486
C            3.93552510646675        0.51786478386682       -1.44217682306783
H            5.57796936879456        1.73053953207592       -3.85757746870953
H            4.78372183912214        0.15308061659301       -3.88294016387834
H            3.96461756016853        1.57649843141818       -4.54267164738349
H            3.65980055288661        3.56229462785223       -2.87874880525769
H            2.68114092248054        4.13649152935751       -0.69209921640715
H            1.73214825343330        4.06924883636074        1.97257469201850
H            1.07411744621186        3.36913097729547        4.24131182376886
H            0.18726849829700        1.02839874215075        5.49793355439194
H            1.70941657784590        1.64954582994667        6.12834348709456
H            1.57986800523792       -0.04836585951659        5.64610838549247
H            2.39000010248608       -0.63177500458455        3.48548979393066
H            5.55060912308581       -1.07093278309625        1.05044842742716
H            6.05272497325740       -3.49119824564582        1.18027840269470
H            4.19816716203889       -5.13138773281795        1.15314108797806
H            1.86960750991610       -4.36175705574245        0.95216556895433
H           -1.86700245902690       -4.44597446472177        0.46707868614426
H           -4.16601633268705       -5.28572827937089        0.20447439024583
H           -5.98229782514100       -3.74767952481964       -0.47709417940914
H           -5.46312682542943       -1.38689102975766       -0.99011287340032
H           -5.05758724556389        0.07609978187597        1.11037504636873
H           -6.97854663749580        2.91569798986278        1.72800029737070
H           -5.71759946396121        2.96271091865311        2.95447145039326
H           -6.44074677857876        1.41573288433187        2.49523435276704
H           -4.86109822343739        4.33643593425215        0.79134239118142
H           -3.12429771479004        4.17966075754820       -0.95114265825338
H           -1.24840825703412        3.27372395738906       -2.82931682200706
H            0.17744674213961        1.89774213889640       -4.29095576249161
H            1.16719236678202       -1.17640117206956       -3.92729837644342
H            0.68754016119551       -0.19064843360124       -5.31041008195875
H           -0.23384459851112       -1.64277478781198       -4.88656925768053
H           -1.48101717468479       -1.69580866078078       -2.67007724162777
H            4.27016365554256       -0.48945881208606       -1.64479416101714

          :  Hamiltonian                  GFN2-xTB          :
         :: gradient norm              0.000056024534 Eh/a0 ::
         :: HOMO-LUMO gap              0.665955773122 eV    ::
         :: SCC energy              -124.212054678445 Eh    ::
         :: -> dispersion             -0.109695304877 Eh    ::
         :: -> Gsolv                  -0.052853723910 Eh    ::
         :: repulsion energy           2.125415421355 Eh    ::

    * Orbital Energies and Occupations

         #    Occupation            Energy/Eh            Energy/eV
      -------------------------------------------------------------
         1        2.0000           -0.7288319             -19.8325
       ...           ...                  ...                  ...
       102        2.0000           -0.4111776             -11.1887
       103        2.0000           -0.4101637             -11.1611
       104        2.0000           -0.4088917             -11.1265
       105        2.0000           -0.4077364             -11.0951
       106        2.0000           -0.4071334             -11.0787
       107        2.0000           -0.4032409             -10.9727
       108        2.0000           -0.3756871             -10.2230
       109        2.0000           -0.3744832             -10.1902
       110        1.9998           -0.3730895             -10.1523
       111        1.9859           -0.3690613             -10.0427
       112        1.6888           -0.3657787              -9.9533
       113        1.3255           -0.3643317              -9.9140
       114        1.0000           -0.2749394              -7.4815 (HOMO)
       115        0.0000           -0.2504659              -6.8155 (LUMO)
       116                         -0.2447437              -6.6598
       117                         -0.2433514              -6.6219
       118                         -0.2280816              -6.2064
       119                         -0.2268312              -6.1724
       120                         -0.2257870              -6.1440
       121                         -0.2247866              -6.1168
       122                         -0.1963382              -5.3426
       123                         -0.1952091              -5.3119
       124                         -0.1883226              -5.1245
       125                         -0.1870908              -5.0910
       ...                                ...                  ...
       220                          0.7441937              20.2505
      -------------------------------------------------------------
                  HL-Gap            0.0244735 Eh            0.6660 eV

     #   Z          covCN         q      C6AA      α(0)
     1   6 C        3.758    -0.112    22.691     6.791
     2   6 C        2.968     0.019    27.593     8.616
     3   6 C        2.925    -0.042    29.056     8.840
     4   6 C        2.910    -0.031    28.776     8.796
     5   6 C        3.068    -0.011    28.218     8.710
     6   6 C        3.067    -0.012    28.251     8.715
     7   6 C        2.911    -0.030    28.750     8.792
     8   6 C        2.925    -0.044    29.102     8.847
     9   6 C        2.968     0.017    27.618     8.620
    10   6 C        3.758    -0.110    22.664     6.787
    11   6 C        2.914    -0.049    29.206     8.862
    12   6 C        3.082     0.061    26.552     8.447
    13   7 N        2.805    -0.014    21.516     6.889
    14   6 C        2.913     0.047    26.952     8.513
    15   6 C        2.918    -0.042    29.048     8.838
    16   6 C        2.917    -0.048    29.189     8.860
    17   6 C        2.913    -0.034    28.847     8.807
    18   6 C        2.921    -0.043    29.068     8.841
    19   6 C        2.967    -0.031    28.759     8.796
    20   6 C        3.096     0.200    23.662     7.972
    21   7 N        2.031    -0.214    26.405     7.622
    22   7 N        2.033    -0.213    26.391     7.620
    23   6 C        3.095     0.200    23.667     7.973
    24   6 C        2.967    -0.030    28.744     8.794
    25   6 C        2.920    -0.043    29.077     8.843
    26   6 C        2.913    -0.033    28.826     8.804
    27   6 C        2.916    -0.048    29.196     8.861
    28   6 C        2.917    -0.044    29.085     8.844
    29   6 C        2.912     0.047    26.939     8.511
    30   7 N        2.803    -0.008    21.402     6.871
    31   6 C        3.075     0.054    26.718     8.475
    32   6 C        2.914    -0.053    29.307     8.877
    33   6 C        2.967     0.019    27.572     8.613
    34   6 C        3.758    -0.113    22.716     6.795
    35   6 C        2.925    -0.041    29.021     8.834
    36   6 C        2.910    -0.032    28.790     8.798
    37   6 C        3.067    -0.009    28.178     8.704
    38   6 C        3.065    -0.013    28.283     8.721
    39   6 C        2.911    -0.030    28.748     8.792
    40   6 C        2.925    -0.045    29.109     8.848
    41   6 C        2.968     0.017    27.634     8.623
    42   6 C        3.758    -0.108    22.619     6.781
    43   6 C        2.916    -0.047    29.157     8.855
    44   6 C        3.077     0.060    26.573     8.452
    45   8 O        1.712    -0.310    19.161     5.910
    46   6 C        3.081     0.055    26.676     8.467
    47   6 C        2.914    -0.053    29.306     8.877
    48   1 H        0.925     0.055     2.256     2.349
    49   1 H        0.925     0.045     2.388     2.416
    50   1 H        0.925     0.054     2.270     2.356
    51   1 H        0.926     0.045     2.382     2.413
    52   1 H        0.926     0.044     2.397     2.421
    53   1 H        0.926     0.044     2.398     2.422
    54   1 H        0.926     0.043     2.413     2.429
    55   1 H        0.925     0.052     2.295     2.369
    56   1 H        0.925     0.054     2.268     2.355
    57   1 H        0.925     0.042     2.417     2.431
    58   1 H        0.926     0.026     2.648     2.545
    59   1 H        0.926     0.038     2.478     2.462
    60   1 H        0.926     0.035     2.519     2.482
    61   1 H        0.926     0.032     2.557     2.500
    62   1 H        0.926     0.028     2.613     2.528
    63   1 H        0.926     0.028     2.618     2.530
    64   1 H        0.926     0.033     2.550     2.497
    65   1 H        0.926     0.035     2.515     2.480
    66   1 H        0.926     0.040     2.455     2.450
    67   1 H        0.926     0.038     2.481     2.463
    68   1 H        0.925     0.056     2.246     2.343
    69   1 H        0.925     0.055     2.261     2.351
    70   1 H        0.925     0.046     2.368     2.407
    71   1 H        0.926     0.046     2.365     2.405
    72   1 H        0.926     0.045     2.382     2.413
    73   1 H        0.926     0.045     2.385     2.415
    74   1 H        0.926     0.042     2.424     2.435
    75   1 H        0.924     0.048     2.351     2.398
    76   1 H        0.925     0.052     2.301     2.372
    77   1 H        0.925     0.047     2.362     2.404
    78   1 H        0.926     0.022     2.700     2.570
    79   1 H        0.926     0.031     2.566     2.505

molecular dipole:
                 x           y           z       tot (Debye)
 q only:       -0.151       2.228      -0.502
   full:       -0.140       1.308      -0.373       3.474

 projected vibrational frequencies (cm⁻¹)
eigval :       -0.00    -0.00    -0.00     0.00     0.00     0.00
eigval :       11.83    12.90    16.26    24.53    35.60    42.66
eigval :       43.08    53.08    56.36    60.95    61.61    70.37
eigval :       78.52    85.69    89.63    94.24   114.43   118.47
eigval :      124.83   130.45   133.89   143.27   144.84   152.96
eigval :      173.05   182.36   206.25   229.15   239.55   244.70
eigval :      247.53   256.18   268.13   299.44   301.79   314.27
eigval :      318.35   324.43   326.18   355.03   355.54   370.12
eigval :      381.65   393.54   398.94   401.98   412.83   421.50
eigval :      426.31   428.92   436.10   455.04   460.04   468.24
eigval :      486.37   499.21   500.84   525.33   549.15   551.12
eigval :      552.58   553.58   562.25   573.40   583.77   589.33
eigval :      595.11   604.17   604.40   629.56   649.81   655.11
eigval :      665.78   668.95   670.23   676.05   680.09   704.13
eigval :      705.21   706.87   743.98   745.64   745.99   747.44
eigval :      775.94   776.16   798.32   806.50   809.08   815.25
eigval :      842.67   844.17   851.70   860.08   866.83   868.00
eigval :      872.15   874.42   890.52   892.21   894.09   896.77
eigval :      898.33   902.88   905.00   907.67   908.67   908.97
eigval :      956.59   960.57   973.63   974.90  1001.34  1003.21
eigval :     1009.12  1015.59  1016.15  1017.56  1028.89  1029.78
eigval :     1030.66  1031.62  1032.98  1036.41  1072.56  1076.84
eigval :     1100.48  1104.08  1137.01  1139.45  1152.09  1154.33
eigval :     1156.21  1158.92  1168.39  1170.43  1170.95  1173.74
eigval :     1195.60  1197.91  1214.59  1218.60  1223.35  1229.22
eigval :     1232.28  1236.12  1245.35  1251.90  1255.54  1256.50
eigval :     1274.19  1285.64  1288.85  1314.77  1317.93  1331.22
eigval :     1335.11  1347.55  1353.03  1359.07  1367.04  1370.00
eigval :     1389.26  1398.91  1399.41  1400.07  1400.54  1401.27
eigval :     1402.95  1403.93  1414.73  1416.46  1424.75  1432.26
eigval :     1461.25  1462.15  1470.91  1471.98  1474.44  1475.69
eigval :     1478.54  1480.89  1484.11  1485.39  1486.42  1490.55
eigval :     1493.99  1497.57  1524.48  1546.51  1548.78  1551.28
eigval :     1574.77  1577.47  1578.66  1582.53  1585.10  1591.52
eigval :     1595.48  2994.97  3001.51  3001.58  3006.06  3018.87
eigval :     3019.73  3024.93  3025.74  3043.04  3044.88  3046.11
eigval :     3046.39  3068.71  3070.49  3071.71  3072.83  3072.89
eigval :     3074.06  3075.00  3076.95  3079.21  3079.38  3079.96
eigval :     3083.47  3083.84  3084.19  3089.73  3091.86  3092.20
eigval :     3093.94  3097.89  3099.55

   temp. (K)  partition function   enthalpy   heat capacity  entropy
                                   cal/mol     cal/K/mol   cal/K/mol   J/K/mol
 298.15  VIB  0.334E+19            23693.265    145.815    149.380
         ROT  0.516E+08              888.752      2.981     38.273
         INT  0.172E+27            24582.018    148.796    187.653
         TR   0.145E+29             1481.254      4.968     45.081
         TOT                       26063.2715   153.7643   232.7345   973.7610

       T/K    H(0)-H(T)+PV         H(T)/Eh          T*S/Eh         G(T)/Eh
   ------------------------------------------------------------------------
    298.15    0.415345E-01    0.649604E+00    0.110580E+00    0.539025E+00
   ------------------------------------------------------------------------

         :::::::::::::::::::::::::::::::::::::::::::::::::::::
         ::                  THERMODYNAMIC                  ::
         :::::::::::::::::::::::::::::::::::::::::::::::::::::
         :: total free energy        -121.547614437056 Eh   ::
         ::.................................................::
         :: total energy             -122.086639257020 Eh   ::
         :: zero point energy           0.608070009110 Eh   ::
         :: G(RRHO) w/o ZPVE           -0.069045189146 Eh   ::
         :: G(RRHO) contrib.            0.539024819964 Eh   ::
         :::::::::::::::::::::::::::::::::::::::::::::::::::::

           -------------------------------------------------
          | TOTAL ENERGY             -122.086639257020 Eh   |
          | TOTAL ENTHALPY           -121.437034781019 Eh   |
          | TOTAL FREE ENERGY        -121.547614437056 Eh   |
          | GRADIENT NORM               0.000053613439 Eh/α |
          | HOMO-LUMO GAP               0.665957966330 eV   |
           -------------------------------------------------

 * finished run on 2025/08/25 at 08:16:45.754
