   * xtb version 6.7.1 (edcfbbe) compiled by 'albert@albert-system' on 2024-07-22

   ID    Z sym.   atoms
    1    6 C      1-12, 14-20, 23-29, 31-44, 46, 47
    2    7 N      13, 21, 22, 30
    3    8 O      45
    4    1 H      48-79

          program call               : xtb data2507/toluene/2,7-MeCzOXD/2,7-MeCzOXD.xyz --gfn 2 --gbsa toluene --ohess vtight --parallel 40 --molden --ceasefiles --namespace data2507/toluene/2,7-MeCzOXD/2,7-MeCzOXD_toluene_S0_preOpt
      * Solvation model:               GBSA
        Solvent                        toluene
        Solvent mass                       9.2140E+01 g/mol
          :  Hamiltonian                  GFN2-xTB          :
 * total energy  :  -122.1477306 Eh     change       -0.6044772E-08 Eh
 * total energy  :  -122.1625352 Eh     change       -0.1480462E-01 Eh
 * total energy  :  -122.1659934 Eh     change       -0.3458142E-02 Eh
 * total energy  :  -122.1668134 Eh     change       -0.8200012E-03 Eh
 * total energy  :  -122.1674096 Eh     change       -0.5961891E-03 Eh
 * total energy  :  -122.1677383 Eh     change       -0.3287801E-03 Eh
 * total energy  :  -122.1679971 Eh     change       -0.2587402E-03 Eh
 * total energy  :  -122.1681910 Eh     change       -0.1939008E-03 Eh
 * total energy  :  -122.1683433 Eh     change       -0.1523650E-03 Eh
 * total energy  :  -122.1684612 Eh     change       -0.1178364E-03 Eh
 * total energy  :  -122.1694550 Eh     change       -0.3345640E-06 Eh
 * total energy  :  -122.1694552 Eh     change       -0.2412792E-06 Eh
 * total energy  :  -122.1694554 Eh     change       -0.1916262E-06 Eh
 * total energy  :  -122.1694556 Eh     change       -0.1439914E-06 Eh
 * total energy  :  -122.1694557 Eh     change       -0.1444593E-06 Eh
 * total energy  :  -122.1694559 Eh     change       -0.1666028E-06 Eh
 * total energy  :  -122.1694560 Eh     change       -0.1571451E-06 Eh
 * total energy  :  -122.1694562 Eh     change       -0.1084964E-06 Eh
 * total energy  :  -122.1694562 Eh     change       -0.7184305E-07 Eh
   *** GEOMETRY OPTIMIZATION CONVERGED AFTER 114 ITERATIONS ***

 final structure:
================
79
 xtb: 6.7.1 (edcfbbe)
C            0.82046738641647        2.97756548693558        3.22228198302648
C            1.58459841662128        1.74500038239478        2.84289038511993
C            1.74563030212950        0.70879883270761        3.76677673399669
C            2.44694795872527       -0.43892455775282        3.45823396727904
C            2.99563104768108       -0.56489819150358        2.18935570175988
C            3.81062013647725       -1.56084546165881        1.55094378574825
C            4.32503302349849       -2.78900898053482        1.94655476826433
C            5.09783487607372       -3.50461338399754        1.05518226042378
C            5.36604091224750       -3.03231423895011       -0.23439094247992
C            6.20699547330684       -3.85818670800477       -1.16261475488371
C            4.85480280281559       -1.81008232879313       -0.64213092576681
C            4.09045883619260       -1.07867560506238        0.25391752849579
N            3.46719777405086        0.14219094701391        0.07713103786784
C            3.55879420697118        0.93173100179702       -1.07160053525345
C            4.81449502456984        1.36948861723665       -1.48651039476100
C            4.95681816341560        2.16883493105006       -2.60456622471291
C            3.83722677344913        2.55258363566827       -3.32887706137952
C            2.58834524992613        2.10914306474540       -2.94586662745986
C            2.42846236338017        1.28434615543532       -1.82872285110566
C            1.11537104873023        0.75110391157097       -1.54538892995885
N            0.71359129624617        0.03356161594684       -0.53873246936086
N           -0.57330156547654       -0.27649923643467       -0.75163300359327
C           -0.91678967887243        0.25558841471494       -1.88647518277197
C           -2.16714930600812        0.10172829795563       -2.60095762673530
C           -2.15841911901620        0.14183264667520       -3.99525262367800
C           -3.30682486513618       -0.12770190541511       -4.71328718706318
C           -4.48004644069427       -0.44458681780457       -4.04439001418371
C           -4.51177188614884       -0.45307837961085       -2.66223088640933
C           -3.36649706997629       -0.16787527866196       -1.92382438396394
N           -3.43747310258306       -0.09718380005965       -0.53193556715847
C           -3.92522178530071       -1.07633944412511        0.31299225133365
C           -4.35964452642962       -2.35777823562211        0.01138860179177
C           -4.79353675367332       -3.17089498160490        1.04645271002415
C           -5.27740824561335       -4.56411145612078        0.77355730938408
C           -4.77887848249721       -2.69383102579319        2.36207403256360
C           -4.33185237019279       -1.42616383659435        2.67144731319077
C           -3.89696313529521       -0.60135815514227        1.64167692347432
C           -3.38071602810492        0.73819311396808        1.58726457847496
C           -3.17473417267748        1.73006503220425        2.53530486638434
C           -2.70624759969467        2.96184600216342        2.12057597657683
C           -2.43601931801864        3.23168683304883        0.77694031658962
C           -1.94267233817791        4.58415292417703        0.35174429301786
C           -2.63875935178034        2.24589248375937       -0.17888597028100
C           -3.09912743202313        1.00545127096045        0.22873592621928
O            0.11455245333890        0.92821870177000       -2.44970223757707
C            2.80535894753685        0.46716976811398        1.24522502614095
C            2.12006707852997        1.62514158578255        1.56944517864750
H            0.83952801582339        3.13162868523640        4.29861539423508
H            1.23348076101449        3.85625928302968        2.73103348989845
H           -0.21898482045141        2.87147817742302        2.91014560819996
H            1.31426958854494        0.81948961605151        4.75154119588027
H            2.57615998701711       -1.22083581299635        4.19203471249609
H            4.12095221065590       -3.17553652873159        2.93406271480224
H            5.50671295365634       -4.46015382779616        1.35154983956998
H            6.30775207938417       -3.37553533903345       -2.13151523214335
H            5.75856823204805       -4.84060298770733       -1.30704414508391
H            7.20122068662542       -4.00613891400203       -0.74182677446174
H            5.04626114960731       -1.43830652671641       -1.63892582872796
H            5.67767994798589        1.08109705012049       -0.90517521419426
H            5.93823877543677        2.50251495433924       -2.90521057804154
H            3.94010529780166        3.18851383971487       -4.19450227955565
H            1.71455426979339        2.38838411613362       -3.51598270552821
H           -1.23321351278334        0.36406013336436       -4.50668073239637
H           -3.28569783773823       -0.09975573521217       -5.79167716577122
H           -5.37711471348505       -0.66697067683258       -4.60179283289791
H           -5.43112879432729       -0.66156565051774       -2.13597054822116
H           -4.35116497633221       -2.71986439560691       -1.00650721574323
H           -4.65299076109846       -5.28881756049843        1.29520428899013
H           -5.25051108741086       -4.78545556748726       -0.29035639329564
H           -6.29899775310856       -4.68793290370419        1.13135550945845
H           -5.12190585991807       -3.34581438210803        3.15271775553773
H           -4.31601796667669       -1.08032985482364        3.69428812268978
H           -3.38638554287351        1.54501506264519        3.57784637080417
H           -2.55801902110153        3.74599217096538        2.84979578090025
H           -1.00175775691084        4.49362270199026       -0.19098341271454
H           -1.78684189365282        5.23036772605177        1.21152836144291
H           -2.66454599796614        5.05889005687787       -0.31289189911519
H           -2.44974779558865        2.45761212815683       -1.22310677752742
H            2.00425415709144        2.42232531310929        0.84831453526735

          :  Hamiltonian                  GFN2-xTB          :
         :: gradient norm              0.000035971792 Eh/a0 ::
         :: HOMO-LUMO gap              1.933436842561 eV    ::
         :: SCC energy              -124.312120628387 Eh    ::
         :: -> dispersion             -0.110239192577 Eh    ::
         :: -> Gsolv                  -0.050955072894 Eh    ::
         :: repulsion energy           2.142664404700 Eh    ::

    * Orbital Energies and Occupations

         #    Occupation            Energy/Eh            Energy/eV
      -------------------------------------------------------------
         1        2.0000           -0.7738309             -21.0570
       ...           ...                  ...                  ...
       101        2.0000           -0.4154200             -11.3042
       102        2.0000           -0.4136587             -11.2562
       103        2.0000           -0.4118218             -11.2062
       104        2.0000           -0.4086985             -11.1213
       105        2.0000           -0.4047300             -11.0133
       106        2.0000           -0.4038978             -10.9906
       107        2.0000           -0.4004465             -10.8967
       108        2.0000           -0.3985216             -10.8443
       109        2.0000           -0.3892992             -10.5934
       110        2.0000           -0.3681730             -10.0185
       111        2.0000           -0.3639625              -9.9039
       112        2.0000           -0.3612116              -9.8291
       113        2.0000           -0.3587231              -9.7614 (HOMO)
       114                         -0.2876705              -7.8279 (LUMO)
       115                         -0.2648820              -7.2078
       116                         -0.2469745              -6.7205
       117                         -0.2464391              -6.7060
       118                         -0.2385230              -6.4905
       119                         -0.2345770              -6.3832
       120                         -0.2181679              -5.9367
       121                         -0.2142273              -5.8294
       122                         -0.2006807              -5.4608
       123                         -0.1909459              -5.1959
       124                         -0.1893898              -5.1536
       ...                                ...                  ...
       220                          0.7531413              20.4940
      -------------------------------------------------------------
                  HL-Gap            0.0710526 Eh            1.9334 eV

     #   Z          covCN         q      C6AA      α(0)
     1   6 C        3.758    -0.109    22.643     6.784
     2   6 C        2.970     0.013    27.716     8.636
     3   6 C        2.925    -0.051    29.276     8.873
     4   6 C        2.912    -0.037    28.910     8.817
     5   6 C        3.070    -0.019    28.417     8.741
     6   6 C        3.067    -0.020    28.434     8.744
     7   6 C        2.911    -0.037    28.923     8.819
     8   6 C        2.925    -0.053    29.325     8.881
     9   6 C        2.969     0.012    27.753     8.641
    10   6 C        3.758    -0.109    22.641     6.784
    11   6 C        2.915    -0.064    29.591     8.920
    12   6 C        3.074     0.047    26.866     8.498
    13   7 N        2.804    -0.049    22.188     6.996
    14   6 C        2.913     0.071    26.409     8.427
    15   6 C        2.924    -0.039    28.977     8.828
    16   6 C        2.918    -0.023    28.580     8.767
    17   6 C        2.917    -0.031    28.766     8.795
    18   6 C        2.927    -0.029    28.727     8.790
    19   6 C        2.971    -0.022    28.541     8.763
    20   6 C        3.159     0.226    23.004     7.841
    21   7 N        2.047    -0.207    26.226     7.596
    22   7 N        2.044    -0.214    26.406     7.622
    23   6 C        3.163     0.233    22.860     7.815
    24   6 C        2.974    -0.022    28.546     8.764
    25   6 C        2.925    -0.029    28.714     8.788
    26   6 C        2.917    -0.031    28.783     8.798
    27   6 C        2.918    -0.023    28.585     8.767
    28   6 C        2.922    -0.041    29.016     8.833
    29   6 C        2.914     0.071    26.405     8.426
    30   7 N        2.804    -0.048    22.159     6.991
    31   6 C        3.073     0.050    26.805     8.489
    32   6 C        2.915    -0.062    29.539     8.912
    33   6 C        2.969     0.014    27.693     8.632
    34   6 C        3.758    -0.110    22.657     6.786
    35   6 C        2.925    -0.052    29.293     8.876
    36   6 C        2.911    -0.036    28.899     8.815
    37   6 C        3.068    -0.020    28.430     8.743
    38   6 C        3.068    -0.019    28.399     8.738
    39   6 C        2.911    -0.037    28.917     8.818
    40   6 C        2.924    -0.053    29.314     8.879
    41   6 C        2.969     0.010    27.801     8.649
    42   6 C        3.758    -0.105    22.559     6.772
    43   6 C        2.916    -0.062    29.545     8.913
    44   6 C        3.073     0.054    26.720     8.475
    45   8 O        1.722    -0.243    18.016     5.731
    46   6 C        3.072     0.058    26.618     8.459
    47   6 C        2.916    -0.056    29.381     8.889
    48   1 H        0.925     0.045     2.383     2.414
    49   1 H        0.925     0.041     2.433     2.439
    50   1 H        0.924     0.052     2.298     2.371
    51   1 H        0.926     0.030     2.584     2.514
    52   1 H        0.926     0.031     2.570     2.507
    53   1 H        0.926     0.031     2.579     2.511
    54   1 H        0.926     0.031     2.577     2.510
    55   1 H        0.925     0.041     2.435     2.440
    56   1 H        0.925     0.047     2.354     2.399
    57   1 H        0.925     0.049     2.328     2.386
    58   1 H        0.926     0.023     2.691     2.565
    59   1 H        0.926     0.056     2.247     2.344
    60   1 H        0.926     0.058     2.227     2.334
    61   1 H        0.926     0.054     2.270     2.356
    62   1 H        0.926     0.049     2.331     2.388
    63   1 H        0.926     0.046     2.365     2.405
    64   1 H        0.926     0.054     2.269     2.355
    65   1 H        0.926     0.058     2.226     2.333
    66   1 H        0.926     0.057     2.238     2.339
    67   1 H        0.926     0.027     2.625     2.534
    68   1 H        0.925     0.049     2.331     2.387
    69   1 H        0.925     0.042     2.416     2.431
    70   1 H        0.925     0.050     2.318     2.381
    71   1 H        0.926     0.033     2.550     2.497
    72   1 H        0.926     0.032     2.561     2.502
    73   1 H        0.926     0.034     2.535     2.490
    74   1 H        0.926     0.032     2.559     2.502
    75   1 H        0.925     0.039     2.466     2.456
    76   1 H        0.925     0.046     2.370     2.408
    77   1 H        0.925     0.046     2.367     2.406
    78   1 H        0.925     0.009     2.913     2.669
    79   1 H        0.926     0.012     2.864     2.647

molecular dipole:
                 x           y           z       tot (Debye)
 q only:       -0.034       0.437      -1.534
   full:       -0.023       0.779      -2.256       6.066

 projected vibrational frequencies (cm⁻¹)
eigval :       -0.00    -0.00    -0.00     0.00     0.00     0.00
eigval :       10.59    16.70    20.60    30.77    35.93    45.48
eigval :       49.72    55.07    57.31    62.69    63.63    66.48
eigval :       69.89    71.22    82.52   100.41   103.85   115.32
eigval :      118.75   124.23   135.75   140.61   148.49   171.60
eigval :      180.79   181.78   210.92   236.45   244.23   248.18
eigval :      250.27   262.28   283.11   295.52   309.63   316.18
eigval :      322.12   324.73   331.73   359.07   360.61   364.95
eigval :      386.99   400.62   405.96   411.19   424.87   432.05
eigval :      432.59   443.10   448.58   452.77   471.74   498.04
eigval :      502.00   504.48   507.67   534.27   555.28   555.89
eigval :      563.03   565.77   568.32   571.21   597.78   601.59
eigval :      606.71   608.52   640.14   655.48   669.45   670.85
eigval :      678.39   681.84   690.70   703.37   705.11   712.06
eigval :      718.49   726.22   747.96   749.27   770.79   771.68
eigval :      792.05   794.74   806.44   808.24   817.02   819.57
eigval :      867.09   868.51   870.79   873.20   879.21   879.60
eigval :      889.27   889.91   905.89   907.01   909.13   910.04
eigval :      918.31   923.80   929.66   930.11   953.27   958.13
eigval :      971.59   978.05   979.60   980.04  1003.65  1005.74
eigval :     1017.81  1018.34  1030.96  1032.00  1032.23  1036.99
eigval :     1038.43  1041.59  1042.73  1059.96  1091.39  1094.01
eigval :     1118.88  1122.52  1146.60  1147.82  1162.57  1163.19
eigval :     1169.10  1169.84  1174.31  1177.38  1180.96  1186.66
eigval :     1187.15  1205.52  1206.27  1240.43  1241.33  1244.69
eigval :     1247.42  1260.25  1262.26  1265.18  1290.19  1294.17
eigval :     1295.51  1301.91  1302.31  1317.70  1321.91  1355.52
eigval :     1356.25  1360.00  1360.51  1370.22  1371.42  1400.69
eigval :     1401.34  1401.55  1403.62  1411.74  1414.33  1428.01
eigval :     1428.90  1445.41  1446.14  1468.97  1469.87  1472.01
eigval :     1473.97  1477.21  1477.45  1477.71  1478.39  1479.45
eigval :     1483.83  1488.80  1489.69  1500.02  1501.69  1534.12
eigval :     1539.31  1560.53  1563.49  1569.24  1569.70  1582.87
eigval :     1583.19  1591.41  1591.46  1605.96  1606.80  1615.34
eigval :     1616.67  2994.66  2998.29  3000.90  3002.44  3008.66
eigval :     3014.24  3015.69  3026.01  3035.53  3040.89  3042.99
eigval :     3045.50  3054.31  3062.01  3066.98  3068.80  3068.89
eigval :     3071.38  3071.60  3074.28  3082.33  3084.62  3084.68
eigval :     3085.87  3086.49  3087.29  3088.28  3088.57  3096.02
eigval :     3096.70  3104.13  3104.44

   temp. (K)  partition function   enthalpy   heat capacity  entropy
                                   cal/mol     cal/K/mol   cal/K/mol   J/K/mol
 298.15  VIB  0.143E+19            23341.758    143.483    147.576
         ROT  0.581E+08              888.752      2.981     38.508
         INT  0.831E+26            24230.510    146.464    186.085
         TR   0.145E+29             1481.254      4.968     45.081
         TOT                       25711.7643   151.4319   231.1660   967.1987

       T/K    H(0)-H(T)+PV         H(T)/Eh          T*S/Eh         G(T)/Eh
   ------------------------------------------------------------------------
    298.15    0.409743E-01    0.654625E+00    0.109834E+00    0.544790E+00
   ------------------------------------------------------------------------

         :::::::::::::::::::::::::::::::::::::::::::::::::::::
         ::                  THERMODYNAMIC                  ::
         :::::::::::::::::::::::::::::::::::::::::::::::::::::
         :: total free energy        -121.624666052684 Eh   ::
         ::.................................................::
         :: total energy             -122.169456228056 Eh   ::
         :: zero point energy           0.613650317817 Eh   ::
         :: G(RRHO) w/o ZPVE           -0.068860142445 Eh   ::
         :: G(RRHO) contrib.            0.544790175372 Eh   ::
         :::::::::::::::::::::::::::::::::::::::::::::::::::::

           -------------------------------------------------
          | TOTAL ENERGY             -122.169456228056 Eh   |
          | TOTAL ENTHALPY           -121.514831605733 Eh   |
          | TOTAL FREE ENERGY        -121.624666052684 Eh   |
          | GRADIENT NORM               0.000036032623 Eh/α |
          | HOMO-LUMO GAP               1.933440241434 eV   |
           -------------------------------------------------

 * finished run on 2025/08/25 at 08:10:03.602
