   * xtb version 6.7.1 (edcfbbe) compiled by 'albert@albert-system' on 2024-07-22

   ID    Z sym.   atoms
    1    6 C      1-12, 14-20, 23-29, 31-44, 46, 47
    2    7 N      13, 21, 22, 30
    3    8 O      45
    4    1 H      48-79

          program call               : xtb data2507/toluene/2,7-MeCzOXD/2,7-MeCzOXD_toluene_S0_crest.xyz --gfn 2 --gbsa toluene --ohess vtight --parallel 40 --molden --ceasefiles --namespace data2507/toluene/2,7-MeCzOXD/2,7-MeCzOXD_toluene_S0_finalOpt
      * Solvation model:               GBSA
        Solvent                        toluene
        Solvent mass                       9.2140E+01 g/mol
          :  Hamiltonian                  GFN2-xTB          :
 * total energy  :  -122.1684146 Eh     change       -0.1616584E-08 Eh
 * total energy  :  -122.1685353 Eh     change       -0.1207066E-03 Eh
 * total energy  :  -122.1686827 Eh     change       -0.1474251E-03 Eh
 * total energy  :  -122.1687518 Eh     change       -0.6906457E-04 Eh
 * total energy  :  -122.1688338 Eh     change       -0.8204748E-04 Eh
 * total energy  :  -122.1688940 Eh     change       -0.6018633E-04 Eh
 * total energy  :  -122.1689509 Eh     change       -0.5693396E-04 Eh
 * total energy  :  -122.1689822 Eh     change       -0.3123222E-04 Eh
 * total energy  :  -122.1690468 Eh     change       -0.6461850E-04 Eh
 * total energy  :  -122.1691007 Eh     change       -0.5395149E-04 Eh
 * total energy  :  -122.1696955 Eh     change       -0.4156991E-06 Eh
 * total energy  :  -122.1696960 Eh     change       -0.5259012E-06 Eh
 * total energy  :  -122.1696965 Eh     change       -0.5152730E-06 Eh
 * total energy  :  -122.1696968 Eh     change       -0.3308922E-06 Eh
 * total energy  :  -122.1696971 Eh     change       -0.2720219E-06 Eh
 * total energy  :  -122.1696974 Eh     change       -0.2484647E-06 Eh
 * total energy  :  -122.1696976 Eh     change       -0.1978728E-06 Eh
 * total energy  :  -122.1696977 Eh     change       -0.1578635E-06 Eh
 * total energy  :  -122.1696977 Eh     change       -0.2254109E-07 Eh
   *** GEOMETRY OPTIMIZATION CONVERGED AFTER 58 ITERATIONS ***

 final structure:
================
79
 xtb: 6.7.1 (edcfbbe)
C            4.81617314782196        1.21816541368677       -3.85066624451219
C            4.24960548931879        1.51776170291459       -2.49384776729140
C            3.95559359066349        2.84128503558923       -2.14741794261493
C            3.43381731587144        3.17348070078866       -0.91406429999163
C            3.20485224607642        2.16276635785474        0.01104133260985
C            2.69970604818976        2.12883200880069        1.35534336576760
C            2.27577826626035        3.10104057834712        2.25236449222560
C            1.88247005773311        2.71160844323049        3.51556264427591
C            1.90862347689241        1.37149240816778        3.91748872972562
C            1.46688710704533        1.00745182080429        5.30438364170958
C            2.32953279152837        0.39332321548944        3.03167578158131
C            2.70479720097337        0.77517188606180        1.75401736551235
N            3.19300939730141       -0.00049688387805        0.72222562802406
C            3.36509174091039       -1.38915510919895        0.73353556945167
C            4.65370349454755       -1.90855593664759        0.64873097286072
C            4.87196065029169       -3.27354776833990        0.66292521748013
C            3.79777203265846       -4.14591014304199        0.76190351644912
C            2.51196718626992       -3.64803878907781        0.82119473147468
C            2.27421949457115       -2.27173665453110        0.79911222991869
C            0.90987291020951       -1.79641744326862        0.75731813762446
N            0.45580865808181       -0.58954444656202        0.91638827500661
N           -0.86831860938879       -0.62766280972015        0.71861393590596
C           -1.18256087413935       -1.85602434495580        0.43560634533906
C           -2.48882672294496       -2.39728820939396        0.12227451474838
C           -2.75965417881572       -3.73417037283778        0.41212057076138
C           -4.01177183156590       -4.26686395417529        0.17740331438840
C           -5.00984639903887       -3.46732725506321       -0.36001601293958
C           -4.74666532726539       -2.14910032443002       -0.68221357526335
C           -3.48875992138219       -1.59599845993022       -0.45435415981303
N           -3.23994004335665       -0.27437359529591       -0.82702135213719
C           -3.96777745973643        0.82593428958300       -0.40580253143133
C           -5.08095162614067        0.88094066303820        0.41857009739086
C           -5.63023679493104        2.11950735956139        0.71128639092503
C           -6.83936933761901        2.23045545681634        1.59205265591323
C           -5.05402445537541        3.28069116241794        0.18471651314841
C           -3.93273160365928        3.23561379131952       -0.61726551794232
C           -3.37514486139277        1.99942755973112       -0.91846984131330
C           -2.23240851675385        1.58238195874676       -1.68222117165767
C           -1.26600741627225        2.25951691334369       -2.41475574951561
C           -0.28188847772725        1.53148287058916       -3.04867647508929
C           -0.24941884490376        0.13402267601921       -2.99429767567284
C            0.84399161294600       -0.60371761313435       -3.70886939187839
C           -1.21691083376405       -0.55081294919701       -2.27758927191945
C           -2.18383395709833        0.17507700074173       -1.59802594708929
O           -0.09503738478722       -2.66340800418071        0.46134061976101
C            3.50794251568829        0.82811209537297       -0.33614680058630
C            4.01992899812228        0.49934505201961       -1.58196512110166
H            5.78995476679425        1.69386089213133       -3.96566841034264
H            4.93465605698732        0.14729081732860       -3.99708224862387
H            4.16368129179638        1.60785045006152       -4.63114169897223
H            4.14101167534958        3.61885968438677       -2.87487326410446
H            3.20640313467779        4.20070190897577       -0.67053248800971
H            2.26012270953554        4.14248391945902        1.96640118062240
H            1.54831688846275        3.45736743134989        4.22305568291084
H            0.38205013040592        1.08812511698908        5.38157751698791
H            1.90485101620948        1.68228735844641        6.03785643111372
H            1.75260388853045       -0.01277084338435        5.54947289873578
H            2.35917159707177       -0.64583247697895        3.32884352348755
H            5.48296866550543       -1.21984941621341        0.58190912393340
H            5.87908976304852       -3.65721004687225        0.60552930891734
H            3.96309372488448       -5.21199370680404        0.78410190795261
H            1.66987777507762       -4.32178349077857        0.87895322872892
H           -1.97868797699106       -4.34395145169650        0.84240911433996
H           -4.21051384096527       -5.30035134003147        0.41509710103306
H           -5.99090134981494       -3.87764607047687       -0.54487395131834
H           -5.50964255698002       -1.53412227023648       -1.13508949182521
H           -5.50810572955892       -0.01904885650079        0.83625786714297
H           -7.65544684942738        2.71405643809000        1.05604119332312
H           -6.61375291347670        2.83644486641110        2.46895532336867
H           -7.17231961298334        1.25017779631312        1.92353275038204
H           -5.50032756112504        4.23514640216637        0.42514226594083
H           -3.49134135004196        4.14297006263848       -1.00177083115626
H           -1.28405602308759        3.33704389814125       -2.48159199629273
H            0.48515016590323        2.04416707337134       -3.61037149227852
H            1.81353173544891       -0.30289006835839       -3.31270683025162
H            0.83004468925541       -0.36826149482093       -4.77248331703901
H            0.73541766932217       -1.67963776010809       -3.58916151891386
H           -1.20720322509431       -1.63311666963311       -2.24484369728756
H            4.23709176307190       -0.52911239175078       -1.83618846313647

          :  Hamiltonian                  GFN2-xTB          :
         :: gradient norm              0.000113576187 Eh/a0 ::
         :: HOMO-LUMO gap              1.940429120408 eV    ::
         :: SCC energy              -124.312365344115 Eh    ::
         :: -> dispersion             -0.111912873822 Eh    ::
         :: -> Gsolv                  -0.050589281224 Eh    ::
         :: repulsion energy           2.142667603801 Eh    ::

    * Orbital Energies and Occupations

         #    Occupation            Energy/Eh            Energy/eV
      -------------------------------------------------------------
         1        2.0000           -0.7734072             -21.0455
       ...           ...                  ...                  ...
       101        2.0000           -0.4145246             -11.2798
       102        2.0000           -0.4135367             -11.2529
       103        2.0000           -0.4118480             -11.2070
       104        2.0000           -0.4074576             -11.0875
       105        2.0000           -0.4051809             -11.0255
       106        2.0000           -0.4032218             -10.9722
       107        2.0000           -0.3997264             -10.8771
       108        2.0000           -0.3969410             -10.8013
       109        2.0000           -0.3885618             -10.5733
       110        2.0000           -0.3662336              -9.9657
       111        2.0000           -0.3637440              -9.8980
       112        2.0000           -0.3608505              -9.8192
       113        2.0000           -0.3583979              -9.7525 (HOMO)
       114                         -0.2870884              -7.8121 (LUMO)
       115                         -0.2644603              -7.1963
       116                         -0.2469639              -6.7202
       117                         -0.2462493              -6.7008
       118                         -0.2360790              -6.4240
       119                         -0.2345009              -6.3811
       120                         -0.2166245              -5.8947
       121                         -0.2141239              -5.8266
       122                         -0.2008854              -5.4664
       123                         -0.1908776              -5.1940
       124                         -0.1878482              -5.1116
       ...                                ...                  ...
       220                          0.7528734              20.4867
      -------------------------------------------------------------
                  HL-Gap            0.0713095 Eh            1.9404 eV

     #   Z          covCN         q      C6AA      α(0)
     1   6 C        3.758    -0.108    22.619     6.781
     2   6 C        2.969     0.011    27.767     8.643
     3   6 C        2.925    -0.053    29.324     8.880
     4   6 C        2.911    -0.037    28.909     8.817
     5   6 C        3.068    -0.020    28.432     8.743
     6   6 C        3.070    -0.019    28.414     8.740
     7   6 C        2.911    -0.036    28.902     8.816
     8   6 C        2.925    -0.052    29.294     8.876
     9   6 C        2.970     0.013    27.720     8.636
    10   6 C        3.758    -0.108    22.612     6.780
    11   6 C        2.915    -0.056    29.391     8.890
    12   6 C        3.075     0.059    26.598     8.456
    13   7 N        2.805    -0.051    22.229     7.002
    14   6 C        2.913     0.072    26.398     8.425
    15   6 C        2.923    -0.038    28.956     8.824
    16   6 C        2.918    -0.023    28.578     8.766
    17   6 C        2.917    -0.030    28.744     8.792
    18   6 C        2.926    -0.029    28.714     8.788
    19   6 C        2.972    -0.020    28.504     8.758
    20   6 C        3.164     0.226    22.971     7.833
    21   7 N        2.049    -0.205    26.191     7.591
    22   7 N        2.046    -0.213    26.364     7.616
    23   6 C        3.166     0.233    22.839     7.809
    24   6 C        2.974    -0.023    28.578     8.769
    25   6 C        2.925    -0.029    28.713     8.788
    26   6 C        2.917    -0.032    28.795     8.800
    27   6 C        2.918    -0.023    28.591     8.768
    28   6 C        2.923    -0.041    29.028     8.835
    29   6 C        2.913     0.071    26.406     8.426
    30   7 N        2.802    -0.049    22.192     6.997
    31   6 C        3.072     0.049    26.822     8.492
    32   6 C        2.915    -0.063    29.562     8.916
    33   6 C        2.969     0.013    27.710     8.635
    34   6 C        3.758    -0.110    22.658     6.786
    35   6 C        2.925    -0.052    29.296     8.876
    36   6 C        2.911    -0.036    28.903     8.816
    37   6 C        3.069    -0.019    28.409     8.740
    38   6 C        3.069    -0.018    28.383     8.736
    39   6 C        2.911    -0.036    28.889     8.813
    40   6 C        2.926    -0.051    29.264     8.871
    41   6 C        2.969     0.009    27.816     8.651
    42   6 C        3.758    -0.105    22.555     6.771
    43   6 C        2.915    -0.058    29.448     8.899
    44   6 C        3.071     0.057    26.653     8.465
    45   8 O        1.722    -0.243    18.016     5.731
    46   6 C        3.076     0.048    26.843     8.494
    47   6 C        2.914    -0.065    29.609     8.923
    48   1 H        0.925     0.049     2.338     2.391
    49   1 H        0.925     0.040     2.443     2.444
    50   1 H        0.925     0.047     2.352     2.398
    51   1 H        0.926     0.030     2.585     2.514
    52   1 H        0.926     0.030     2.587     2.515
    53   1 H        0.926     0.031     2.577     2.510
    54   1 H        0.926     0.030     2.582     2.513
    55   1 H        0.924     0.047     2.354     2.399
    56   1 H        0.925     0.048     2.344     2.394
    57   1 H        0.925     0.039     2.465     2.455
    58   1 H        0.925     0.013     2.836     2.633
    59   1 H        0.926     0.056     2.245     2.343
    60   1 H        0.926     0.058     2.219     2.329
    61   1 H        0.926     0.055     2.260     2.351
    62   1 H        0.926     0.049     2.334     2.389
    63   1 H        0.926     0.045     2.377     2.411
    64   1 H        0.926     0.054     2.276     2.359
    65   1 H        0.926     0.057     2.232     2.336
    66   1 H        0.926     0.057     2.231     2.336
    67   1 H        0.926     0.028     2.611     2.527
    68   1 H        0.925     0.050     2.319     2.382
    69   1 H        0.925     0.049     2.335     2.390
    70   1 H        0.925     0.043     2.415     2.430
    71   1 H        0.926     0.032     2.553     2.498
    72   1 H        0.926     0.031     2.565     2.505
    73   1 H        0.926     0.033     2.541     2.493
    74   1 H        0.926     0.031     2.572     2.508
    75   1 H        0.925     0.048     2.348     2.396
    76   1 H        0.925     0.050     2.320     2.382
    77   1 H        0.925     0.033     2.546     2.495
    78   1 H        0.925     0.004     2.986     2.702
    79   1 H        0.925     0.020     2.728     2.583

molecular dipole:
                 x           y           z       tot (Debye)
 q only:       -0.062      -1.547      -0.128
   full:       -0.018      -2.335      -0.139       5.946

 projected vibrational frequencies (cm⁻¹)
eigval :       -0.00    -0.00     0.00     0.00     0.00     0.00
eigval :       10.47    18.07    21.54    27.40    32.21    47.07
eigval :       50.73    53.66    56.17    60.53    63.64    65.76
eigval :       69.16    76.49    85.70    88.69   101.98   115.98
eigval :      117.99   120.16   137.84   138.26   148.06   172.13
eigval :      182.61   188.20   213.10   236.05   242.51   248.45
eigval :      252.27   268.15   275.39   299.26   311.95   317.87
eigval :      323.82   325.63   337.02   357.95   358.77   366.91
eigval :      381.96   399.33   405.84   412.58   425.06   430.70
eigval :      434.67   436.49   447.04   461.54   472.53   490.46
eigval :      501.17   502.89   509.35   534.68   556.45   556.70
eigval :      562.10   563.85   567.66   569.25   597.04   602.63
eigval :      606.59   607.86   641.42   656.40   669.68   669.75
eigval :      679.28   681.99   688.89   702.79   704.66   710.82
eigval :      718.99   726.84   748.40   749.41   769.61   771.82
eigval :      791.49   793.46   805.10   807.77   816.65   817.93
eigval :      866.57   868.82   869.60   875.94   879.24   879.73
eigval :      886.35   890.67   903.88   904.25   908.78   909.95
eigval :      918.07   920.25   929.20   930.37   953.97   958.83
eigval :      971.88   978.36   978.83   980.33  1006.05  1006.44
eigval :     1017.24  1017.74  1029.96  1031.53  1033.34  1035.13
eigval :     1037.81  1039.75  1040.92  1059.45  1091.08  1092.50
eigval :     1117.87  1121.87  1146.55  1147.18  1163.13  1163.60
eigval :     1167.95  1168.83  1174.94  1176.33  1182.14  1185.22
eigval :     1186.95  1205.74  1206.83  1240.67  1242.28  1244.45
eigval :     1246.97  1259.74  1261.46  1265.83  1290.78  1294.61
eigval :     1296.83  1301.37  1303.47  1316.26  1320.47  1356.19
eigval :     1356.86  1359.74  1360.36  1367.71  1369.21  1399.24
eigval :     1401.19  1401.65  1404.72  1412.74  1415.39  1427.30
eigval :     1429.64  1447.02  1447.24  1467.96  1469.92  1471.07
eigval :     1472.58  1476.60  1478.19  1478.88  1479.06  1479.43
eigval :     1480.76  1490.87  1492.52  1503.58  1504.47  1536.67
eigval :     1541.36  1561.21  1562.43  1568.26  1569.52  1583.27
eigval :     1584.27  1589.42  1589.97  1606.52  1606.70  1615.77
eigval :     1617.04  2994.45  3000.15  3001.75  3002.05  3013.67
eigval :     3015.30  3015.38  3020.60  3029.41  3036.41  3039.13
eigval :     3041.26  3042.79  3060.11  3061.27  3069.17  3070.76
eigval :     3071.49  3075.21  3077.47  3081.96  3083.38  3085.28
eigval :     3085.82  3086.51  3088.00  3088.22  3089.76  3095.40
eigval :     3097.04  3103.78  3104.64

   temp. (K)  partition function   enthalpy   heat capacity  entropy
                                   cal/mol     cal/K/mol   cal/K/mol   J/K/mol
 298.15  VIB  0.166E+19            23353.650    143.402    147.663
         ROT  0.526E+08              888.752      2.981     38.312
         INT  0.872E+26            24242.402    146.383    185.976
         TR   0.145E+29             1481.254      4.968     45.081
         TOT                       25723.6561   151.3507   231.0571   966.7430

       T/K    H(0)-H(T)+PV         H(T)/Eh          T*S/Eh         G(T)/Eh
   ------------------------------------------------------------------------
    298.15    0.409933E-01    0.654528E+00    0.109783E+00    0.544745E+00
   ------------------------------------------------------------------------

         :::::::::::::::::::::::::::::::::::::::::::::::::::::
         ::                  THERMODYNAMIC                  ::
         :::::::::::::::::::::::::::::::::::::::::::::::::::::
         :: total free energy        -121.624952886117 Eh   ::
         ::.................................................::
         :: total energy             -122.169697735984 Eh   ::
         :: zero point energy           0.613534286737 Eh   ::
         :: G(RRHO) w/o ZPVE           -0.068789436871 Eh   ::
         :: G(RRHO) contrib.            0.544744849867 Eh   ::
         :::::::::::::::::::::::::::::::::::::::::::::::::::::

           -------------------------------------------------
          | TOTAL ENERGY             -122.169697735984 Eh   |
          | TOTAL ENTHALPY           -121.515170193997 Eh   |
          | TOTAL FREE ENERGY        -121.624952886117 Eh   |
          | GRADIENT NORM               0.000113589659 Eh/α |
          | HOMO-LUMO GAP               1.940429005480 eV   |
           -------------------------------------------------

 * finished run on 2025/08/25 at 08:16:33.587
