   * xtb version 6.7.1 (edcfbbe) compiled by 'albert@albert-system' on 2024-07-22

   ID    Z sym.   atoms
    1    6 C      1-12, 14-20, 23-29, 31-44, 46, 47
    2    7 N      13, 21, 22, 30
    3    8 O      45
    4    1 H      48-79

          program call               : xtb data2507/toluene/2,7-MeCzOXD/2,7-MeCzOXD_toluene_T1_crest.xyz --gfn 2 --uhf 2 --gbsa toluene --ohess vtight --parallel 40 --molden --ceasefiles --namespace data2507/toluene/2,7-MeCzOXD/2,7-MeCzOXD_toluene_T1_finalOpt
      * Solvation model:               GBSA
        Solvent                        toluene
        Solvent mass                       9.2140E+01 g/mol
          :  Hamiltonian                  GFN2-xTB          :
 * total energy  :  -122.0842237 Eh     change       -0.5380372E-08 Eh
 * total energy  :  -122.0843695 Eh     change       -0.1457371E-03 Eh
 * total energy  :  -122.0845315 Eh     change       -0.1620619E-03 Eh
 * total energy  :  -122.0845989 Eh     change       -0.6742664E-04 Eh
 * total energy  :  -122.0847072 Eh     change       -0.1082280E-03 Eh
 * total energy  :  -122.0848471 Eh     change       -0.1399439E-03 Eh
 * total energy  :  -122.0850153 Eh     change       -0.1681856E-03 Eh
 * total energy  :  -122.0851532 Eh     change       -0.1379049E-03 Eh
 * total energy  :  -122.0852508 Eh     change       -0.9763123E-04 Eh
 * total energy  :  -122.0853471 Eh     change       -0.9630070E-04 Eh
 * total energy  :  -122.0864183 Eh     change       -0.2845444E-06 Eh
 * total energy  :  -122.0864186 Eh     change       -0.3085059E-06 Eh
 * total energy  :  -122.0864189 Eh     change       -0.3198509E-06 Eh
 * total energy  :  -122.0864192 Eh     change       -0.2970174E-06 Eh
 * total energy  :  -122.0864195 Eh     change       -0.2172494E-06 Eh
 * total energy  :  -122.0864196 Eh     change       -0.1480409E-06 Eh
 * total energy  :  -122.0864197 Eh     change       -0.1030740E-06 Eh
 * total energy  :  -122.0864198 Eh     change       -0.1047457E-06 Eh
 * total energy  :  -122.0864199 Eh     change       -0.7969057E-07 Eh
   *** GEOMETRY OPTIMIZATION CONVERGED AFTER 82 ITERATIONS ***

 final structure:
================
79
 xtb: 6.7.1 (edcfbbe)
C            5.67358786773795       -0.85109847944125        3.20484711135023
C            4.76665436345383       -1.27166678155858        2.08743877657754
C            4.23920455038088       -2.56522971401395        2.07488155135131
C            3.39341749994366       -3.00264780662468        1.06920008401363
C            3.07080704050339       -2.12887231472137        0.04327171949146
C            2.24009964870511       -2.21683044546195       -1.12920465952733
C            1.46539515335894       -3.21717554957924       -1.69214667493753
C            0.79463024598294       -2.95077935401377       -2.87228758035574
C            0.88879207340004       -1.71060645051305       -3.51920182551717
C            0.14222839857359       -1.49386545778560       -4.80093794720663
C            1.65989189080664       -0.70411481282570       -2.96686417869892
C            2.31314088746554       -0.95192959009699       -1.76383666938717
N            3.14253589462044       -0.12944547531889       -1.04954727718244
C            3.36499518264485        1.23725798280705       -1.28757538756176
C            4.64652926808164        1.67025863727566       -1.57499577248963
C            4.91725022037094        3.01279677540940       -1.79591872401332
C            3.87996557233811        3.94369405087844       -1.71299738716189
C            2.60547942954447        3.54005268284952       -1.40895755572852
C            2.29973353688464        2.17821690637745       -1.17596921474529
C            1.00211344270286        1.80948965488084       -0.76476389514977
N            0.48945943295528        0.59348126802599       -0.63651224585745
N           -0.74598233999779        0.69894760595253       -0.23989472713720
C           -1.03771207909182        1.98645441803055       -0.08803256346911
C           -2.25807980842853        2.53581239990389        0.34465997244600
C           -2.50590645728367        3.92585075698437        0.25803365239899
C           -3.73113551115999        4.44772476093120        0.58200758989074
C           -4.77035676528637        3.61405012546769        1.00541884473981
C           -4.54630121342385        2.25082259035028        1.12977828969540
C           -3.31080229536844        1.70365606803884        0.83445378645726
N           -3.09226690931386        0.33236811038101        1.02295683819079
C           -3.75430600523542       -0.68106180431660        0.37850009096654
C           -4.79566661235131       -0.60267275008427       -0.54009224644688
C           -5.29974494273669       -1.77750575313409       -1.07172713935954
C           -6.42436963686137       -1.75231920166700       -2.06250014013322
C           -4.75157067056126       -3.00828277485229       -0.68498719167598
C           -3.70477514253849       -3.09549777834396        0.21491147568306
C           -3.19525228791217       -1.92709704707369        0.75873965665270
C           -2.14193002990615       -1.63002220312069        1.69299310394688
C           -1.24432707566382       -2.40176455477306        2.41310542149954
C           -0.35774443800406       -1.76760681975187        3.26628394977210
C           -0.35977520733262       -0.38152962513508        3.43580058644941
C            0.62169603257305        0.26213584838355        4.36895484614741
C           -1.25685076288712        0.40013039562794        2.71905358665304
C           -2.11695299928730       -0.22436248040208        1.83024991857406
O            0.04399231253598        2.76867250366895       -0.45352521707234
C            3.60897708524461       -0.82197323222793        0.05050266487683
C            4.44677765847280       -0.38646820939254        1.06521802297976
H            6.57683037600902       -1.46046813208440        3.20759179220192
H            5.95976636660708        0.19247827506406        3.10263998483642
H            5.17995672099799       -0.98600684264333        4.16632613713603
H            4.49936694390193       -3.23776305159770        2.87941269800963
H            2.98850628736741       -4.00299626511697        1.08763494629683
H            1.38607212676114       -4.18490634888252       -1.22060246993151
H            0.18067327710311       -3.71926691033614       -3.31939423460620
H           -0.93139637865050       -1.51922553171961       -4.61468069854479
H            0.37572909050258       -2.28002650504895       -5.51740557600179
H            0.39312834671189       -0.53180449093426       -5.24036474803569
H            1.74579506575338        0.26047371760485       -3.44610810876238
H            5.43842577377814        0.93757218394591       -1.64236754033754
H            5.91866666339796        3.33164385215697       -2.03831703297430
H            4.08441634114729        4.99023359874933       -1.88688707849639
H            1.80260891481185        4.25909765281098       -1.33437021189758
H           -1.70418462544500        4.56441217077751       -0.08365995219125
H           -3.89858723310754        5.51238324333947        0.50591009697655
H           -5.73347826414960        4.02976050636221        1.25589702852396
H           -5.33035404194540        1.60245856474858        1.49459242318851
H           -5.19536293034985        0.35647445342092       -0.83488938317171
H           -7.25596941651695       -2.35933511294136       -1.70725574965598
H           -6.09614463170905       -2.16476299249068       -3.01611954615484
H           -6.77655195586519       -0.73737075287868       -2.22666980691718
H           -5.16100774902256       -3.91191929932430       -1.11277874906030
H           -3.29204146254248       -4.05474391667400        0.48752288153839
H           -1.23604857922285       -3.47643631871359        2.31278234156785
H            0.35438135593714       -2.35681712215180        3.82540274231847
H            1.54838645439483        0.47948197560468        3.83566384354694
H            0.85853380448515       -0.39856677320252        5.19950043687540
H            0.23037428728116        1.19899072525569        4.75938284614350
H           -1.27115968244999        1.47455168882093        2.83918930258193
H            4.83711689307839        0.62101564778231        1.06237665671564

          :  Hamiltonian                  GFN2-xTB          :
         :: gradient norm              0.000070178481 Eh/a0 ::
         :: HOMO-LUMO gap              0.658149215721 eV    ::
         :: SCC energy              -124.211283634663 Eh    ::
         :: -> dispersion             -0.110433423732 Eh    ::
         :: -> Gsolv                  -0.052426280030 Eh    ::
         :: repulsion energy           2.124863738718 Eh    ::

    * Orbital Energies and Occupations

         #    Occupation            Energy/Eh            Energy/eV
      -------------------------------------------------------------
         1        2.0000           -0.7287477             -19.8302
       ...           ...                  ...                  ...
       102        2.0000           -0.4131432             -11.2422
       103        2.0000           -0.4096595             -11.1474
       104        2.0000           -0.4085660             -11.1176
       105        2.0000           -0.4081069             -11.1052
       106        2.0000           -0.4069904             -11.0748
       107        2.0000           -0.4015837             -10.9276
       108        2.0000           -0.3762870             -10.2393
       109        2.0000           -0.3744457             -10.1892
       110        1.9998           -0.3728840             -10.1467
       111        1.9825           -0.3687687             -10.0347
       112        1.8097           -0.3663172              -9.9680
       113        1.2080           -0.3636713              -9.8960
       114        1.0000           -0.2747785              -7.4771 (HOMO)
       115        0.0000           -0.2505920              -6.8190 (LUMO)
       116                         -0.2445016              -6.6532
       117                         -0.2426140              -6.6019
       118                         -0.2272157              -6.1829
       119                         -0.2270227              -6.1776
       120                         -0.2250633              -6.1243
       121                         -0.2249728              -6.1218
       122                         -0.1959903              -5.3332
       123                         -0.1949541              -5.3050
       124                         -0.1875987              -5.1048
       125                         -0.1873688              -5.0986
       ...                                ...                  ...
       220                          0.7429255              20.2160
      -------------------------------------------------------------
                  HL-Gap            0.0241865 Eh            0.6581 eV

     #   Z          covCN         q      C6AA      α(0)
     1   6 C        3.758    -0.112    22.694     6.792
     2   6 C        2.968     0.018    27.614     8.620
     3   6 C        2.925    -0.046    29.144     8.853
     4   6 C        2.911    -0.030    28.754     8.793
     5   6 C        3.065    -0.015    28.326     8.727
     6   6 C        3.069    -0.009    28.171     8.703
     7   6 C        2.910    -0.031    28.763     8.794
     8   6 C        2.926    -0.039    28.972     8.827
     9   6 C        2.968     0.020    27.560     8.611
    10   6 C        3.758    -0.111    22.667     6.788
    11   6 C        2.914    -0.044    29.084     8.843
    12   6 C        3.078     0.067    26.416     8.426
    13   7 N        2.804    -0.020    21.630     6.907
    14   6 C        2.912     0.047    26.943     8.512
    15   6 C        2.918    -0.043    29.065     8.841
    16   6 C        2.916    -0.048    29.184     8.859
    17   6 C        2.913    -0.034    28.844     8.807
    18   6 C        2.922    -0.043    29.064     8.841
    19   6 C        2.966    -0.030    28.746     8.794
    20   6 C        3.092     0.197    23.725     7.983
    21   7 N        2.031    -0.208    26.262     7.601
    22   7 N        2.035    -0.207    26.256     7.600
    23   6 C        3.090     0.199    23.685     7.977
    24   6 C        2.967    -0.031    28.762     8.797
    25   6 C        2.920    -0.044    29.082     8.843
    26   6 C        2.913    -0.034    28.837     8.806
    27   6 C        2.916    -0.049    29.205     8.862
    28   6 C        2.917    -0.044    29.083     8.843
    29   6 C        2.913     0.047    26.945     8.512
    30   7 N        2.803    -0.011    21.468     6.882
    31   6 C        3.076     0.054    26.705     8.473
    32   6 C        2.914    -0.053    29.326     8.880
    33   6 C        2.967     0.019    27.582     8.615
    34   6 C        3.758    -0.113    22.709     6.794
    35   6 C        2.925    -0.042    29.039     8.837
    36   6 C        2.910    -0.032    28.797     8.799
    37   6 C        3.068    -0.009    28.182     8.705
    38   6 C        3.065    -0.013    28.281     8.720
    39   6 C        2.911    -0.030    28.748     8.792
    40   6 C        2.925    -0.045    29.124     8.850
    41   6 C        2.968     0.016    27.641     8.624
    42   6 C        3.758    -0.108    22.622     6.781
    43   6 C        2.915    -0.048    29.180     8.858
    44   6 C        3.078     0.061    26.540     8.446
    45   8 O        1.712    -0.310    19.165     5.911
    46   6 C        3.081     0.049    26.804     8.488
    47   6 C        2.914    -0.053    29.316     8.879
    48   1 H        0.925     0.055     2.262     2.352
    49   1 H        0.925     0.044     2.393     2.419
    50   1 H        0.925     0.054     2.276     2.359
    51   1 H        0.926     0.043     2.408     2.427
    52   1 H        0.926     0.043     2.403     2.424
    53   1 H        0.926     0.045     2.378     2.412
    54   1 H        0.926     0.046     2.370     2.408
    55   1 H        0.925     0.054     2.277     2.360
    56   1 H        0.925     0.055     2.256     2.349
    57   1 H        0.925     0.042     2.417     2.431
    58   1 H        0.926     0.027     2.630     2.536
    59   1 H        0.926     0.039     2.469     2.457
    60   1 H        0.926     0.035     2.523     2.484
    61   1 H        0.926     0.032     2.561     2.502
    62   1 H        0.926     0.028     2.610     2.527
    63   1 H        0.926     0.027     2.625     2.534
    64   1 H        0.926     0.032     2.560     2.502
    65   1 H        0.926     0.034     2.526     2.485
    66   1 H        0.926     0.039     2.466     2.456
    67   1 H        0.926     0.036     2.499     2.472
    68   1 H        0.925     0.055     2.254     2.348
    69   1 H        0.925     0.055     2.264     2.353
    70   1 H        0.925     0.046     2.373     2.409
    71   1 H        0.926     0.046     2.375     2.410
    72   1 H        0.926     0.045     2.388     2.417
    73   1 H        0.926     0.044     2.393     2.419
    74   1 H        0.926     0.042     2.428     2.437
    75   1 H        0.924     0.049     2.336     2.390
    76   1 H        0.925     0.052     2.293     2.368
    77   1 H        0.925     0.044     2.394     2.420
    78   1 H        0.925     0.022     2.708     2.574
    79   1 H        0.926     0.033     2.546     2.495

molecular dipole:
                 x           y           z       tot (Debye)
 q only:       -0.098      -2.275       0.327
   full:       -0.054      -1.361       0.244       3.516

 projected vibrational frequencies (cm⁻¹)
eigval :       -0.00    -0.00    -0.00     0.00     0.00     0.00
eigval :      -15.61     7.89    14.18    19.31    26.26    31.90
eigval :       46.39    53.73    55.02    59.92    61.55    66.96
eigval :       78.70    84.53    89.70    93.22    99.64   110.81
eigval :      115.03   122.65   134.23   141.36   146.71   152.27
eigval :      177.46   178.70   209.26   229.20   236.31   243.48
eigval :      248.01   261.61   266.51   298.97   301.98   315.65
eigval :      319.69   324.35   326.74   354.15   355.18   371.74
eigval :      379.42   396.63   399.11   404.82   412.56   421.13
eigval :      424.96   425.54   438.10   451.41   457.90   473.22
eigval :      488.75   498.27   499.87   526.33   549.31   550.73
eigval :      551.55   553.57   571.37   573.49   586.86   592.65
eigval :      600.21   603.48   604.21   629.56   649.95   653.53
eigval :      666.06   668.65   669.41   674.69   680.69   703.48
eigval :      704.07   706.96   744.01   745.62   746.58   748.19
eigval :      775.67   776.72   801.55   803.67   810.94   812.32
eigval :      838.48   844.80   861.22   863.12   864.13   864.98
eigval :      871.71   872.94   892.35   893.12   895.37   899.07
eigval :      900.42   900.60   903.99   905.22   907.62   909.44
eigval :      956.64   960.59   974.34   974.76  1003.21  1003.80
eigval :     1006.75  1014.77  1017.03  1018.51  1027.99  1029.55
eigval :     1030.04  1030.83  1031.16  1035.21  1073.74  1077.56
eigval :     1098.32  1102.52  1134.60  1139.71  1151.64  1154.94
eigval :     1157.09  1159.27  1168.48  1170.90  1173.41  1174.34
eigval :     1196.29  1197.16  1216.09  1220.79  1230.37  1231.27
eigval :     1233.20  1240.59  1246.01  1249.61  1254.53  1256.55
eigval :     1275.29  1285.63  1289.28  1317.99  1318.79  1330.81
eigval :     1334.39  1347.83  1352.30  1362.04  1365.19  1366.11
eigval :     1390.66  1397.30  1399.97  1400.78  1401.16  1401.55
eigval :     1401.90  1403.06  1413.85  1416.61  1422.63  1428.28
eigval :     1460.14  1461.75  1470.28  1471.70  1474.46  1475.62
eigval :     1475.84  1481.07  1483.67  1484.56  1487.85  1489.39
eigval :     1494.64  1496.05  1524.53  1545.12  1546.67  1551.46
eigval :     1572.48  1575.88  1577.55  1581.64  1583.21  1589.63
eigval :     1592.24  2992.59  3002.29  3004.59  3004.61  3017.96
eigval :     3019.14  3019.26  3033.92  3037.57  3042.15  3045.37
eigval :     3047.46  3066.34  3071.56  3071.88  3073.38  3073.73
eigval :     3074.27  3076.58  3077.46  3078.21  3078.38  3079.10
eigval :     3082.36  3082.96  3084.27  3090.41  3090.94  3092.41
eigval :     3093.83  3098.75  3099.70

   temp. (K)  partition function   enthalpy   heat capacity  entropy
                                   cal/mol     cal/K/mol   cal/K/mol   J/K/mol
 298.15  VIB  0.132E+20            23771.365    145.390    150.713
         ROT  0.507E+08              888.752      2.981     38.237
         INT  0.671E+27            24660.117    148.371    188.950
         TR   0.145E+29             1481.254      4.968     45.081
         TOT                       26141.3711   153.3388   234.0315   979.1878

       T/K    H(0)-H(T)+PV         H(T)/Eh          T*S/Eh         G(T)/Eh
   ------------------------------------------------------------------------
    298.15    0.416589E-01    0.649568E+00    0.111196E+00    0.538372E+00
   ------------------------------------------------------------------------

         :::::::::::::::::::::::::::::::::::::::::::::::::::::
         ::                  THERMODYNAMIC                  ::
         :::::::::::::::::::::::::::::::::::::::::::::::::::::
         :: total free energy        -121.548047797256 Eh   ::
         ::.................................................::
         :: total energy             -122.086419892354 Eh   ::
         :: zero point energy           0.607909089565 Eh   ::
         :: G(RRHO) w/o ZPVE           -0.069536994468 Eh   ::
         :: G(RRHO) contrib.            0.538372095097 Eh   ::
         :::::::::::::::::::::::::::::::::::::::::::::::::::::

           -------------------------------------------------
          | TOTAL ENERGY             -122.086419892354 Eh   |
          | TOTAL ENTHALPY           -121.436851876283 Eh   |
          | TOTAL FREE ENERGY        -121.548047797256 Eh   |
          | GRADIENT NORM               0.000069416201 Eh/α |
          | HOMO-LUMO GAP               0.658149501555 eV   |
           -------------------------------------------------

 * finished run on 2025/08/25 at 08:24:49.617
