   * xtb version 6.7.1 (edcfbbe) compiled by 'albert@albert-system' on 2024-07-22

   ID    Z sym.   atoms
    1    6 C      1-14, 16-44, 46-49
    2    7 N      15, 45
    3    1 H      50-89

          program call               : xtb data2507/toluene/mCz-TAn-CN/mCz-TAn-CN_toluene_T1_crest.xyz --gfn 2 --uhf 2 --gbsa toluene --ohess vtight --parallel 40 --molden --ceasefiles --namespace data2507/toluene/mCz-TAn-CN/mCz-TAn-CN_toluene_T1_finalOpt
      * Solvation model:               GBSA
        Solvent                        toluene
        Solvent mass                       9.2140E+01 g/mol
          :  Hamiltonian                  GFN2-xTB          :
 * total energy  :  -126.9134554 Eh     change       -0.2778961E-08 Eh
 * total energy  :  -126.9135113 Eh     change       -0.5588531E-04 Eh
 * total energy  :  -126.9135362 Eh     change       -0.2488515E-04 Eh
 * total energy  :  -126.9135079 Eh     change        0.2826714E-04 Eh
 * total energy  :  -126.9135556 Eh     change       -0.4768169E-04 Eh
 * total energy  :  -126.9135748 Eh     change       -0.1924683E-04 Eh
 * total energy  :  -126.9135903 Eh     change       -0.1546914E-04 Eh
 * total energy  :  -126.9136188 Eh     change       -0.2853727E-04 Eh
 * total energy  :  -126.9136447 Eh     change       -0.2590739E-04 Eh
 * total energy  :  -126.9136572 Eh     change       -0.1250491E-04 Eh
 * total energy  :  -126.9140639 Eh     change       -0.4796690E-06 Eh
 * total energy  :  -126.9140643 Eh     change       -0.4390034E-06 Eh
 * total energy  :  -126.9140647 Eh     change       -0.3947077E-06 Eh
 * total energy  :  -126.9140651 Eh     change       -0.3542844E-06 Eh
 * total energy  :  -126.9140654 Eh     change       -0.3461714E-06 Eh
 * total energy  :  -126.9140658 Eh     change       -0.3638880E-06 Eh
 * total energy  :  -126.9140662 Eh     change       -0.4071680E-06 Eh
 * total energy  :  -126.9140667 Eh     change       -0.4703826E-06 Eh
 * total energy  :  -126.9140667 Eh     change       -0.3070767E-08 Eh
   *** GEOMETRY OPTIMIZATION CONVERGED AFTER 68 ITERATIONS ***

 final structure:
================
89
 xtb: 6.7.1 (edcfbbe)
C           -5.99922474629038       -3.37716646797852        1.47409148349157
C           -5.14655169760808       -3.74247245765120        0.24882623024800
C           -4.89036279178401       -5.25223984934359        0.27434524179719
C           -5.91868644908881       -3.40801148954586       -1.03682135963401
C           -3.86224837517754       -2.93431290776795        0.29015536086485
C           -2.60156408482900       -3.50365834804309        0.36495145678095
C           -1.46579613542132       -2.71076994611594        0.48010669656197
C           -1.53687331271261       -1.31362247389388        0.50946069930992
C           -0.39420385367578       -0.50097065653949        0.74557326479446
C            0.89319128962064       -1.12328407969089        1.05440721867607
C            1.02577388328042       -1.99438180081193        2.13990446785365
C            2.24941985594372       -2.56147039290311        2.44076253004918
C            3.36234791907654       -2.28971112802612        1.66347837564229
C            3.24536439687468       -1.42674502435316        0.57629226845938
N            4.36595362705915       -1.14467612053428       -0.22319057011804
C            4.43451747209529       -1.27927900342066       -1.59508214058622
C            3.47180455106267       -1.72880419553933       -2.48816305354796
C            3.81265489006537       -1.79238361835507       -3.82581455777831
C            5.08135020336643       -1.42663389415943       -4.27204858490919
C            6.04915105409801       -0.99659311864471       -3.38589669340719
C            5.73092002636764       -0.92397964442916       -2.03560154847205
C            6.47208875502929       -0.55084236167335       -0.86305300704601
C            7.76903550475552       -0.09961854582042       -0.65307930822080
C            8.16604111139619        0.19944020376607        0.63532294486304
C            7.28441439159484        0.06550065018825        1.70644194844278
C            5.99040080267283       -0.38339453077194        1.52354344609012
C            5.59225855772450       -0.70612703103573        0.23350856428023
C            2.02083944261498       -0.84367379572473        0.28078557700617
C           -0.50511414816747        0.92152571210957        0.69197663110222
C            0.57477876425317        1.75062532009123        0.99966076861967
C            0.53262953500254        3.14353034626200        0.85835164418076
C            1.76197551089263        3.95946774632260        1.21496472443135
C            1.54948855521632        5.46193923722753        1.00830058923646
C            2.10776779590845        3.72156374882709        2.69310498663686
C            2.93568371134404        3.51089892916067        0.33033594012327
C           -0.64041868049734        3.69754396568632        0.37265598327983
C           -1.75431735991574        2.90362908579657        0.11771546285309
C           -1.74730722965040        1.52279962163376        0.33085824031620
C           -2.91105400206131        0.71283831339872        0.15278283438354
C           -4.18635453561753        1.32573599430535       -0.15973435987667
C           -4.96042092166127        0.87432595348396       -1.24436561189721
C           -6.16591778263785        1.45600782292700       -1.55201906690111
C           -6.66065666442182        2.50817724027109       -0.76697133606261
C           -7.89776199275697        3.09802134029791       -1.06947935173447
N           -8.91359267543796        3.58050254156633       -1.31747698770119
C           -5.90552499634826        2.96348313088180        0.32399140409098
C           -4.69148235566347        2.38850826304133        0.61073524631558
C           -2.81017324689068       -0.71237722945927        0.28266578910751
C           -3.93515125709981       -1.53434501590931        0.24641677793422
H           -6.91974392716058       -3.95704870565246        1.47338620184234
H           -5.45461300566263       -3.59481840155393        2.39095205248811
H           -6.26236867261161       -2.32258436653591        1.47583784889477
H           -4.30770316471570       -5.56484363400827       -0.58935783200712
H           -5.84087106715363       -5.78128127736950        0.24722163881614
H           -4.36905959997838       -5.54602364442933        1.18260591019118
H           -6.20685600889439       -2.36085778093355       -1.06770029575684
H           -5.30721730325096       -3.62288063646551       -1.91129406674438
H           -6.82398761840643       -4.00874558658849       -1.09370764106949
H           -2.47287394450335       -4.57326628347388        0.35542537083937
H           -0.50203557891304       -3.19207207784536        0.54968608451784
H            0.16581179446036       -2.19861364724096        2.76025265963214
H            2.33893304974705       -3.22725339735612        3.28661362927161
H            4.31461111406785       -2.74802367402754        1.88327495114116
H            2.49042846908997       -2.02770025933533       -2.15136552110737
H            3.08013699379323       -2.13666359567788       -4.54156194170904
H            5.30845610097986       -1.48896943306177       -5.32638143789652
H            7.03597925960457       -0.72578903968173       -3.73099566532907
H            8.44874926935625        0.01785807694836       -1.48400092425167
H            9.17106237034882        0.55026198412420        0.81939355662659
H            7.61969903718377        0.32062549797304        2.70136043344529
H            5.31056529554835       -0.47183795239633        2.35783973753130
H            1.93697409837087       -0.17865314132627       -0.56638985060389
H            1.47911666002038        1.28942151728264        1.36232056584482
H            1.34257615953802        5.68888729441729       -0.03515649429966
H            2.45192197065788        5.99817147246717        1.29478859300822
H            0.73088342263741        5.82980116526800        1.62298560352375
H            2.98525616778418        4.30321933908629        2.96742232899362
H            2.32003491082553        2.67397131817776        2.88910833396545
H            1.27821847871893        4.02710050010268        3.32800277089928
H            3.81755272599964        4.10986194311526        0.54747024119651
H            2.68546789923934        3.63485173968317       -0.72172278254779
H            3.18612679749609        2.46792130493353        0.50199514154558
H           -0.72323193581844        4.75620485404441        0.19094762385036
H           -2.64449417054704        3.37798513293517       -0.26644973987030
H           -4.57249939658809        0.08508170833716       -1.87166412699538
H           -6.74023804239050        1.11471444222771       -2.40169227244957
H           -6.29296802473920        3.76434929492336        0.93767614311797
H           -4.13179422091476        2.72428659124506        1.47135532933961
H           -4.90507798461290       -1.06710841385218        0.19103430548007

          :  Hamiltonian                  GFN2-xTB          :
         :: gradient norm              0.000082182767 Eh/a0 ::
         :: HOMO-LUMO gap              0.837980236448 eV    ::
         :: SCC energy              -129.266745472847 Eh    ::
         :: -> dispersion             -0.120240237041 Eh    ::
         :: -> Gsolv                  -0.054259844799 Eh    ::
         :: repulsion energy           2.352678784926 Eh    ::

    * Orbital Energies and Occupations

         #    Occupation            Energy/Eh            Energy/eV
      -------------------------------------------------------------
         1        2.0000           -0.6764459             -18.4070
       ...           ...                  ...                  ...
       108        2.0000           -0.4165196             -11.3341
       109        2.0000           -0.4158896             -11.3169
       110        2.0000           -0.4129924             -11.2381
       111        2.0000           -0.4074222             -11.0865
       112        2.0000           -0.4072329             -11.0814
       113        2.0000           -0.4054036             -11.0316
       114        2.0000           -0.4011371             -10.9155
       115        2.0000           -0.3983865             -10.8406
       116        2.0000           -0.3977370             -10.8230
       117        2.0000           -0.3787963             -10.3076
       118        1.9951           -0.3630208              -9.8783
       119        1.0049           -0.3529087              -9.6031
       120        1.0000           -0.2952910              -8.0353 (HOMO)
       121                         -0.2644958              -7.1973 (LUMO)
       122                         -0.2462872              -6.7018
       123                         -0.2351543              -6.3989
       124                         -0.2341374              -6.3712
       125                         -0.2335800              -6.3560
       126                         -0.2289623              -6.2304
       127                         -0.2255158              -6.1366
       128                         -0.2222291              -6.0472
       129                         -0.2047759              -5.5722
       130                         -0.1920854              -5.2269
       131                         -0.1896310              -5.1601
       ...                                ...                  ...
       236                          1.1620947              31.6222
      -------------------------------------------------------------
                  HL-Gap            0.0307952 Eh            0.8380 eV

     #   Z          covCN         q      C6AA      α(0)
     1   6 C        3.762    -0.104    22.540     6.768
     2   6 C        3.903     0.026    20.076     6.369
     3   6 C        3.761    -0.108    22.616     6.779
     4   6 C        3.761    -0.104    22.538     6.768
     5   6 C        2.969     0.011    27.758     8.642
     6   6 C        2.919    -0.039    28.976     8.827
     7   6 C        2.919    -0.037    28.930     8.820
     8   6 C        2.978     0.006    27.881     8.661
     9   6 C        2.974    -0.009    28.235     8.716
    10   6 C        2.973     0.018    27.606     8.618
    11   6 C        2.923    -0.036    28.902     8.816
    12   6 C        2.917    -0.029    28.727     8.789
    13   6 C        2.921    -0.045    29.125     8.850
    14   6 C        2.910     0.063    26.580     8.454
    15   7 N        2.803    -0.048    22.167     6.993
    16   6 C        3.076     0.048    26.842     8.494
    17   6 C        2.909    -0.052    29.285     8.874
    18   6 C        2.924    -0.035    28.874     8.812
    19   6 C        2.919    -0.043    29.063     8.840
    20   6 C        2.912    -0.035    28.870     8.811
    21   6 C        3.067    -0.019    28.408     8.740
    22   6 C        3.067    -0.019    28.407     8.740
    23   6 C        2.912    -0.035    28.865     8.810
    24   6 C        2.919    -0.043    29.061     8.840
    25   6 C        2.924    -0.035    28.872     8.812
    26   6 C        2.909    -0.052    29.285     8.874
    27   6 C        3.076     0.048    26.845     8.495
    28   6 C        2.927    -0.046    29.148     8.854
    29   6 C        2.977     0.008    27.836     8.654
    30   6 C        2.929    -0.040    29.002     8.832
    31   6 C        2.969     0.013    27.712     8.635
    32   6 C        3.903     0.026    20.075     6.369
    33   6 C        3.761    -0.108    22.612     6.779
    34   6 C        3.761    -0.105    22.547     6.769
    35   6 C        3.761    -0.103    22.509     6.763
    36   6 C        2.919    -0.041    29.017     8.834
    37   6 C        2.919    -0.036    28.904     8.816
    38   6 C        2.977     0.005    27.912     8.666
    39   6 C        2.971    -0.006    28.161     8.705
    40   6 C        2.972     0.018    27.595     8.617
    41   6 C        2.921    -0.031    28.784     8.798
    42   6 C        2.921    -0.024    28.601     8.770
    43   6 C        2.971     0.003    27.952     8.672
    44   6 C        1.911     0.112    28.337     8.597
    45   7 N        0.911    -0.303    27.796     7.625
    46   6 C        2.921    -0.024    28.592     8.769
    47   6 C        2.921    -0.031    28.780     8.798
    48   6 C        2.976     0.007    27.867     8.659
    49   6 C        2.929    -0.039    28.973     8.827
    50   1 H        0.925     0.041     2.437     2.441
    51   1 H        0.925     0.035     2.522     2.483
    52   1 H        0.925     0.036     2.501     2.473
    53   1 H        0.925     0.038     2.480     2.462
    54   1 H        0.925     0.039     2.464     2.455
    55   1 H        0.925     0.038     2.478     2.461
    56   1 H        0.925     0.037     2.496     2.470
    57   1 H        0.925     0.034     2.529     2.487
    58   1 H        0.925     0.040     2.447     2.446
    59   1 H        0.926     0.042     2.421     2.433
    60   1 H        0.926     0.036     2.506     2.476
    61   1 H        0.926     0.040     2.447     2.446
    62   1 H        0.926     0.040     2.445     2.445
    63   1 H        0.926     0.040     2.448     2.447
    64   1 H        0.926     0.029     2.597     2.520
    65   1 H        0.926     0.029     2.601     2.522
    66   1 H        0.926     0.027     2.632     2.537
    67   1 H        0.926     0.029     2.595     2.519
    68   1 H        0.926     0.029     2.599     2.521
    69   1 H        0.926     0.027     2.630     2.536
    70   1 H        0.926     0.030     2.590     2.517
    71   1 H        0.926     0.029     2.596     2.519
    72   1 H        0.926     0.043     2.411     2.428
    73   1 H        0.926     0.040     2.450     2.448
    74   1 H        0.925     0.037     2.488     2.467
    75   1 H        0.925     0.039     2.461     2.453
    76   1 H        0.925     0.037     2.483     2.464
    77   1 H        0.925     0.041     2.432     2.439
    78   1 H        0.925     0.038     2.480     2.463
    79   1 H        0.925     0.035     2.520     2.482
    80   1 H        0.925     0.040     2.444     2.445
    81   1 H        0.925     0.033     2.543     2.494
    82   1 H        0.925     0.036     2.500     2.473
    83   1 H        0.926     0.041     2.439     2.442
    84   1 H        0.926     0.035     2.518     2.481
    85   1 H        0.926     0.043     2.409     2.427
    86   1 H        0.926     0.033     2.537     2.491
    87   1 H        0.926     0.033     2.539     2.492
    88   1 H        0.926     0.042     2.420     2.433
    89   1 H        0.926     0.039     2.456     2.451

molecular dipole:
                 x           y           z       tot (Debye)
 q only:        1.928      -1.323       1.088
   full:        2.232      -1.478       1.168       7.423

 projected vibrational frequencies (cm⁻¹)
eigval :       -0.00     0.00     0.00     0.00     0.00     0.00
eigval :        7.02    11.60    16.35    22.17    24.54    30.02
eigval :       34.98    40.97    49.81    55.47    64.88    72.63
eigval :       75.42    96.66   103.29   109.20   113.84   128.64
eigval :      137.48   143.15   147.02   157.23   174.94   181.68
eigval :      192.62   197.48   203.89   216.66   223.73   229.44
eigval :      233.94   242.77   245.29   261.33   264.02   270.96
eigval :      273.63   305.80   311.18   315.52   319.66   323.72
eigval :      338.52   339.43   344.95   369.65   371.42   378.98
eigval :      382.50   394.87   404.03   404.70   408.96   416.47
eigval :      423.58   432.81   435.21   437.42   446.42   464.40
eigval :      482.95   494.60   511.83   518.53   518.82   531.10
eigval :      533.06   539.75   540.91   551.38   567.14   574.70
eigval :      588.37   603.23   607.42   614.97   622.16   628.70
eigval :      636.52   638.95   665.89   671.60   674.44   676.65
eigval :      681.01   707.49   714.28   717.70   730.76   756.16
eigval :      762.28   763.09   775.18   795.60   806.17   807.43
eigval :      809.30   818.96   847.03   853.04   865.14   867.45
eigval :      868.34   869.77   883.08   892.06   895.17   897.11
eigval :      897.28   899.11   903.62   905.19   910.41   915.77
eigval :      920.02   925.31   927.22   929.79   934.42   958.43
eigval :      960.06   960.34   962.45   964.01   964.81   966.06
eigval :      986.99   996.29  1005.42  1009.70  1015.58  1033.02
eigval :     1033.64  1034.20  1036.00  1067.91  1071.85  1114.88
eigval :     1123.09  1131.96  1133.28  1144.60  1149.44  1151.87
eigval :     1157.31  1172.60  1177.37  1178.95  1180.45  1185.52
eigval :     1202.66  1207.11  1221.10  1221.51  1229.84  1230.81
eigval :     1234.46  1238.21  1241.30  1241.93  1252.65  1259.07
eigval :     1262.90  1280.51  1284.63  1289.50  1294.46  1299.32
eigval :     1301.50  1309.21  1310.49  1312.52  1335.82  1351.23
eigval :     1355.38  1356.20  1358.71  1362.83  1380.83  1388.56
eigval :     1402.40  1402.77  1403.46  1404.73  1409.87  1412.75
eigval :     1425.09  1426.20  1426.93  1428.78  1435.36  1458.01
eigval :     1464.36  1473.80  1474.58  1486.60  1488.46  1489.07
eigval :     1489.40  1490.73  1491.04  1493.14  1496.41  1498.77
eigval :     1502.22  1504.10  1510.78  1511.43  1514.66  1516.18
eigval :     1518.10  1535.88  1543.07  1552.42  1562.48  1569.45
eigval :     1573.77  1586.97  1596.52  1611.72  2318.20  3021.22
eigval :     3021.40  3022.01  3022.02  3025.06  3025.21  3025.47
eigval :     3025.53  3029.22  3029.48  3031.55  3031.69  3037.01
eigval :     3037.27  3042.22  3044.04  3047.45  3050.41  3070.18
eigval :     3070.50  3072.84  3074.68  3075.09  3075.79  3076.35
eigval :     3082.35  3083.22  3086.13  3087.19  3087.55  3088.00
eigval :     3088.92  3089.52  3090.57  3091.65  3095.92  3103.85
eigval :     3104.19  3116.50  3116.86

   temp. (K)  partition function   enthalpy   heat capacity  entropy
                                   cal/mol     cal/K/mol   cal/K/mol   J/K/mol
 298.15  VIB  0.686E+20            25635.341    159.887    158.888
         ROT  0.891E+08              888.752      2.981     39.358
         INT  0.611E+28            26524.094    162.868    198.247
         TR   0.154E+29             1481.254      4.968     45.197
         TOT                       28005.3476   167.8361   243.4440  1018.5695

       T/K    H(0)-H(T)+PV         H(T)/Eh          T*S/Eh         G(T)/Eh
   ------------------------------------------------------------------------
    298.15    0.446294E-01    0.758403E+00    0.115668E+00    0.642735E+00
   ------------------------------------------------------------------------

         :::::::::::::::::::::::::::::::::::::::::::::::::::::
         ::                  THERMODYNAMIC                  ::
         :::::::::::::::::::::::::::::::::::::::::::::::::::::
         :: total free energy        -126.271331630839 Eh   ::
         ::.................................................::
         :: total energy             -126.914066691080 Eh   ::
         :: zero point energy           0.713773775355 Eh   ::
         :: G(RRHO) w/o ZPVE           -0.071038715114 Eh   ::
         :: G(RRHO) contrib.            0.642735060241 Eh   ::
         :::::::::::::::::::::::::::::::::::::::::::::::::::::

           -------------------------------------------------
          | TOTAL ENERGY             -126.914066691080 Eh   |
          | TOTAL ENTHALPY           -126.155663553529 Eh   |
          | TOTAL FREE ENERGY        -126.271331630839 Eh   |
          | GRADIENT NORM               0.000082233935 Eh/α |
          | HOMO-LUMO GAP               0.837981165302 eV   |
           -------------------------------------------------

 * finished run on 2025/09/09 at 23:43:24.512
