   * xtb version 6.7.1 (edcfbbe) compiled by 'albert@albert-system' on 2024-07-22

   ID    Z sym.   atoms
    1    6 C      1-14, 16-44, 46-49
    2    7 N      15, 45
    3    1 H      50-89

          program call               : xtb data2507/toluene/mCz-TAn-CN/mCz-TAn-CN.xyz --gfn 2 --gbsa toluene --ohess vtight --parallel 40 --molden --ceasefiles --namespace data2507/toluene/mCz-TAn-CN/mCz-TAn-CN_toluene_S0_preOpt
      * Solvation model:               GBSA
        Solvent                        toluene
        Solvent mass                       9.2140E+01 g/mol
          :  Hamiltonian                  GFN2-xTB          :
 * total energy  :  -126.9566831 Eh     change       -0.3933195E-08 Eh
 * total energy  :  -126.9725071 Eh     change       -0.1582394E-01 Eh
 * total energy  :  -126.9774035 Eh     change       -0.4896426E-02 Eh
 * total energy  :  -126.9786416 Eh     change       -0.1238088E-02 Eh
 * total energy  :  -126.9792094 Eh     change       -0.5677646E-03 Eh
 * total energy  :  -126.9793253 Eh     change       -0.1158945E-03 Eh
 * total energy  :  -126.9793796 Eh     change       -0.5429865E-04 Eh
 * total energy  :  -126.9794171 Eh     change       -0.3759183E-04 Eh
 * total energy  :  -126.9794486 Eh     change       -0.3148262E-04 Eh
 * total energy  :  -126.9794886 Eh     change       -0.3996115E-04 Eh
 * total energy  :  -126.9799102 Eh     change        0.3306661E-06 Eh
 * total energy  :  -126.9799098 Eh     change        0.3849105E-06 Eh
 * total energy  :  -126.9799093 Eh     change        0.4482440E-06 Eh
 * total energy  :  -126.9799087 Eh     change        0.5798122E-06 Eh
 * total energy  :  -126.9799081 Eh     change        0.6067661E-06 Eh
 * total energy  :  -126.9799076 Eh     change        0.5390503E-06 Eh
 * total energy  :  -126.9799105 Eh     change       -0.2903338E-05 Eh
 * total energy  :  -126.9799113 Eh     change       -0.7635644E-06 Eh
 * total energy  :  -126.9799113 Eh     change       -0.1986012E-07 Eh
   *** GEOMETRY OPTIMIZATION CONVERGED AFTER 104 ITERATIONS ***

 final structure:
================
89
 xtb: 6.7.1 (edcfbbe)
C           -6.00065897177956       -2.82142871449114        0.12854513117986
C           -4.70737119616146       -3.41128975201305        0.69984233074192
C           -4.99041853309583       -3.88609581645364        2.13318643862599
C           -4.29930866856785       -4.60684297924971       -0.17394524990302
C           -3.56791221886770       -2.40587848162179        0.72916548067169
C           -2.30672279821403       -2.81487561183883        1.23591300672263
C           -1.24762268438254       -1.96546116888132        1.27863156820692
C           -1.35549893729904       -0.62464387876094        0.82651437591095
C           -0.26945038884360        0.25515130053871        0.84809598694345
C            1.04368919253547       -0.20070563282217        1.36197078167688
C            1.34487025439415       -0.09536258113288        2.71616536207497
C            2.57990235385950       -0.50449904589591        3.18822886132396
C            3.52272541814145       -1.02779854379657        2.32184747011218
C            3.23021966019982       -1.13438713501866        0.96501962701519
N            4.18177020128259       -1.66458166053947        0.07876135028457
C            5.49757448902821       -1.26181923901496       -0.02835419085877
C            6.15967987035874       -0.22556061424895        0.61547636084699
C            7.48851994282898       -0.01418169316714        0.30100094052417
C            8.14938901795020       -0.80651097679285       -0.63594251710474
C            7.49019359675612       -1.82465688112959       -1.29590564977394
C            6.15286626335804       -2.05532584046789       -0.99869341323101
C            5.17528971010997       -2.98500042197946       -1.49198169922104
C            5.21831182821954       -4.01244468838896       -2.42608291645199
C            4.07138779345051       -4.74562254251474       -2.65746535985528
C            2.89438846281024       -4.47297590060341       -1.96274620776279
C            2.82674662264843       -3.45716264855080       -1.02840526218370
C            3.97135030795461       -2.70473501420875       -0.80433971801601
C            1.99210288975952       -0.71747747618632        0.48909760259207
C           -0.41573354094360        1.57199024116536        0.39099472999334
C            0.66819960827157        2.48270391695650        0.40682595558491
C            0.55242568338816        3.77989146583837       -0.01223314482444
C            1.76512791861976        4.69817391244000        0.03156694086600
C            2.25815081860469        4.80580713808005        1.48253458943947
C            2.87410729386881        4.10200453321192       -0.84886421236715
C            1.45983232894191        6.11070190868118       -0.47571864319233
C           -0.71644971095234        4.21231185792020       -0.46608001755214
C           -1.78571921602673        3.36922898696522       -0.50246019244438
C           -1.68290935677475        2.01622923952250       -0.09306791902315
C           -2.77058882163015        1.13077850007025       -0.12122689067645
C           -4.07685125591840        1.59052581318088       -0.63603977084012
C           -4.24024041737897        1.87015467627008       -1.99230650527513
C           -5.45948575411676        2.28896400083024       -2.48398627662545
C           -6.54221899612152        2.43975389446435       -1.61419369684877
C           -7.79196841820660        2.86680303904262       -2.11087700967416
N           -8.80881966339815        3.21567043779665       -2.51498247017374
C           -6.38699243234788        2.16683681011808       -0.25286810327183
C           -5.16323622072842        1.74517079579656        0.22465897739260
C           -2.62181074808961       -0.18857359509317        0.33179876519796
C           -3.69343982069982       -1.11933092606361        0.28942688031378
H           -6.77854893420990       -3.58246767780680        0.13214920957752
H           -6.34869751105947       -1.98376931204082        0.72902854768757
H           -5.86139508655851       -2.48947632984675       -0.89812602662904
H           -4.12400944618298       -4.37551558736344        2.56969674813948
H           -5.81683436539775       -4.59377370534994        2.13526804402476
H           -5.25867662637935       -3.04045381159803        2.76379865529697
H           -4.08237554537394       -4.27527626303971       -1.18779172498827
H           -3.41655011337955       -5.10464707166424        0.21818461287477
H           -5.10888349585252       -5.33270185357066       -0.21451219521117
H           -2.17977097006502       -3.82613504147544        1.59147646190206
H           -0.29530763468371       -2.30238494427780        1.66275466988108
H            0.60802768675926        0.31071643573233        3.39342281081805
H            2.80809763802955       -0.42243528806846        4.24080134534579
H            4.48044852819324       -1.36468874895674        2.68929336342316
H            5.65322121226179        0.40259348939684        1.33296120040324
H            8.02656358323741        0.78515912763429        0.78976950114144
H            9.18987985827241       -0.61218997959179       -0.85172840926813
H            7.99888797277555       -2.42876169074685       -2.03249914704494
H            6.13338947834494       -4.23236616409287       -2.95575553998624
H            4.08386696671208       -5.54774697643870       -3.38099207760449
H            2.01565535461915       -5.07079427918991       -2.15708094045725
H            1.91316536416947       -3.26347570988166       -0.48703102046264
H            1.77216432003028       -0.78287752723291       -0.56653802045932
H            1.61251861519681        2.11088223309297        0.77398980948381
H            1.47044228421853        5.20278440539801        2.12024979539689
H            3.11581191888247        5.47313491681462        1.53757587881565
H            2.55567078196683        3.83575397883936        1.87194518800526
H            3.74580428194825        4.75324331018463       -0.84526370581648
H            2.52640217522194        3.99766336958075       -1.87502007457470
H            3.18076190525436        3.12215054978700       -0.49213801434302
H            2.36342477655621        6.71526183797012       -0.42582023696134
H            0.70097460660809        6.59288024850774        0.13673501960164
H            1.12655480398693        6.09291107579676       -1.51115671917897
H           -0.85402176297243        5.23128554260259       -0.78889144547916
H           -2.74222964628324        3.73632123625570       -0.84563665579360
H           -3.40146730201086        1.74884833638245       -2.66200908918475
H           -5.58625506636553        2.50089927276872       -3.53579877292707
H           -7.22744626619023        2.28863657112235        0.41503754517734
H           -5.03827165300830        1.53515447007130        1.27682491599428
H           -4.62839044406721       -0.76796445364871       -0.11367598371252

          :  Hamiltonian                  GFN2-xTB          :
         :: gradient norm              0.000159218606 Eh/a0 ::
         :: HOMO-LUMO gap              2.052742653822 eV    ::
         :: SCC energy              -129.352569653288 Eh    ::
         :: -> dispersion             -0.119575197158 Eh    ::
         :: -> Gsolv                  -0.053676667560 Eh    ::
         :: repulsion energy           2.372658370264 Eh    ::

    * Orbital Energies and Occupations

         #    Occupation            Energy/Eh            Energy/eV
      -------------------------------------------------------------
         1        2.0000           -0.6759211             -18.3927
       ...           ...                  ...                  ...
       107        2.0000           -0.4179761             -11.3737
       108        2.0000           -0.4173366             -11.3563
       109        2.0000           -0.4150917             -11.2952
       110        2.0000           -0.4122227             -11.2172
       111        2.0000           -0.4095134             -11.1434
       112        2.0000           -0.4051838             -11.0256
       113        2.0000           -0.4030302             -10.9670
       114        2.0000           -0.4011106             -10.9148
       115        2.0000           -0.4008329             -10.9072
       116        2.0000           -0.3935953             -10.7103
       117        2.0000           -0.3784636             -10.2985
       118        2.0000           -0.3625608              -9.8658
       119        2.0000           -0.3577424              -9.7347 (HOMO)
       120                         -0.2823055              -7.6819 (LUMO)
       121                         -0.2702014              -7.3526
       122                         -0.2460392              -6.6951
       123                         -0.2415382              -6.5726
       124                         -0.2342334              -6.3738
       125                         -0.2320072              -6.3132
       126                         -0.2297463              -6.2517
       127                         -0.2218709              -6.0374
       128                         -0.2184939              -5.9455
       129                         -0.2126968              -5.7878
       130                         -0.1906197              -5.1870
       ...                                ...                  ...
       236                          1.1589105              31.5356
      -------------------------------------------------------------
                  HL-Gap            0.0754369 Eh            2.0527 eV

     #   Z          covCN         q      C6AA      α(0)
     1   6 C        3.761    -0.106    22.577     6.774
     2   6 C        3.903     0.025    20.092     6.372
     3   6 C        3.761    -0.104    22.538     6.768
     4   6 C        3.761    -0.104    22.535     6.767
     5   6 C        2.968     0.009    27.808     8.650
     6   6 C        2.921    -0.034    28.848     8.808
     7   6 C        2.915    -0.037    28.930     8.820
     8   6 C        2.985     0.003    27.952     8.672
     9   6 C        2.979    -0.006    28.166     8.706
    10   6 C        2.977     0.020    27.558     8.611
    11   6 C        2.923    -0.036    28.903     8.816
    12   6 C        2.918    -0.029    28.722     8.788
    13   6 C        2.922    -0.046    29.130     8.851
    14   6 C        2.911     0.064    26.567     8.452
    15   7 N        2.802    -0.048    22.170     6.993
    16   6 C        3.076     0.048    26.846     8.495
    17   6 C        2.909    -0.052    29.288     8.874
    18   6 C        2.924    -0.035    28.878     8.813
    19   6 C        2.919    -0.043    29.067     8.841
    20   6 C        2.912    -0.035    28.872     8.811
    21   6 C        3.067    -0.019    28.415     8.741
    22   6 C        3.067    -0.019    28.415     8.741
    23   6 C        2.912    -0.035    28.875     8.811
    24   6 C        2.919    -0.043    29.068     8.841
    25   6 C        2.924    -0.035    28.877     8.812
    26   6 C        2.909    -0.052    29.284     8.873
    27   6 C        3.075     0.048    26.843     8.495
    28   6 C        2.927    -0.045    29.129     8.851
    29   6 C        2.984     0.004    27.930     8.669
    30   6 C        2.927    -0.042    29.051     8.839
    31   6 C        2.968     0.009    27.814     8.651
    32   6 C        3.903     0.025    20.098     6.372
    33   6 C        3.761    -0.104    22.539     6.768
    34   6 C        3.761    -0.104    22.528     6.766
    35   6 C        3.761    -0.106    22.578     6.774
    36   6 C        2.920    -0.038    28.944     8.822
    37   6 C        2.915    -0.039    28.979     8.827
    38   6 C        2.983     0.003    27.940     8.671
    39   6 C        2.977    -0.010    28.268     8.721
    40   6 C        2.976     0.030    27.330     8.575
    41   6 C        2.923    -0.027    28.677     8.782
    42   6 C        2.924    -0.019    28.485     8.752
    43   6 C        2.973     0.013    27.723     8.637
    44   6 C        1.912     0.118    28.195     8.575
    45   7 N        0.911    -0.278    27.181     7.540
    46   6 C        2.924    -0.019    28.486     8.753
    47   6 C        2.922    -0.027    28.671     8.781
    48   6 C        2.982     0.004    27.917     8.667
    49   6 C        2.923    -0.049    29.208     8.863
    50   1 H        0.925     0.038     2.472     2.459
    51   1 H        0.925     0.035     2.518     2.482
    52   1 H        0.925     0.034     2.532     2.488
    53   1 H        0.925     0.038     2.479     2.462
    54   1 H        0.925     0.039     2.461     2.453
    55   1 H        0.925     0.033     2.543     2.494
    56   1 H        0.925     0.033     2.551     2.498
    57   1 H        0.925     0.038     2.482     2.464
    58   1 H        0.925     0.039     2.462     2.454
    59   1 H        0.926     0.032     2.558     2.501
    60   1 H        0.926     0.027     2.636     2.539
    61   1 H        0.926     0.037     2.490     2.468
    62   1 H        0.926     0.040     2.449     2.447
    63   1 H        0.926     0.040     2.448     2.447
    64   1 H        0.926     0.029     2.600     2.521
    65   1 H        0.926     0.030     2.589     2.516
    66   1 H        0.926     0.027     2.629     2.535
    67   1 H        0.926     0.029     2.599     2.521
    68   1 H        0.926     0.029     2.597     2.520
    69   1 H        0.926     0.027     2.630     2.536
    70   1 H        0.926     0.029     2.595     2.519
    71   1 H        0.926     0.029     2.596     2.519
    72   1 H        0.926     0.039     2.462     2.454
    73   1 H        0.926     0.030     2.582     2.513
    74   1 H        0.925     0.033     2.541     2.493
    75   1 H        0.925     0.039     2.459     2.452
    76   1 H        0.925     0.036     2.505     2.475
    77   1 H        0.925     0.039     2.463     2.454
    78   1 H        0.925     0.033     2.549     2.497
    79   1 H        0.925     0.035     2.515     2.480
    80   1 H        0.925     0.037     2.484     2.465
    81   1 H        0.925     0.036     2.500     2.473
    82   1 H        0.925     0.036     2.502     2.474
    83   1 H        0.926     0.039     2.462     2.454
    84   1 H        0.926     0.027     2.629     2.536
    85   1 H        0.926     0.046     2.373     2.409
    86   1 H        0.926     0.042     2.428     2.437
    87   1 H        0.926     0.042     2.424     2.435
    88   1 H        0.926     0.046     2.366     2.405
    89   1 H        0.926     0.037     2.492     2.469

molecular dipole:
                 x           y           z       tot (Debye)
 q only:        1.109      -0.289       1.083
   full:        1.435      -0.408       1.235       4.922

 projected vibrational frequencies (cm⁻¹)
eigval :       -0.00    -0.00    -0.00    -0.00     0.00     0.00
eigval :       -5.29    12.06    15.74    23.19    27.60    29.53
eigval :       31.21    34.85    43.33    50.71    56.04    65.81
eigval :       76.45    85.97    94.89   105.22   107.77   127.95
eigval :      137.44   142.19   147.21   159.11   163.75   177.25
eigval :      190.47   199.47   207.12   209.59   215.89   219.54
eigval :      226.32   231.18   241.39   250.22   255.19   268.19
eigval :      271.88   302.94   313.16   319.27   321.20   327.25
eigval :      338.76   351.31   352.43   361.89   375.30   382.29
eigval :      390.23   396.14   404.49   407.33   415.60   422.81
eigval :      430.86   434.37   436.76   446.23   453.28   462.77
eigval :      483.12   511.67   515.94   518.70   520.39   533.76
eigval :      536.07   540.68   543.18   555.95   571.84   576.50
eigval :      589.55   606.76   610.81   617.87   635.55   638.34
eigval :      645.44   648.99   670.72   673.73   675.64   684.56
eigval :      697.43   707.42   716.23   729.60   738.37   756.25
eigval :      766.33   769.23   780.39   797.47   810.14   817.19
eigval :      818.87   821.19   867.38   868.17   869.23   871.07
eigval :      878.99   880.24   883.12   892.06   894.43   899.93
eigval :      903.34   906.06   906.88   916.89   921.15   921.55
eigval :      923.58   924.85   928.51   929.61   930.73   958.86
eigval :      959.69   960.07   961.70   962.83   963.41   965.05
eigval :      982.36   996.84  1006.14  1012.85  1021.23  1033.78
eigval :     1033.82  1034.68  1036.98  1068.97  1072.46  1114.89
eigval :     1125.38  1129.46  1130.32  1137.57  1150.85  1151.76
eigval :     1167.60  1174.11  1178.87  1181.01  1183.24  1187.87
eigval :     1208.85  1214.85  1224.80  1225.06  1227.89  1230.74
eigval :     1235.58  1238.87  1242.63  1246.47  1255.75  1259.83
eigval :     1262.38  1266.54  1281.09  1282.27  1298.98  1302.43
eigval :     1306.89  1307.80  1315.91  1338.70  1351.34  1356.65
eigval :     1359.29  1364.97  1390.94  1393.73  1402.44  1403.02
eigval :     1403.39  1404.09  1415.67  1422.60  1426.55  1427.06
eigval :     1427.51  1429.84  1444.38  1458.17  1466.28  1473.81
eigval :     1481.98  1486.05  1486.84  1486.95  1490.33  1490.68
eigval :     1492.14  1497.78  1498.82  1500.11  1503.78  1511.42
eigval :     1512.79  1513.41  1517.30  1518.93  1531.29  1539.97
eigval :     1544.35  1569.85  1573.55  1584.00  1586.98  1588.88
eigval :     1597.43  1605.61  1613.16  1622.56  2359.96  3019.25
eigval :     3019.63  3019.81  3020.30  3022.80  3023.40  3024.43
eigval :     3024.58  3026.84  3028.34  3029.71  3029.72  3035.72
eigval :     3035.94  3040.15  3043.44  3043.88  3047.17  3070.49
eigval :     3071.00  3071.46  3074.95  3075.65  3076.30  3076.65
eigval :     3078.86  3080.22  3083.19  3084.49  3086.84  3087.10
eigval :     3087.80  3090.08  3090.60  3091.68  3092.05  3092.87
eigval :     3095.00  3113.19  3122.35

   temp. (K)  partition function   enthalpy   heat capacity  entropy
                                   cal/mol     cal/K/mol   cal/K/mol   J/K/mol
 298.15  VIB  0.209E+21            25661.683    158.489    159.867
         ROT  0.913E+08              888.752      2.981     39.406
         INT  0.191E+29            26550.436    161.470    199.273
         TR   0.154E+29             1481.254      4.968     45.197
         TOT                       28031.6897   166.4378   244.4703  1022.8639

       T/K    H(0)-H(T)+PV         H(T)/Eh          T*S/Eh         G(T)/Eh
   ------------------------------------------------------------------------
    298.15    0.446713E-01    0.760651E+00    0.116156E+00    0.644495E+00
   ------------------------------------------------------------------------

         :::::::::::::::::::::::::::::::::::::::::::::::::::::
         ::                  THERMODYNAMIC                  ::
         :::::::::::::::::::::::::::::::::::::::::::::::::::::
         :: total free energy        -126.335415800275 Eh   ::
         ::.................................................::
         :: total energy             -126.979911283983 Eh   ::
         :: zero point energy           0.715979884703 Eh   ::
         :: G(RRHO) w/o ZPVE           -0.071484400995 Eh   ::
         :: G(RRHO) contrib.            0.644495483709 Eh   ::
         :::::::::::::::::::::::::::::::::::::::::::::::::::::

           -------------------------------------------------
          | TOTAL ENERGY             -126.979911283983 Eh   |
          | TOTAL ENTHALPY           -126.219260058263 Eh   |
          | TOTAL FREE ENERGY        -126.335415800275 Eh   |
          | GRADIENT NORM               0.000159212069 Eh/α |
          | HOMO-LUMO GAP               2.052742517947 eV   |
           -------------------------------------------------

 * finished run on 2025/09/09 at 23:21:54.443
