   * xtb version 6.7.1 (edcfbbe) compiled by 'albert@albert-system' on 2024-07-22

   ID    Z sym.   atoms
    1    6 C      1-14, 16-44, 46-49
    2    7 N      15, 45
    3    1 H      50-89

          program call               : xtb data2507/toluene/mCz-TAn-CN/mCz-TAn-CN_toluene_S0_finalOpt.xtbopt.xyz --gfn 2 --uhf 2 --gbsa toluene --ohess vtight --parallel 40 --molden --ceasefiles --namespace data2507/toluene/mCz-TAn-CN/mCz-TAn-CN_toluene_T1_preOpt
      * Solvation model:               GBSA
        Solvent                        toluene
        Solvent mass                       9.2140E+01 g/mol
          :  Hamiltonian                  GFN2-xTB          :
 * total energy  :  -126.9028005 Eh     change       -0.9419011E-08 Eh
 * total energy  :  -126.9083451 Eh     change       -0.5544593E-02 Eh
 * total energy  :  -126.9099315 Eh     change       -0.1586409E-02 Eh
 * total energy  :  -126.9101576 Eh     change       -0.2260553E-03 Eh
 * total energy  :  -126.9104548 Eh     change       -0.2972190E-03 Eh
 * total energy  :  -126.9106475 Eh     change       -0.1927023E-03 Eh
 * total energy  :  -126.9108854 Eh     change       -0.2379246E-03 Eh
 * total energy  :  -126.9112021 Eh     change       -0.3166602E-03 Eh
 * total energy  :  -126.9114527 Eh     change       -0.2506103E-03 Eh
 * total energy  :  -126.9116153 Eh     change       -0.1626070E-03 Eh
 * total energy  :  -126.9119444 Eh     change       -0.1094411E-05 Eh
 * total energy  :  -126.9119454 Eh     change       -0.9486836E-06 Eh
 * total energy  :  -126.9119462 Eh     change       -0.8091199E-06 Eh
 * total energy  :  -126.9119470 Eh     change       -0.8372168E-06 Eh
 * total energy  :  -126.9119480 Eh     change       -0.9214185E-06 Eh
 * total energy  :  -126.9119489 Eh     change       -0.8988750E-06 Eh
 * total energy  :  -126.9119497 Eh     change       -0.8304893E-06 Eh
 * total energy  :  -126.9119504 Eh     change       -0.7356930E-06 Eh
 * total energy  :  -126.9119504 Eh     change       -0.6510078E-08 Eh
   *** GEOMETRY OPTIMIZATION CONVERGED AFTER 68 ITERATIONS ***

 final structure:
================
89
 xtb: 6.7.1 (edcfbbe)
C           -3.28935755270758       -5.43936583309315       -1.15407838808279
C           -3.97826018609913       -4.50295730719370       -0.14924061030043
C           -5.30719333036450       -4.04555438955228       -0.75858012090505
C           -4.28328793827318       -5.27010604021279        1.14712483442565
C           -3.04696396146659       -3.34792562180057        0.17638304897792
C           -1.78781505340044       -3.59828395992129        0.70460486768368
C           -0.90422738319849       -2.56405923411183        0.97500022815901
C           -1.25884190059755       -1.22339138608012        0.77768696951628
C           -0.32793858673978       -0.17049153843402        0.96757563221627
C            1.05062465487561       -0.48294983817379        1.38294739444471
C            1.33035723208209       -0.86857670344796        2.69268858171348
C            2.63010741050096       -1.14946189628730        3.07379168051071
C            3.66334247754421       -1.06680684077088        2.15769071858610
C            3.39214681099103       -0.70830243789437        0.83911442814787
N            4.43293731557964       -0.65869559150678       -0.10106165943965
C            5.37371337309288       -1.64932410268191       -0.30706856114716
C            5.47368997630002       -2.90878625315039        0.26821467148983
C            6.51000525030208       -3.72629184933598       -0.14103273017919
C            7.42597322367097       -3.31243767874765       -1.10630466890654
C            7.31667807436814       -2.07120381668495       -1.70149981991965
C            6.28229083700558       -1.23218087041828       -1.30727324748395
C            5.86093908976529        0.07749203545209       -1.71992242767469
C            6.35203537848766        0.99119349078367       -2.64361418548530
C            5.69991320782380        2.19937453851035       -2.79103400170131
C            4.57762230053869        2.50480453694320       -2.02384200020816
C            4.07142848922790        1.61208010200357       -1.09852328967648
C            4.71185255496365        0.38920515264452       -0.95625408100609
C            2.08894537547311       -0.40790562949729        0.45985051547867
C           -0.71570021355110        1.18270108745774        0.76142608829289
C            0.16724667241390        2.23117252125420        1.04658023150130
C           -0.20747830016901        3.57415822274619        0.96675266783934
C            0.73776849238136        4.71588142709008        1.29927360093230
C            2.13723948371890        4.23603555644541        1.69495548973915
C            0.86938468360717        5.63014635966807        0.07164249531869
C            0.15599429955284        5.51210101800693        2.47806218667205
C           -1.51801394247680        3.84693302723250        0.59827424913424
C           -2.41768532204721        2.82770196416818        0.31048925994419
C           -2.04616225819717        1.48162381851741        0.34950510210185
C           -2.97561443986758        0.42143239854016        0.09574896329940
C           -4.31922420328057        0.72641566084884       -0.34702531749357
C           -4.54543227526543        1.57263528993479       -1.44891582656333
C           -5.81715460154040        1.85949595492570       -1.87933213847480
C           -6.92683152204597        1.32489547110742       -1.20651948481580
C           -8.22860849611339        1.62495863755343       -1.63404166052837
N           -9.29823128815709        1.87067817530331       -1.98428631036948
C           -6.71895305332135        0.48817995496957       -0.09893778997788
C           -5.44281339240355        0.19032798577959        0.31024510859005
C           -2.57270279213586       -0.94148914317763        0.30415625657690
C           -3.40507086862380       -2.01044965825821       -0.03177300546609
H           -3.95159261643641       -6.26432748573206       -1.40809204005085
H           -3.04583898427067       -4.89940315279388       -2.06711798239589
H           -2.37107549646942       -5.85369481831209       -0.74746041329869
H           -5.86025162890329       -3.41124475009779       -0.06955857832993
H           -5.92241546559265       -4.91639279478603       -0.97631531662341
H           -5.14919925424378       -3.50710006553959       -1.69069483306195
H           -3.37661997319980       -5.66996650795246        1.59285458447178
H           -4.75914292030617       -4.61198232961738        1.87178361057729
H           -4.95673211739243       -6.09913331378741        0.94043128527641
H           -1.46352759437699       -4.61016768566574        0.89307011615659
H            0.08359506596046       -2.79753698410945        1.34277239587989
H            0.52527514057425       -0.93030525811748        3.40980884663682
H            2.84235087229981       -1.43040749260067        4.09494344648446
H            4.68041688962866       -1.26926626265541        2.45743404437115
H            4.75971119822118       -3.24750630918010        1.00371087046258
H            6.61034876301396       -4.70992005663011        0.29454144856905
H            8.22475011652017       -3.97892127607727       -1.39720145895106
H            8.01606976690873       -1.75730352417353       -2.46207821997188
H            7.22839589884752        0.75877498727926       -3.23024518997816
H            6.06438917454803        2.92296557568682       -3.50545070573235
H            4.09516503839587        3.46215045005386       -2.15621105939713
H            3.20602964420163        1.86147487062496       -0.50421869900501
H            1.87347721646085       -0.14406981535167       -0.56505012245834
H            1.16319608325715        1.96751623115265        1.36104441493140
H            2.10213094023805        3.60539984870552        2.58074527275326
H            2.76356708737004        5.09658466676111        1.92158966480138
H            2.60920186119862        3.68666880104342        0.88429519552326
H            1.55919930897361        6.44415509435749        0.28427527929490
H           -0.08874431993467        6.06054187808362       -0.20660480326694
H            1.25020304119609        5.06792041629373       -0.77865734637378
H            0.82541159340141        6.32783658267951        2.74287045621300
H            0.03739355884833        4.86678511806411        3.34649053913588
H           -0.81434706531869        5.93476061501684        2.23260753701731
H           -1.87122845308138        4.86501702836521        0.54279094320928
H           -3.43704406132685        3.09425802562733        0.07665641502115
H           -3.69733930684902        1.96301641144281       -1.99203284642669
H           -5.97624568621353        2.49240710937661       -2.74091129081816
H           -7.57340578685402        0.08955499163893        0.42942383283371
H           -5.29266454439337       -0.42567664576338        1.18476621907546
H           -4.35632508916766       -1.78663954826435       -0.48215801049598

          :  Hamiltonian                  GFN2-xTB          :
         :: gradient norm              0.000054227741 Eh/a0 ::
         :: HOMO-LUMO gap              0.809452180584 eV    ::
         :: SCC energy              -129.265338672066 Eh    ::
         :: -> dispersion             -0.120777923479 Eh    ::
         :: -> Gsolv                  -0.053975989093 Eh    ::
         :: repulsion energy           2.353388241779 Eh    ::

    * Orbital Energies and Occupations

         #    Occupation            Energy/Eh            Energy/eV
      -------------------------------------------------------------
         1        2.0000           -0.6772811             -18.4298
       ...           ...                  ...                  ...
       108        2.0000           -0.4180920             -11.3769
       109        2.0000           -0.4142176             -11.2714
       110        2.0000           -0.4132469             -11.2450
       111        2.0000           -0.4071754             -11.0798
       112        2.0000           -0.4063107             -11.0563
       113        2.0000           -0.4056994             -11.0396
       114        2.0000           -0.4019978             -10.9389
       115        2.0000           -0.4014773             -10.9248
       116        2.0000           -0.3969547             -10.8017
       117        2.0000           -0.3797776             -10.3343
       118        1.9939           -0.3638415              -9.9006
       119        1.0061           -0.3541754              -9.6376
       120        1.0000           -0.2929715              -7.9722 (HOMO)
       121        0.0000           -0.2632248              -7.1627 (LUMO)
       122                         -0.2474278              -6.7329
       123                         -0.2355073              -6.4085
       124                         -0.2335699              -6.3558
       125                         -0.2330293              -6.3410
       126                         -0.2297211              -6.2510
       127                         -0.2246067              -6.1119
       128                         -0.2232027              -6.0737
       129                         -0.2037039              -5.5431
       130                         -0.1927433              -5.2448
       131                         -0.1898561              -5.1662
       ...                                ...                  ...
       236                          1.1624389              31.6316
      -------------------------------------------------------------
                  HL-Gap            0.0297467 Eh            0.8094 eV

     #   Z          covCN         q      C6AA      α(0)
     1   6 C        3.761    -0.105    22.561     6.771
     2   6 C        3.902     0.026    20.076     6.369
     3   6 C        3.761    -0.106    22.580     6.774
     4   6 C        3.762    -0.105    22.553     6.770
     5   6 C        2.968     0.011    27.761     8.642
     6   6 C        2.920    -0.035    28.860     8.810
     7   6 C        2.919    -0.037    28.932     8.821
     8   6 C        2.978     0.006    27.880     8.661
     9   6 C        2.976    -0.009    28.242     8.717
    10   6 C        2.975     0.020    27.552     8.610
    11   6 C        2.923    -0.036    28.886     8.814
    12   6 C        2.917    -0.028    28.708     8.786
    13   6 C        2.922    -0.045    29.111     8.848
    14   6 C        2.910     0.065    26.555     8.450
    15   7 N        2.801    -0.045    22.107     6.983
    16   6 C        3.075     0.048    26.855     8.496
    17   6 C        2.910    -0.051    29.278     8.873
    18   6 C        2.923    -0.035    28.871     8.812
    19   6 C        2.920    -0.042    29.049     8.838
    20   6 C        2.912    -0.035    28.864     8.810
    21   6 C        3.067    -0.018    28.398     8.738
    22   6 C        3.068    -0.018    28.398     8.738
    23   6 C        2.912    -0.035    28.861     8.809
    24   6 C        2.920    -0.042    29.053     8.839
    25   6 C        2.923    -0.035    28.866     8.811
    26   6 C        2.910    -0.051    29.269     8.871
    27   6 C        3.074     0.048    26.851     8.496
    28   6 C        2.927    -0.046    29.135     8.852
    29   6 C        2.978     0.008    27.838     8.655
    30   6 C        2.928    -0.044    29.091     8.845
    31   6 C        2.968     0.013    27.716     8.635
    32   6 C        3.903     0.026    20.075     6.369
    33   6 C        3.761    -0.105    22.562     6.771
    34   6 C        3.761    -0.104    22.540     6.768
    35   6 C        3.762    -0.105    22.555     6.770
    36   6 C        2.922    -0.037    28.924     8.819
    37   6 C        2.918    -0.037    28.913     8.818
    38   6 C        2.976     0.004    27.924     8.668
    39   6 C        2.971    -0.005    28.147     8.702
    40   6 C        2.971     0.018    27.611     8.619
    41   6 C        2.921    -0.031    28.779     8.797
    42   6 C        2.921    -0.024    28.601     8.770
    43   6 C        2.971     0.003    27.963     8.674
    44   6 C        1.911     0.111    28.351     8.599
    45   7 N        0.911    -0.305    27.858     7.634
    46   6 C        2.921    -0.024    28.601     8.770
    47   6 C        2.921    -0.031    28.773     8.796
    48   6 C        2.975     0.006    27.874     8.660
    49   6 C        2.926    -0.044    29.087     8.845
    50   1 H        0.925     0.041     2.441     2.443
    51   1 H        0.925     0.034     2.537     2.491
    52   1 H        0.925     0.039     2.466     2.456
    53   1 H        0.925     0.036     2.506     2.476
    54   1 H        0.925     0.039     2.464     2.455
    55   1 H        0.925     0.035     2.520     2.482
    56   1 H        0.925     0.039     2.464     2.455
    57   1 H        0.925     0.034     2.531     2.488
    58   1 H        0.925     0.041     2.438     2.442
    59   1 H        0.926     0.035     2.518     2.481
    60   1 H        0.926     0.033     2.543     2.494
    61   1 H        0.926     0.039     2.463     2.454
    62   1 H        0.926     0.041     2.433     2.439
    63   1 H        0.926     0.042     2.424     2.435
    64   1 H        0.926     0.031     2.573     2.509
    65   1 H        0.926     0.030     2.583     2.513
    66   1 H        0.926     0.028     2.618     2.530
    67   1 H        0.926     0.030     2.586     2.515
    68   1 H        0.926     0.030     2.590     2.516
    69   1 H        0.926     0.028     2.620     2.531
    70   1 H        0.926     0.030     2.582     2.513
    71   1 H        0.926     0.031     2.577     2.510
    72   1 H        0.926     0.041     2.437     2.441
    73   1 H        0.926     0.041     2.432     2.439
    74   1 H        0.925     0.035     2.511     2.478
    75   1 H        0.925     0.039     2.467     2.456
    76   1 H        0.925     0.036     2.501     2.473
    77   1 H        0.925     0.041     2.442     2.444
    78   1 H        0.925     0.038     2.479     2.462
    79   1 H        0.925     0.034     2.535     2.490
    80   1 H        0.925     0.041     2.436     2.441
    81   1 H        0.925     0.034     2.533     2.489
    82   1 H        0.925     0.038     2.479     2.462
    83   1 H        0.926     0.034     2.536     2.490
    84   1 H        0.926     0.034     2.527     2.486
    85   1 H        0.926     0.042     2.427     2.436
    86   1 H        0.926     0.033     2.550     2.497
    87   1 H        0.926     0.033     2.546     2.495
    88   1 H        0.926     0.042     2.421     2.433
    89   1 H        0.926     0.047     2.354     2.399

molecular dipole:
                 x           y           z       tot (Debye)
 q only:        2.375      -0.710       1.338
   full:        2.693      -0.791       1.464       8.045

 projected vibrational frequencies (cm⁻¹)
eigval :       -0.00    -0.00     0.00     0.00     0.00     0.00
eigval :        8.27    12.81    13.51    25.70    31.31    33.51
eigval :       33.75    39.17    50.25    54.50    66.33    72.27
eigval :       79.53    82.20   101.52   105.79   115.27   131.80
eigval :      135.30   142.15   153.22   166.86   175.39   184.14
eigval :      190.14   201.25   211.17   214.90   224.19   226.33
eigval :      230.07   236.18   243.04   247.93   259.97   267.21
eigval :      271.24   292.56   316.82   319.34   320.70   329.47
eigval :      334.89   343.19   357.58   371.12   372.86   377.85
eigval :      382.96   392.27   398.99   405.92   407.61   412.86
eigval :      421.95   428.54   432.04   438.03   442.36   461.97
eigval :      484.78   494.80   514.54   516.89   520.06   532.03
eigval :      534.11   536.47   540.05   553.13   567.39   573.65
eigval :      589.39   602.76   607.80   611.25   625.29   628.50
eigval :      635.80   638.01   666.77   671.43   675.01   675.31
eigval :      678.05   708.21   712.33   717.32   730.81   756.27
eigval :      762.35   767.39   778.69   800.64   804.68   807.75
eigval :      811.75   820.12   844.21   848.08   865.90   866.51
eigval :      867.78   869.61   883.37   890.97   895.49   897.93
eigval :      899.15   901.75   903.86   905.11   908.24   919.97
eigval :      921.54   926.43   931.32   933.36   937.71   957.33
eigval :      959.19   959.48   961.84   962.06   964.10   968.50
eigval :      989.96   996.93  1005.52  1009.78  1015.44  1033.31
eigval :     1033.71  1034.32  1036.75  1069.28  1072.88  1114.93
eigval :     1124.00  1132.99  1135.06  1143.22  1150.18  1151.25
eigval :     1155.10  1171.18  1177.75  1179.34  1179.38  1186.82
eigval :     1197.65  1206.42  1221.37  1221.48  1227.39  1228.63
eigval :     1234.32  1241.07  1241.95  1242.79  1254.43  1259.40
eigval :     1263.96  1276.01  1282.19  1289.77  1297.63  1299.36
eigval :     1300.34  1306.54  1309.95  1310.71  1337.34  1349.79
eigval :     1353.96  1355.49  1357.04  1363.29  1372.70  1388.84
eigval :     1402.05  1402.77  1403.76  1405.17  1411.80  1415.08
eigval :     1425.61  1426.88  1427.80  1432.35  1437.92  1457.20
eigval :     1466.77  1473.41  1476.42  1486.43  1486.70  1488.27
eigval :     1490.34  1490.74  1491.32  1491.65  1496.17  1501.03
eigval :     1503.01  1503.91  1512.23  1512.89  1513.59  1516.56
eigval :     1518.41  1532.87  1541.06  1561.88  1562.40  1571.91
eigval :     1579.72  1587.04  1596.29  1611.46  2313.75  3020.62
eigval :     3021.00  3021.93  3021.99  3024.93  3025.31  3026.75
eigval :     3026.82  3029.63  3029.67  3031.46  3032.73  3037.38
eigval :     3041.08  3044.29  3044.58  3047.62  3048.27  3070.83
eigval :     3072.68  3073.48  3075.19  3076.54  3077.02  3078.99
eigval :     3082.91  3084.75  3085.29  3086.69  3086.89  3088.71
eigval :     3089.41  3090.01  3091.51  3094.27  3095.45  3096.96
eigval :     3097.69  3121.50  3132.99

   temp. (K)  partition function   enthalpy   heat capacity  entropy
                                   cal/mol     cal/K/mol   cal/K/mol   J/K/mol
 298.15  VIB  0.469E+20            25644.289    159.987    158.801
         ROT  0.922E+08              888.752      2.981     39.425
         INT  0.433E+28            26533.041    162.968    198.226
         TR   0.154E+29             1481.254      4.968     45.197
         TOT                       28014.2954   167.9363   243.4232  1018.4829

       T/K    H(0)-H(T)+PV         H(T)/Eh          T*S/Eh         G(T)/Eh
   ------------------------------------------------------------------------
    298.15    0.446436E-01    0.758498E+00    0.115658E+00    0.642839E+00
   ------------------------------------------------------------------------

         :::::::::::::::::::::::::::::::::::::::::::::::::::::
         ::                  THERMODYNAMIC                  ::
         :::::::::::::::::::::::::::::::::::::::::::::::::::::
         :: total free energy        -126.269111008130 Eh   ::
         ::.................................................::
         :: total energy             -126.911950429799 Eh   ::
         :: zero point energy           0.713854039258 Eh   ::
         :: G(RRHO) w/o ZPVE           -0.071014617590 Eh   ::
         :: G(RRHO) contrib.            0.642839421669 Eh   ::
         :::::::::::::::::::::::::::::::::::::::::::::::::::::

           -------------------------------------------------
          | TOTAL ENERGY             -126.911950429799 Eh   |
          | TOTAL ENTHALPY           -126.153452769102 Eh   |
          | TOTAL FREE ENERGY        -126.269111008130 Eh   |
          | GRADIENT NORM               0.000054220110 Eh/α |
          | HOMO-LUMO GAP               0.809448762248 eV   |
           -------------------------------------------------

 * finished run on 2025/09/09 at 23:32:57.235
