   * xtb version 6.7.1 (edcfbbe) compiled by 'albert@albert-system' on 2024-07-22

   ID    Z sym.   atoms
    1    6 C      1-14, 16-44, 46-49
    2    7 N      15, 45
    3    1 H      50-89

          program call               : xtb data2507/toluene/mCz-TAn-CN/mCz-TAn-CN_toluene_S0_crest.xyz --gfn 2 --gbsa toluene --ohess vtight --parallel 40 --molden --ceasefiles --namespace data2507/toluene/mCz-TAn-CN/mCz-TAn-CN_toluene_S0_finalOpt
      * Solvation model:               GBSA
        Solvent                        toluene
        Solvent mass                       9.2140E+01 g/mol
          :  Hamiltonian                  GFN2-xTB          :
 * total energy  :  -126.9800857 Eh     change       -0.2117446E-08 Eh
 * total energy  :  -126.9801309 Eh     change       -0.4515333E-04 Eh
 * total energy  :  -126.9801624 Eh     change       -0.3149592E-04 Eh
 * total energy  :  -126.9801768 Eh     change       -0.1440418E-04 Eh
 * total energy  :  -126.9802128 Eh     change       -0.3605037E-04 Eh
 * total energy  :  -126.9802323 Eh     change       -0.1949857E-04 Eh
 * total energy  :  -126.9802557 Eh     change       -0.2336775E-04 Eh
 * total energy  :  -126.9802664 Eh     change       -0.1070673E-04 Eh
 * total energy  :  -126.9802756 Eh     change       -0.9150761E-05 Eh
 * total energy  :  -126.9802858 Eh     change       -0.1020629E-04 Eh
 * total energy  :  -126.9806244 Eh     change       -0.7432298E-06 Eh
 * total energy  :  -126.9806252 Eh     change       -0.7814402E-06 Eh
 * total energy  :  -126.9806261 Eh     change       -0.9179357E-06 Eh
 * total energy  :  -126.9806271 Eh     change       -0.9829441E-06 Eh
 * total energy  :  -126.9806279 Eh     change       -0.8262477E-06 Eh
 * total energy  :  -126.9806285 Eh     change       -0.6229554E-06 Eh
 * total energy  :  -126.9806290 Eh     change       -0.4734286E-06 Eh
 * total energy  :  -126.9806294 Eh     change       -0.4493385E-06 Eh
 * total energy  :  -126.9806294 Eh     change       -0.4402082E-08 Eh
   *** GEOMETRY OPTIMIZATION CONVERGED AFTER 68 ITERATIONS ***

 final structure:
================
89
 xtb: 6.7.1 (edcfbbe)
C           -3.35202094643539       -5.29801602835191       -1.36128362865964
C           -3.95876011544976       -4.46681941988430       -0.22095205210583
C           -5.36053296309234       -4.01955085709679       -0.64758978576166
C           -4.09710702250905       -5.33362500239419        1.03976858696784
C           -3.03690461882472       -3.29665158879225        0.08023991147152
C           -1.70802018783910       -3.56226728359673        0.50078645372261
C           -0.83322356219371       -2.55929032723492        0.77428888395718
C           -1.21289613193591       -1.19660908216458        0.66466036992827
C           -0.32144385138093       -0.15258798851072        0.93488154178924
C            1.06384823135058       -0.45601942292243        1.36459228622493
C            1.34328710348516       -0.73100100809647        2.69943011958109
C            2.64151881195105       -0.99881664233846        3.09713653688742
C            3.67278924040439       -0.98864024218153        2.17553554215511
C            3.40084454642341       -0.72479160106000        0.83579662344093
N            4.44287303251673       -0.71248859495145       -0.10488652641331
C            5.40498425888925       -1.69094153667727       -0.25791165424135
C            5.52827828482679       -2.91797330906411        0.37943221247202
C            6.58592582217297       -3.73061616273444        0.01825407651088
C            7.49987834852415       -3.34379306656198       -0.96024476190128
C            7.36786277913548       -2.13612509931572       -1.61639349105023
C            6.31232866041925       -1.30176465577767       -1.27063940821717
C            5.86927739774283       -0.02024085904388       -1.74395728480103
C            6.35002840279205        0.86250054969516       -2.70288944208697
C            5.67881529591329        2.05220331667809       -2.90368450736253
C            4.54819210957964        2.37146969601166       -2.15417561864223
C            4.05124508024736        1.50988531183131       -1.19500856931293
C            4.71010587025979        0.30375602247926       -1.00085372712880
C            2.09529019230752       -0.46349474104010        0.43461968707194
C           -0.73350143332763        1.18093986315171        0.81166589654595
C            0.14681399696700        2.25510308178905        1.10660151199659
C           -0.23648991627306        3.56247453244891        1.01920374388615
C            0.68389931720298        4.72792969662971        1.34216129117454
C            2.08141481831860        4.27336791640457        1.77426820232502
C            0.82958120606135        5.61169649545354        0.09428483782284
C            0.07118263323002        5.54435647996805        2.49011445068808
C           -1.56947579717011        3.83371334811880        0.61593412270875
C           -2.44683150214649        2.83724240299418        0.32498469172099
C           -2.06917120254705        1.47163950379787        0.40170822483330
C           -2.96082718141777        0.42586009695916        0.12505848527145
C           -4.34096269808242        0.73429742739517       -0.30252748723062
C           -4.58190743607285        1.29659846149307       -1.55552008070854
C           -5.86806848709513        1.58494371749918       -1.96349338181971
C           -6.94180559160632        1.31435905908825       -1.11178158437494
C           -8.25944199201587        1.61076343955482       -1.52038318584456
N           -9.33213915691882        1.85227923943786       -1.85199587249701
C           -6.71021928711739        0.75206696813529        0.14603053582705
C           -5.41936558986839        0.46587330138725        0.53990533386888
C           -2.54898061857830       -0.90955626604037        0.25322462071838
C           -3.42024526179519       -1.99147475300939       -0.03974379397444
H           -4.00743525590144       -6.13148876747083       -1.60519236592124
H           -3.22987818578547       -4.68305313904644       -2.25111486469647
H           -2.37963222290007       -5.69888347283668       -1.08825861219333
H           -5.84306860166212       -3.43966858738330        0.13618099703944
H           -5.97582468030721       -4.89542361467349       -0.84401834284233
H           -5.32384729194347       -3.42543185136834       -1.55821600200975
H           -3.13853791563217       -5.73721276697184        1.35417094789838
H           -4.50481720652188       -4.74404057866873        1.85882469768492
H           -4.76952593932302       -6.16700639587342        0.84718974692334
H           -1.37680333142869       -4.58479992106556        0.59955684353919
H            0.17707903164480       -2.78846562734053        1.08136527661666
H            0.53962821298661       -0.72949486962193        3.42101829240730
H            2.85473866128379       -1.20593779803474        4.13559901599886
H            4.69012147059275       -1.17061951702031        2.48773786348791
H            4.81662318896186       -3.23481567785548        1.12694824249855
H            6.70549496581852       -4.68877539996511        0.50308283702634
H            8.31578773220117       -4.00543648155204       -1.21218897509720
H            8.06686094168715       -1.84378132450568       -2.38595450618415
H            7.23358942978169        0.62088648668805       -3.27493678227689
H            6.03513405023250        2.75124310932221       -3.64620097522051
H            4.05133715349389        3.31504416242247       -2.32719443086686
H            3.18004261419975        1.77139383554825       -0.61382315052447
H            1.87931813251859       -0.27656180628360       -0.60713039722404
H            1.14407677543902        1.99055999170594        1.41796783063178
H            2.03464946407579        3.65658029989529        2.66920859893920
H            2.69293585712304        5.14516359962605        1.99853830481439
H            2.57585681120964        3.71425200359394        0.98339975354106
H            1.50331042515166        6.44076862052165        0.30047751840929
H           -0.12729344027521        6.02138149635084       -0.21795529336212
H            1.23826578516272        5.03251437598655       -0.73151512952776
H            0.72766369937886        6.37203254131241        2.75043615419617
H           -0.05896440977300        4.91694455257266        3.36999578370299
H           -0.89768028996393        5.95335518435941        2.21675804886658
H           -1.90356374075112        4.85760936924937        0.54348292067824
H           -3.45877155195720        3.08124064766074        0.03562895085686
H           -3.74912332236879        1.50154969786743       -2.21218758626549
H           -6.05360204232064        2.01775397047069       -2.93588135059135
H           -7.54469981383780        0.54670823673285        0.80075397679426
H           -5.23551851134805        0.03463886572761        1.51300842126306
H           -4.41465459737116       -1.74146504738235       -0.36975589664046

          :  Hamiltonian                  GFN2-xTB          :
         :: gradient norm              0.000063206239 Eh/a0 ::
         :: HOMO-LUMO gap              2.079750432389 eV    ::
         :: SCC energy              -129.353780450887 Eh    ::
         :: -> dispersion             -0.120483399844 Eh    ::
         :: -> Gsolv                  -0.053033301276 Eh    ::
         :: repulsion energy           2.373151013446 Eh    ::

    * Orbital Energies and Occupations

         #    Occupation            Energy/Eh            Energy/eV
      -------------------------------------------------------------
         1        2.0000           -0.6759001             -18.3922
       ...           ...                  ...                  ...
       107        2.0000           -0.4181308             -11.3779
       108        2.0000           -0.4174089             -11.3583
       109        2.0000           -0.4152480             -11.2995
       110        2.0000           -0.4117097             -11.2032
       111        2.0000           -0.4091356             -11.1331
       112        2.0000           -0.4052913             -11.0285
       113        2.0000           -0.4032344             -10.9726
       114        2.0000           -0.4017662             -10.9326
       115        2.0000           -0.4005128             -10.8985
       116        2.0000           -0.3928862             -10.6910
       117        2.0000           -0.3786393             -10.3033
       118        2.0000           -0.3625871              -9.8665
       119        2.0000           -0.3581814              -9.7466 (HOMO)
       120                         -0.2817520              -7.6669 (LUMO)
       121                         -0.2699841              -7.3466
       122                         -0.2462292              -6.7002
       123                         -0.2415458              -6.5728
       124                         -0.2337997              -6.3620
       125                         -0.2314087              -6.2970
       126                         -0.2300165              -6.2591
       127                         -0.2220542              -6.0424
       128                         -0.2178745              -5.9287
       129                         -0.2127189              -5.7884
       130                         -0.1905498              -5.1851
       ...                                ...                  ...
       236                          1.1589126              31.5356
      -------------------------------------------------------------
                  HL-Gap            0.0764294 Eh            2.0798 eV

     #   Z          covCN         q      C6AA      α(0)
     1   6 C        3.761    -0.104    22.536     6.767
     2   6 C        3.903     0.025    20.093     6.372
     3   6 C        3.761    -0.106    22.577     6.774
     4   6 C        3.761    -0.104    22.541     6.768
     5   6 C        2.969     0.009    27.807     8.650
     6   6 C        2.921    -0.034    28.850     8.808
     7   6 C        2.915    -0.038    28.936     8.821
     8   6 C        2.985     0.003    27.952     8.673
     9   6 C        2.979    -0.006    28.168     8.706
    10   6 C        2.977     0.020    27.558     8.611
    11   6 C        2.923    -0.036    28.903     8.816
    12   6 C        2.918    -0.029    28.720     8.788
    13   6 C        2.922    -0.046    29.133     8.851
    14   6 C        2.911     0.064    26.565     8.452
    15   7 N        2.802    -0.047    22.153     6.991
    16   6 C        3.075     0.048    26.849     8.495
    17   6 C        2.910    -0.052    29.290     8.874
    18   6 C        2.924    -0.035    28.880     8.813
    19   6 C        2.920    -0.043    29.066     8.841
    20   6 C        2.912    -0.035    28.873     8.811
    21   6 C        3.067    -0.019    28.413     8.740
    22   6 C        3.067    -0.019    28.412     8.740
    23   6 C        2.912    -0.035    28.872     8.811
    24   6 C        2.920    -0.043    29.069     8.841
    25   6 C        2.924    -0.035    28.873     8.812
    26   6 C        2.910    -0.051    29.274     8.872
    27   6 C        3.075     0.048    26.844     8.495
    28   6 C        2.927    -0.046    29.132     8.851
    29   6 C        2.984     0.004    27.935     8.670
    30   6 C        2.924    -0.047    29.156     8.855
    31   6 C        2.968     0.009    27.819     8.652
    32   6 C        3.902     0.026    20.090     6.371
    33   6 C        3.761    -0.105    22.554     6.770
    34   6 C        3.761    -0.103    22.521     6.765
    35   6 C        3.761    -0.104    22.538     6.768
    36   6 C        2.921    -0.034    28.844     8.807
    37   6 C        2.914    -0.039    28.975     8.827
    38   6 C        2.984     0.003    27.942     8.671
    39   6 C        2.977    -0.010    28.271     8.722
    40   6 C        2.976     0.030    27.329     8.575
    41   6 C        2.923    -0.027    28.679     8.782
    42   6 C        2.924    -0.019    28.486     8.753
    43   6 C        2.973     0.013    27.724     8.637
    44   6 C        1.912     0.118    28.196     8.575
    45   7 N        0.911    -0.278    27.182     7.540
    46   6 C        2.924    -0.019    28.486     8.753
    47   6 C        2.923    -0.027    28.671     8.781
    48   6 C        2.982     0.004    27.917     8.667
    49   6 C        2.923    -0.049    29.213     8.863
    50   1 H        0.925     0.039     2.460     2.453
    51   1 H        0.925     0.032     2.553     2.499
    52   1 H        0.925     0.038     2.482     2.464
    53   1 H        0.925     0.035     2.517     2.481
    54   1 H        0.925     0.038     2.473     2.459
    55   1 H        0.925     0.034     2.532     2.488
    56   1 H        0.925     0.038     2.478     2.462
    57   1 H        0.925     0.033     2.542     2.493
    58   1 H        0.925     0.039     2.461     2.453
    59   1 H        0.926     0.032     2.557     2.500
    60   1 H        0.926     0.028     2.614     2.528
    61   1 H        0.926     0.036     2.497     2.471
    62   1 H        0.926     0.040     2.454     2.450
    63   1 H        0.926     0.040     2.446     2.446
    64   1 H        0.926     0.030     2.592     2.518
    65   1 H        0.926     0.029     2.594     2.519
    66   1 H        0.926     0.027     2.628     2.535
    67   1 H        0.926     0.029     2.597     2.520
    68   1 H        0.926     0.029     2.598     2.521
    69   1 H        0.926     0.027     2.629     2.536
    70   1 H        0.926     0.029     2.597     2.520
    71   1 H        0.926     0.029     2.599     2.521
    72   1 H        0.926     0.039     2.462     2.453
    73   1 H        0.926     0.036     2.506     2.476
    74   1 H        0.925     0.035     2.521     2.483
    75   1 H        0.925     0.038     2.478     2.462
    76   1 H        0.925     0.034     2.527     2.486
    77   1 H        0.925     0.039     2.463     2.454
    78   1 H        0.925     0.037     2.489     2.467
    79   1 H        0.925     0.032     2.552     2.498
    80   1 H        0.925     0.039     2.461     2.453
    81   1 H        0.925     0.033     2.547     2.496
    82   1 H        0.925     0.037     2.488     2.467
    83   1 H        0.926     0.032     2.561     2.503
    84   1 H        0.926     0.027     2.635     2.538
    85   1 H        0.926     0.046     2.373     2.409
    86   1 H        0.926     0.042     2.428     2.437
    87   1 H        0.926     0.042     2.424     2.435
    88   1 H        0.926     0.046     2.366     2.405
    89   1 H        0.926     0.037     2.492     2.469

molecular dipole:
                 x           y           z       tot (Debye)
 q only:        1.165      -0.404       0.997
   full:        1.499      -0.486       1.123       4.917

 projected vibrational frequencies (cm⁻¹)
eigval :       -0.00    -0.00    -0.00     0.00     0.00     0.00
eigval :        9.44    11.72    12.57    25.69    30.25    33.56
eigval :       37.31    44.09    45.38    50.20    54.97    66.43
eigval :       77.12    83.86    93.91   105.38   108.56   132.27
eigval :      138.85   141.34   146.35   165.52   169.26   188.47
eigval :      190.57   198.18   208.19   211.65   215.27   222.51
eigval :      228.46   230.99   235.73   245.22   254.62   266.29
eigval :      271.25   292.87   317.27   322.01   323.19   328.96
eigval :      340.13   352.93   357.66   365.35   374.42   382.24
eigval :      391.07   394.74   405.08   408.62   412.90   421.74
eigval :      431.25   432.41   437.58   447.57   451.89   462.67
eigval :      485.43   510.01   517.51   519.84   520.77   533.64
eigval :      537.45   540.38   541.42   558.81   573.94   578.38
eigval :      590.03   606.39   610.27   616.06   637.55   639.32
eigval :      647.17   648.65   670.96   673.41   676.01   685.28
eigval :      699.03   708.07   717.22   729.68   739.90   756.18
eigval :      766.66   767.46   778.90   799.37   809.46   818.74
eigval :      822.62   826.68   865.70   867.20   868.53   869.53
eigval :      871.64   883.16   890.27   892.45   895.20   899.47
eigval :      903.32   905.92   906.99   918.50   919.43   923.39
eigval :      926.53   929.56   930.34   931.15   931.54   958.71
eigval :      959.64   959.71   962.21   964.17   965.62   968.31
eigval :      983.69   996.80  1006.04  1012.83  1021.18  1033.68
eigval :     1034.80  1035.17  1036.60  1067.87  1071.90  1115.33
eigval :     1124.62  1130.05  1131.18  1135.08  1149.46  1151.84
eigval :     1164.84  1173.02  1178.01  1179.61  1184.65  1187.86
eigval :     1208.08  1213.12  1225.10  1225.15  1227.38  1229.37
eigval :     1234.46  1239.55  1242.64  1247.62  1255.95  1261.16
eigval :     1263.54  1268.35  1280.76  1283.28  1299.00  1302.12
eigval :     1306.99  1308.20  1315.22  1336.83  1350.56  1356.65
eigval :     1358.96  1364.50  1391.19  1393.26  1403.31  1403.73
eigval :     1404.02  1404.57  1415.47  1421.81  1426.75  1427.70
eigval :     1428.80  1432.86  1444.08  1458.33  1464.98  1473.96
eigval :     1482.80  1485.90  1487.22  1487.71  1490.37  1490.53
eigval :     1492.49  1497.41  1498.24  1501.32  1505.14  1511.74
eigval :     1512.95  1516.84  1517.54  1518.64  1531.56  1542.75
eigval :     1544.66  1569.77  1573.64  1584.24  1586.89  1588.70
eigval :     1597.51  1610.34  1613.28  1624.59  2359.81  3019.95
eigval :     3020.90  3021.13  3022.41  3023.74  3024.79  3025.23
eigval :     3026.60  3028.70  3029.55  3029.86  3031.31  3035.72
eigval :     3037.52  3043.71  3044.01  3047.04  3047.72  3070.57
eigval :     3071.27  3074.05  3074.21  3075.78  3076.19  3076.80
eigval :     3079.06  3080.52  3083.57  3084.48  3087.08  3087.89
eigval :     3089.24  3090.04  3090.16  3090.77  3092.02  3093.05
eigval :     3096.58  3115.14  3119.80

   temp. (K)  partition function   enthalpy   heat capacity  entropy
                                   cal/mol     cal/K/mol   cal/K/mol   J/K/mol
 298.15  VIB  0.680E+20            25590.783    158.796    159.019
         ROT  0.920E+08              888.752      2.981     39.422
         INT  0.626E+28            26479.535    161.777    198.441
         TR   0.154E+29             1481.254      4.968     45.197
         TOT                       27960.7889   166.7450   243.6384  1019.3831

       T/K    H(0)-H(T)+PV         H(T)/Eh          T*S/Eh         G(T)/Eh
   ------------------------------------------------------------------------
    298.15    0.445584E-01    0.760862E+00    0.115760E+00    0.645102E+00
   ------------------------------------------------------------------------

         :::::::::::::::::::::::::::::::::::::::::::::::::::::
         ::                  THERMODYNAMIC                  ::
         :::::::::::::::::::::::::::::::::::::::::::::::::::::
         :: total free energy        -126.335527778261 Eh   ::
         ::.................................................::
         :: total energy             -126.980629427972 Eh   ::
         :: zero point energy           0.716303767161 Eh   ::
         :: G(RRHO) w/o ZPVE           -0.071202117451 Eh   ::
         :: G(RRHO) contrib.            0.645101649711 Eh   ::
         :::::::::::::::::::::::::::::::::::::::::::::::::::::

           -------------------------------------------------
          | TOTAL ENERGY             -126.980629427972 Eh   |
          | TOTAL ENTHALPY           -126.219767307368 Eh   |
          | TOTAL FREE ENERGY        -126.335527778261 Eh   |
          | GRADIENT NORM               0.000063203053 Eh/α |
          | HOMO-LUMO GAP               2.079750551485 eV   |
           -------------------------------------------------

 * finished run on 2025/09/09 at 23:32:47.108
