   * xtb version 6.7.1 (edcfbbe) compiled by 'albert@albert-system' on 2024-07-22

   ID    Z sym.   atoms
    1    8 O      1, 21
    2   15 P      2
    3    6 C      3-20, 22-34, 36-65
    4    7 N      35
    5    1 H      66-107

          program call               : xtb data2507/gas/9CzFDPESPO/9CzFDPESPO.xyz --gfn 2 --ohess vtight --parallel 40 --molden --ceasefiles --namespace data2507/gas/9CzFDPESPO/9CzFDPESPO_gas_S0_preOpt
          :  Hamiltonian                  GFN2-xTB          :
 * total energy  :  -165.6675285 Eh     change       -0.1240011E-08 Eh
 * total energy  :  -165.6861398 Eh     change       -0.1861125E-01 Eh
 * total energy  :  -165.6919423 Eh     change       -0.5802508E-02 Eh
 * total energy  :  -165.6940472 Eh     change       -0.2104978E-02 Eh
 * total energy  :  -165.6959723 Eh     change       -0.1925092E-02 Eh
 * total energy  :  -165.6970881 Eh     change       -0.1115725E-02 Eh
 * total energy  :  -165.6977588 Eh     change       -0.6707686E-03 Eh
 * total energy  :  -165.6982090 Eh     change       -0.4501577E-03 Eh
 * total energy  :  -165.6984847 Eh     change       -0.2757109E-03 Eh
 * total energy  :  -165.6986627 Eh     change       -0.1779730E-03 Eh
 * total energy  :  -165.7000529 Eh     change       -0.1023654E-05 Eh
 * total energy  :  -165.7000541 Eh     change       -0.1202610E-05 Eh
 * total energy  :  -165.7000556 Eh     change       -0.1520816E-05 Eh
 * total energy  :  -165.7000574 Eh     change       -0.1807899E-05 Eh
 * total energy  :  -165.7000592 Eh     change       -0.1795644E-05 Eh
 * total energy  :  -165.7000608 Eh     change       -0.1564237E-05 Eh
 * total energy  :  -165.7000620 Eh     change       -0.1232756E-05 Eh
 * total energy  :  -165.7000629 Eh     change       -0.9130667E-06 Eh
 * total energy  :  -165.7000629 Eh     change       -0.4093266E-08 Eh
   *** GEOMETRY OPTIMIZATION CONVERGED AFTER 94 ITERATIONS ***

 final structure:
================
107
 xtb: 6.7.1 (edcfbbe)
O           -6.60901246142252       -2.21074106392606       -0.96923822392292
P           -7.72966197541412       -1.40325126894716       -0.47500070314346
C           -7.67816299672682       -1.04561640769878        1.30883993024838
C           -6.90371635405803       -1.89007853834764        2.08945576242724
C           -6.80519194680295       -1.67668556629314        3.45260188111927
C           -7.48197176513276       -0.61703531089416        4.03423935489628
C           -8.25011871460404        0.23161376482520        3.25257273451403
C           -8.34935373717888        0.02094083339285        1.88931611446680
C           -9.34388896652382       -2.20465864900062       -0.74448542855059
C          -10.53917963547651       -1.67593476885310       -0.27428311279986
C          -11.72718275963285       -2.33875380034566       -0.52125008947864
C          -11.72625045675616       -3.52811260213033       -1.23397197172036
C          -10.53470379139097       -4.05889073100449       -1.69931816621880
C           -9.34484285219143       -3.39709494486019       -1.45288598887460
C           -7.87268106906981        0.20724440472400       -1.32062562758237
C           -8.84309740013166        0.59391494493339       -2.22531071875030
C           -8.72204314591244        1.81245375011067       -2.87491247579110
C           -7.63449650791295        2.63199033874015       -2.61975221201635
C           -6.65433322059937        2.25456294775923       -1.71663733040871
C           -6.77691421147747        1.03310016948825       -1.06965468413641
O           -5.95115888410034        0.56652320163158       -0.09585200380720
C           -4.60662462582118        0.83168464063110       -0.10613464900271
C           -3.86492465048660        0.94250550044984       -1.27578884620232
C           -2.50176115435860        1.15002461615770       -1.20338612609606
C           -1.85446623321067        1.25555379288754        0.02512000769539
C           -0.40511763091007        1.48888138346850        0.09206654848954
C            0.46787925238897        0.80873099423784       -0.75350089587606
C            1.82942854340274        1.02545549454626       -0.68517273750711
C            2.36057551452060        1.93224373710681        0.22582852330730
C            3.84954477995848        2.21204926672260        0.23915040363166
C            4.67854211962090        0.95755529852079        0.05831327859066
C            4.29291238754027       -0.22882715982114        0.67328468582256
C            5.07284370169961       -1.36358297670095        0.57393583925778
C            6.27057497250074       -1.32854973553649       -0.13375907716202
N            7.06957679727313       -2.47622558337164       -0.22864262087490
C            7.57794141331783       -3.01419866738710       -1.39359631047038
C            7.39796654316733       -2.60621888660921       -2.70755423039620
C            8.00482570795296       -3.34862677547851       -3.70216259696386
C            8.76777455604188       -4.47617363309933       -3.40605083659823
C            8.93202109996576       -4.89979755058035       -2.10256540738052
C            8.33161961750709       -4.17012653820951       -1.08498663043551
C            8.27480565332512       -4.32504156878862        0.34145149600337
C            8.82314843907919       -5.24470292964808        1.22576507210615
C            8.58472599052013       -5.08719812825409        2.57625374890753
C            7.82290960895238       -4.02105231134217        3.04968726161683
C            7.26666732633941       -3.09352261609614        2.19007404213220
C            7.48320379097207       -3.26000759165542        0.82962852046592
C            6.66736056482525       -0.14183143793821       -0.74110545930415
C            5.87664842360198        0.98702236444144       -0.64388592308605
C            4.32783757942167        2.89573518880258        1.50635472517778
C            4.34882853614075        2.40386468513606        2.79381790407607
C            4.85286810594530        3.20937714906681        3.80607317883719
C            5.33107390257051        4.48131772827065        3.53036643224456
C            5.31905742242753        4.97814617691845        2.23717182038968
C            4.81655474409903        4.17879727338965        1.22375903266258
C            4.68159254127054        4.42206061451322       -0.20318104448200
C            5.00257273307995        5.53094771054946       -0.96849861659559
C            4.76450054606956        5.48761365092237       -2.33261087342528
C            4.21422374736762        4.35908214928026       -2.92076076510732
C            3.88939914732897        3.24542361108961       -2.15791225737326
C            4.12955078319240        3.28040389054256       -0.80106260069247
C            1.49154713675386        2.62409028830698        1.05911781552921
C            0.12973367159986        2.39810226500121        1.00024366573483
C           -2.61029414281324        1.12826029735942        1.18895397643578
C           -3.97152896334814        0.91274827318304        1.12874797925497
H           -6.37338592197600       -2.69855787490994        1.60699467715889
H           -6.19871438198982       -2.33154431271829        4.06138206724491
H           -7.40529679826032       -0.44556361751369        5.09825214634509
H           -8.76771135166532        1.06382783286428        3.70809055704456
H           -8.92737437936420        0.69647171215153        1.27372015179630
H          -10.53784139366756       -0.75047815103321        0.28264697389652
H          -12.65841080837134       -1.92865282107884       -0.15754063678520
H          -12.65757616445008       -4.04139220974342       -1.42429771733161
H          -10.53438741278279       -4.98659067781791       -2.25276276178540
H           -8.40060452064117       -3.78884407288943       -1.80239293471991
H           -9.68333770566121       -0.05639667108733       -2.42277817386221
H           -9.47484643589216        2.12140027782475       -3.58420039969552
H           -7.54648777963948        3.58122320061570       -3.12711768549850
H           -5.81275765835577        2.89972872807848       -1.51043098032699
H           -4.35499796865664        0.84725621201977       -2.23348385518285
H           -1.93198852367536        1.24600927431207       -2.11580854080421
H            0.07559615914074        0.08706811225859       -1.45498472448169
H            2.48985906105439        0.47348226753265       -1.33853252965584
H            3.36257288237928       -0.27119650743458        1.22063563589404
H            4.75257697918591       -2.28623822160074        1.03450372247816
H            6.79513892784479       -1.74328075004880       -2.94775745907243
H            7.88215243855059       -3.05014485229570       -4.73301117410251
H            9.22796701731496       -5.02820611720382       -4.21208529047195
H            9.51073085740454       -5.78211561128202       -1.87403519169219
H            9.42668111184402       -6.06171920712392        0.85992344634565
H            9.00011487755322       -5.79248178587549        3.28070680646682
H            7.66673500790047       -3.91513453657115        4.11326261628435
H            6.69301403429523       -2.26023874876910        2.56733124356619
H            7.60534591447556       -0.10367930413207       -1.27456593056497
H            6.20095463353453        1.90373464339122       -1.11383373757792
H            3.97798802631388        1.41404436204641        3.01513645540083
H            4.87298944956100        2.83997393889577        4.82086791332314
H            5.71899836463855        5.09034315984405        4.33385212786348
H            5.69486236577553        5.96786500504368        2.02438575405788
H            5.42924664307667        6.41166750909213       -0.51205644666217
H            5.00883747261085        6.34273180744991       -2.94585755276639
H            4.03529584158573        4.34568134502134       -3.98588337483190
H            3.45986945419728        2.37079833051649       -2.62310363239931
H            1.88194950425437        3.34594163604562        1.76156963611237
H           -0.53122369319640        2.95129451606407        1.65154230236426
H           -2.12085689769265        1.17973062187151        2.15023143464021
H           -4.56183037681274        0.79469890389733        2.02479056801561

          :  Hamiltonian                  GFN2-xTB          :
         :: gradient norm              0.000052545911 Eh/a0 ::
         :: HOMO-LUMO gap              2.800956845372 eV    ::
         :: SCC energy              -168.773013086281 Eh    ::
         :: -> dispersion             -0.157593268890 Eh    ::
         :: repulsion energy           3.072950175639 Eh    ::

    * Orbital Energies and Occupations

         #    Occupation            Energy/Eh            Energy/eV
      -------------------------------------------------------------
         1        2.0000           -0.7291414             -19.8409
       ...           ...                  ...                  ...
       142        2.0000           -0.4095626             -11.1448
       143        2.0000           -0.4085312             -11.1167
       144        2.0000           -0.4061179             -11.0510
       145        2.0000           -0.4006088             -10.9011
       146        2.0000           -0.3997057             -10.8765
       147        2.0000           -0.3981306             -10.8337
       148        2.0000           -0.3976996             -10.8220
       149        2.0000           -0.3948012             -10.7431
       150        2.0000           -0.3927797             -10.6881
       151        2.0000           -0.3821566             -10.3990
       152        2.0000           -0.3744071             -10.1881
       153        2.0000           -0.3738930             -10.1741
       154        2.0000           -0.3575996              -9.7308 (HOMO)
       155                         -0.2546663              -6.9298 (LUMO)
       156                         -0.2496041              -6.7921
       157                         -0.2479670              -6.7475
       158                         -0.2445440              -6.6544
       159                         -0.2418032              -6.5798
       160                         -0.2338830              -6.3643
       161                         -0.2331338              -6.3439
       162                         -0.2307879              -6.2801
       163                         -0.2305281              -6.2730
       164                         -0.2296033              -6.2478
       165                         -0.2287157              -6.2237
       ...                                ...                  ...
       307                          1.2405160              33.7562
      -------------------------------------------------------------
                  HL-Gap            0.1029333 Eh            2.8010 eV

     #   Z          covCN         q      C6AA      α(0)
     1   8 O        0.808    -0.353    20.782     6.111
     2  15 P        4.151     0.069   157.187    22.522
     3   6 C        2.921     0.023    27.495     8.599
     4   6 C        3.033    -0.019    28.449     8.749
     5   6 C        2.919    -0.027    28.682     8.782
     6   6 C        2.921    -0.027    28.676     8.782
     7   6 C        2.920    -0.028    28.708     8.786
     8   6 C        2.974    -0.023    28.573     8.768
     9   6 C        2.920     0.009    27.811     8.648
    10   6 C        2.974    -0.027    28.670     8.783
    11   6 C        2.920    -0.029    28.723     8.789
    12   6 C        2.921    -0.026    28.650     8.778
    13   6 C        2.919    -0.028    28.689     8.783
    14   6 C        3.026    -0.021    28.496     8.756
    15   6 C        2.922    -0.008    28.220     8.711
    16   6 C        2.953    -0.024    28.612     8.773
    17   6 C        2.920    -0.038    28.952     8.824
    18   6 C        2.922    -0.027    28.685     8.783
    19   6 C        2.914    -0.059    29.455     8.900
    20   6 C        3.033     0.151    24.700     8.152
    21   8 O        1.745    -0.224    17.709     5.682
    22   6 C        2.869     0.143    24.881     8.177
    23   6 C        2.915    -0.051    29.267     8.871
    24   6 C        2.927    -0.033    28.830     8.805
    25   6 C        2.976     0.005    27.915     8.667
    26   6 C        2.977     0.009    27.820     8.652
    27   6 C        2.924    -0.035    28.875     8.812
    28   6 C        2.922    -0.035    28.860     8.810
    29   6 C        2.980     0.015    27.676     8.629
    30   6 C        3.947     0.008    20.381     6.415
    31   6 C        2.980     0.014    27.685     8.631
    32   6 C        2.924    -0.033    28.831     8.805
    33   6 C        2.922    -0.044    29.089     8.845
    34   6 C        2.913     0.062    26.617     8.460
    35   7 N        2.803    -0.044    22.092     6.981
    36   6 C        3.077     0.047    26.872     8.499
    37   6 C        2.910    -0.051    29.265     8.871
    38   6 C        2.924    -0.034    28.838     8.807
    39   6 C        2.920    -0.041    29.025     8.835
    40   6 C        2.912    -0.033    28.821     8.803
    41   6 C        3.068    -0.017    28.370     8.734
    42   6 C        3.068    -0.017    28.370     8.734
    43   6 C        2.913    -0.033    28.822     8.803
    44   6 C        2.920    -0.041    29.025     8.835
    45   6 C        2.924    -0.034    28.838     8.807
    46   6 C        2.910    -0.051    29.265     8.871
    47   6 C        3.077     0.047    26.872     8.499
    48   6 C        2.922    -0.044    29.083     8.844
    49   6 C        2.923    -0.035    28.874     8.812
    50   6 C        3.058     0.004    27.882     8.659
    51   6 C        2.914    -0.034    28.835     8.806
    52   6 C        2.922    -0.032    28.802     8.801
    53   6 C        2.921    -0.032    28.809     8.802
    54   6 C        2.915    -0.034    28.841     8.806
    55   6 C        3.035     0.001    27.967     8.674
    56   6 C        3.035     0.001    27.970     8.675
    57   6 C        2.915    -0.034    28.842     8.807
    58   6 C        2.921    -0.032    28.810     8.802
    59   6 C        2.922    -0.032    28.803     8.801
    60   6 C        2.914    -0.034    28.837     8.806
    61   6 C        3.057     0.004    27.885     8.660
    62   6 C        2.922    -0.036    28.903     8.816
    63   6 C        2.925    -0.035    28.880     8.813
    64   6 C        2.926    -0.033    28.819     8.804
    65   6 C        2.917    -0.049    29.216     8.864
    66   1 H        0.926     0.060     2.199     2.319
    67   1 H        0.926     0.037     2.488     2.467
    68   1 H        0.926     0.035     2.519     2.482
    69   1 H        0.926     0.033     2.537     2.491
    70   1 H        0.925     0.034     2.536     2.490
    71   1 H        0.926     0.038     2.470     2.457
    72   1 H        0.926     0.034     2.533     2.489
    73   1 H        0.926     0.036     2.509     2.477
    74   1 H        0.926     0.038     2.480     2.463
    75   1 H        0.926     0.063     2.166     2.301
    76   1 H        0.926     0.044     2.395     2.420
    77   1 H        0.926     0.042     2.428     2.436
    78   1 H        0.926     0.043     2.405     2.425
    79   1 H        0.926     0.042     2.417     2.431
    80   1 H        0.926     0.043     2.412     2.428
    81   1 H        0.926     0.041     2.434     2.440
    82   1 H        0.926     0.035     2.519     2.482
    83   1 H        0.926     0.031     2.571     2.508
    84   1 H        0.926     0.037     2.490     2.468
    85   1 H        0.926     0.041     2.431     2.438
    86   1 H        0.926     0.026     2.641     2.541
    87   1 H        0.926     0.028     2.615     2.529
    88   1 H        0.926     0.027     2.628     2.535
    89   1 H        0.926     0.030     2.584     2.514
    90   1 H        0.926     0.030     2.584     2.514
    91   1 H        0.926     0.027     2.629     2.535
    92   1 H        0.926     0.028     2.616     2.529
    93   1 H        0.926     0.026     2.639     2.541
    94   1 H        0.926     0.041     2.439     2.442
    95   1 H        0.926     0.036     2.500     2.472
    96   1 H        0.926     0.029     2.594     2.519
    97   1 H        0.926     0.031     2.573     2.509
    98   1 H        0.926     0.031     2.575     2.509
    99   1 H        0.926     0.032     2.564     2.504
   100   1 H        0.926     0.032     2.565     2.504
   101   1 H        0.926     0.031     2.576     2.510
   102   1 H        0.926     0.031     2.573     2.509
   103   1 H        0.926     0.030     2.584     2.514
   104   1 H        0.926     0.031     2.566     2.505
   105   1 H        0.926     0.032     2.560     2.502
   106   1 H        0.926     0.041     2.435     2.440
   107   1 H        0.926     0.045     2.382     2.414

molecular dipole:
                 x           y           z       tot (Debye)
 q only:       -0.898       1.362       0.369
   full:       -1.183       1.622       0.405       5.206

 projected vibrational frequencies (cm⁻¹)
eigval :       -0.00    -0.00    -0.00     0.00     0.00     0.00
eigval :        5.04     5.94     8.61    11.50    15.86    19.86
eigval :       23.90    28.37    29.00    33.67    36.24    44.13
eigval :       46.91    50.65    53.19    55.35    61.32    71.40
eigval :       80.97    86.69    89.76    91.77    99.90   105.28
eigval :      125.51   136.88   140.18   145.20   159.04   161.96
eigval :      173.13   179.55   193.11   196.30   207.80   225.80
eigval :      228.38   230.32   234.63   243.59   261.97   271.82
eigval :      278.75   284.03   289.92   310.64   319.07   343.50
eigval :      346.31   359.12   362.20   366.97   374.67   376.35
eigval :      382.51   383.06   387.30   391.66   392.40   407.77
eigval :      415.53   415.68   418.22   423.24   430.26   436.66
eigval :      446.36   450.02   456.36   479.55   487.69   497.60
eigval :      505.02   506.87   511.65   519.42   528.13   533.90
eigval :      536.31   541.28   542.34   564.78   581.34   585.64
eigval :      586.97   588.47   593.62   594.67   604.40   612.57
eigval :      614.68   620.81   626.36   655.63   656.99   661.01
eigval :      665.85   673.91   675.90   677.44   684.83   691.85
eigval :      701.01   708.20   713.44   717.11   721.95   728.69
eigval :      738.02   740.93   747.81   755.24   758.26   768.88
eigval :      769.45   779.31   780.63   784.98   798.58   813.99
eigval :      821.02   833.49   867.30   868.88   873.16   874.52
eigval :      876.85   877.20   878.63   880.10   880.49   882.84
eigval :      883.53   898.11   900.98   901.12   902.26   903.00
eigval :      903.62   904.37   909.17   910.46   911.79   913.23
eigval :      919.70   921.38   921.77   924.22   926.40   926.55
eigval :      926.97   927.66   928.09   928.41   929.87   933.50
eigval :      934.15   934.93   937.01   955.92   973.75   975.73
eigval :      992.56  1008.10  1012.29  1018.97  1027.03  1052.69
eigval :     1070.05  1073.51  1076.25  1076.31  1079.30  1081.62
eigval :     1081.97  1082.53  1108.41  1110.10  1117.10  1118.54
eigval :     1126.93  1127.52  1130.15  1140.53  1144.51  1147.81
eigval :     1152.76  1157.19  1175.38  1176.43  1176.58  1177.23
eigval :     1179.95  1180.78  1181.19  1181.59  1184.17  1185.43
eigval :     1188.86  1194.70  1203.67  1205.66  1207.63  1215.97
eigval :     1228.64  1236.74  1237.12  1238.53  1242.81  1251.14
eigval :     1253.50  1262.72  1264.39  1266.73  1267.34  1271.58
eigval :     1274.52  1276.90  1286.05  1301.15  1305.26  1308.90
eigval :     1314.81  1320.27  1321.79  1322.39  1323.44  1327.53
eigval :     1328.62  1357.67  1362.77  1366.39  1370.07  1394.48
eigval :     1407.67  1415.84  1424.62  1426.90  1428.66  1429.24
eigval :     1432.13  1433.82  1435.95  1440.80  1454.46  1455.91
eigval :     1462.36  1469.63  1472.91  1477.17  1488.86  1494.02
eigval :     1504.82  1563.15  1568.02  1573.52  1576.17  1579.78
eigval :     1584.02  1586.13  1586.43  1587.43  1588.05  1589.33
eigval :     1589.48  1594.63  1596.62  1599.43  1599.62  1602.62
eigval :     1604.66  1606.38  1615.77  3059.80  3071.44  3071.61
eigval :     3073.15  3074.10  3074.54  3074.64  3075.02  3075.36
eigval :     3076.08  3076.35  3076.54  3079.28  3079.90  3080.12
eigval :     3080.55  3081.36  3081.47  3082.08  3082.24  3082.84
eigval :     3084.46  3084.62  3086.55  3087.09  3087.29  3087.43
eigval :     3088.39  3088.89  3089.03  3089.21  3089.40  3091.47
eigval :     3093.16  3093.81  3094.16  3094.34  3094.65  3095.80
eigval :     3096.30  3097.42  3098.25

   temp. (K)  partition function   enthalpy   heat capacity  entropy
                                   cal/mol     cal/K/mol   cal/K/mol   J/K/mol
 298.15  VIB  0.147E+28            31682.502    194.753    201.444
         ROT  0.331E+09              888.752      2.981     41.963
         INT  0.485E+36            32571.255    197.734    243.408
         TR   0.241E+29             1481.254      4.968     46.083
         TOT                       34052.5087   202.7021   289.4906  1211.2286

       T/K    H(0)-H(T)+PV         H(T)/Eh          T*S/Eh         G(T)/Eh
   ------------------------------------------------------------------------
    298.15    0.542661E-01    0.876722E+00    0.137546E+00    0.739176E+00
   ------------------------------------------------------------------------

         :::::::::::::::::::::::::::::::::::::::::::::::::::::
         ::                  THERMODYNAMIC                  ::
         :::::::::::::::::::::::::::::::::::::::::::::::::::::
         :: total free energy        -164.960886926374 Eh   ::
         ::.................................................::
         :: total energy             -165.700062910639 Eh   ::
         :: zero point energy           0.822456176240 Eh   ::
         :: G(RRHO) w/o ZPVE           -0.083280191975 Eh   ::
         :: G(RRHO) contrib.            0.739175984265 Eh   ::
         :::::::::::::::::::::::::::::::::::::::::::::::::::::

           -------------------------------------------------
          | TOTAL ENERGY             -165.700062910639 Eh   |
          | TOTAL ENTHALPY           -164.823340607631 Eh   |
          | TOTAL FREE ENERGY        -164.960886926374 Eh   |
          | GRADIENT NORM               0.000052544635 Eh/α |
          | HOMO-LUMO GAP               2.800957225396 eV   |
           -------------------------------------------------

 * finished run on 2025/09/06 at 23:48:54.495
