   * xtb version 6.7.1 (edcfbbe) compiled by 'albert@albert-system' on 2024-07-22

   ID    Z sym.   atoms
    1    8 O      1, 21
    2   15 P      2
    3    6 C      3-20, 22-34, 36-65
    4    7 N      35
    5    1 H      66-107

          program call               : xtb data2507/gas/9CzFDPESPO/9CzFDPESPO_gas_S0_crest.xyz --gfn 2 --ohess vtight --parallel 40 --molden --ceasefiles --namespace data2507/gas/9CzFDPESPO/9CzFDPESPO_gas_S0_finalOpt
          :  Hamiltonian                  GFN2-xTB          :
 * total energy  :  -165.7021116 Eh     change       -0.1027928E-08 Eh
 * total energy  :  -165.7021128 Eh     change       -0.1187529E-05 Eh
 * total energy  :  -165.7021138 Eh     change       -0.9924268E-06 Eh
 * total energy  :  -165.7021162 Eh     change       -0.2367640E-05 Eh
 * total energy  :  -165.7021185 Eh     change       -0.2360914E-05 Eh
 * total energy  :  -165.7021213 Eh     change       -0.2797482E-05 Eh
 * total energy  :  -165.7021254 Eh     change       -0.4030504E-05 Eh
 * total energy  :  -165.7021295 Eh     change       -0.4166206E-05 Eh
 * total energy  :  -165.7021324 Eh     change       -0.2862669E-05 Eh
 * total energy  :  -165.7021343 Eh     change       -0.1926749E-05 Eh
 * total energy  :  -165.7022144 Eh     change       -0.3442485E-06 Eh
 * total energy  :  -165.7022147 Eh     change       -0.2991178E-06 Eh
 * total energy  :  -165.7022151 Eh     change       -0.3280922E-06 Eh
 * total energy  :  -165.7022154 Eh     change       -0.3313023E-06 Eh
 * total energy  :  -165.7022157 Eh     change       -0.3174985E-06 Eh
 * total energy  :  -165.7022160 Eh     change       -0.3237737E-06 Eh
 * total energy  :  -165.7022164 Eh     change       -0.3905066E-06 Eh
 * total energy  :  -165.7022170 Eh     change       -0.5265469E-06 Eh
 * total energy  :  -165.7022170 Eh     change       -0.2699920E-08 Eh
   *** GEOMETRY OPTIMIZATION CONVERGED AFTER 94 ITERATIONS ***

 final structure:
================
107
 xtb: 6.7.1 (edcfbbe)
O           -8.06015995441757       -2.48030253622851       -1.91337561777617
P           -7.58927530597662       -1.58159370594761       -0.85198598497065
C           -5.79740243193773       -1.73496221703637       -0.54283858054055
C           -5.24417251928722       -2.10055320055411        0.67356598580408
C           -3.86839301908868       -2.18272604059456        0.80188687933487
C           -3.04810626836227       -1.90497828500540       -0.27869266421073
C           -3.60216149254375       -1.55867253642942       -1.50008816234783
C           -4.97567433210204       -1.47611211515092       -1.63172728149755
C           -8.45300043485346       -1.83240718491274        0.72944120428657
C           -8.28801891313155       -1.00769258467875        1.83536827796113
C           -8.99186196803601       -1.27370973037430        2.99580429629050
C           -9.85849678992755       -2.35426893625469        3.05586021933208
C          -10.02605474070563       -3.17354886177040        1.95164003814472
C           -9.32418369733171       -2.91131687499684        0.78865564576071
C           -7.82990430480963        0.17036022173667       -1.31078514039897
C           -8.74848078172999        0.44832719578013       -2.31156843317620
C           -8.93980522823716        1.74694335679060       -2.74695556319522
C           -8.20296253812444        2.77587641547013       -2.18211199321671
C           -7.28130133785533        2.51273266448974       -1.18401723087175
C           -7.09558754745169        1.20885318900897       -0.74310679546362
O           -6.25573269173640        0.90479432043164        0.29948184829979
C           -4.92622519995873        1.22278426661703        0.23452857046137
C           -4.27740868869088        1.60998366377203       -0.93059934645585
C           -2.91281032576364        1.82122207041166       -0.91621725599199
C           -2.16690423626725        1.63916189157295        0.24415871133903
C           -0.71020846229449        1.82521339147955        0.23966568436109
C           -0.12167832303667        2.88295643418486       -0.44769005753902
C            1.24965342252808        3.05141157533767       -0.45131650885657
C            2.07498245496636        2.15772436316340        0.21835094455301
C            3.57460007214494        2.36530273737310        0.27105422672340
C            4.34371295707868        1.06212608070277        0.21004756865173
C            3.91692756914713        0.03743081900314       -0.62806264291543
C            4.64192845390062       -1.13169108889764       -0.74314718842543
C            5.81459600259839       -1.30151610030776       -0.01326590853877
N            6.54623288374167       -2.49204637362970       -0.11753019861004
C            7.90071782571506       -2.58986537262999       -0.36583171932507
C            8.82731765554307       -1.58855756864166       -0.61910496567768
C           10.13304776580434       -1.96629674062737       -0.86648874413926
C           10.51475814647645       -3.30621856133083       -0.87207509599280
C            9.59257041134508       -4.30787728573037       -0.64463918352313
C            8.27354798260305       -3.95346261793013       -0.39372365440926
C            7.07801248043147       -4.70851258945720       -0.14341774337695
C            6.81102136699039       -6.06683297668918       -0.03363545967834
C            5.51888745957856       -6.46706353583727        0.24157242500713
C            4.50225034480085       -5.53162347454170        0.42111736726343
C            4.74304912912286       -4.17514025306196        0.31699018517147
C            6.03511892633411       -3.76742116101853        0.01751237730650
C            6.25114225391741       -0.27672303466691        0.81995747881975
C            5.52591068616359        0.89505457026466        0.91974297147101
C            3.88217990561507        3.19417087456264        1.50416716147330
C            3.61672752296402        2.90327131420540        2.82506052026178
C            3.97577632149384        3.82872705548353        3.79575632578101
C            4.58432077951269        5.02471184029738        3.44696962241550
C            4.84761699636682        5.32539671889353        2.12045096681913
C            4.49260004181113        4.40496709082208        1.14825817345277
C            4.64065169976531        4.44201393154009       -0.29754479352764
C            5.19293090878832        5.40245810717873       -1.12879292404719
C            5.20438155943537        5.17095447673000       -2.49470580805385
C            4.67682620929528        4.00140387000576       -3.02035381509708
C            4.12268458796192        3.03515511855989       -2.19149580282578
C            4.10227848498563        3.26327115246520       -0.83228919228887
C            1.49036965848304        1.10412918680093        0.91299559003334
C            0.11998977447045        0.94001589583804        0.92350013303328
C           -2.83389686875798        1.25974908384154        1.40744068617372
C           -4.19684418871386        1.05893378517293        1.40842050949534
H           -5.88716413636575       -2.31207857575040        1.51610414467861
H           -3.43438199505354       -2.46271249984856        1.75090365516634
H           -1.97484595034540       -1.96087809724193       -0.17170934863316
H           -2.96232022672958       -1.34889727705215       -2.34464113984219
H           -5.43127433042852       -1.21302006277244       -2.57779700333935
H           -7.61263883564678       -0.16822182402603        1.78372352402109
H           -8.86613050309356       -0.63545944702730        3.85870776751284
H          -10.40523624634238       -2.55546697123779        3.96567808570471
H          -10.70307813400652       -4.01397335068384        1.99790199899154
H           -9.43823713089850       -3.53136423120748       -0.08883319111607
H           -9.29006393244884       -0.37845042615872       -2.74794471245189
H           -9.65530848644288        1.95839502491691       -3.52697493933432
H           -8.34455345283988        3.79211215681146       -2.51865533799537
H           -6.70508635194329        3.31043576044250       -0.73730518052270
H           -4.83352772985124        1.72284604688112       -1.84967066980568
H           -2.41409119453811        2.09923570058709       -1.83287540923913
H           -0.74689761895838        3.59498226470641       -0.96629965741629
H            1.68245126923155        3.88745236449809       -0.98101929009155
H            3.00478378012288        0.15338459600689       -1.19511267951367
H            4.31099259453586       -1.91406744681887       -1.40977081700113
H            8.53756269372519       -0.54854230828974       -0.63479917340213
H           10.87391531231514       -1.20541122819309       -1.06369974706651
H           11.54615884536255       -3.56005021415636       -1.06688218130380
H            9.88476548625567       -5.34700386481705       -0.66488092311184
H            7.60219356895641       -6.79083442431051       -0.15768793109803
H            5.28938235609266       -7.51868502839198        0.32849260295281
H            3.50378705621922       -5.87438501902996        0.64995650415796
H            3.95182441579650       -3.45755540109017        0.47448347320481
H            7.15378960483801       -0.40731412791981        1.39778993024104
H            5.87945912413960        1.68409471805735        1.56685321313173
H            3.14228926226098        1.97427522023010        3.10408214147343
H            3.77803594170722        3.61383203848881        4.83563512119428
H            4.85458945550699        5.73004577395057        4.21922765964338
H            5.31942577271567        6.25851824146675        1.85085668142331
H            5.60705924978582        6.31268155090176       -0.72136020316084
H            5.63070275571460        5.90865579944206       -3.15876450005226
H            4.69743535332266        3.83907515207858       -4.08798230355257
H            3.71435145924503        2.12621146351640       -2.60770180347448
H            2.11570546739438        0.39786133854666        1.44027662684149
H           -0.31465115006662        0.10410385806291        1.45224711867880
H           -2.27811577616945        1.13592706310549        2.32480755777914
H           -4.71489076321551        0.75959792146960        2.30609733432259

          :  Hamiltonian                  GFN2-xTB          :
         :: gradient norm              0.000036591991 Eh/a0 ::
         :: HOMO-LUMO gap              2.779760989489 eV    ::
         :: SCC energy              -168.774509642299 Eh    ::
         :: -> dispersion             -0.164646047048 Eh    ::
         :: repulsion energy           3.072292687701 Eh    ::

    * Orbital Energies and Occupations

         #    Occupation            Energy/Eh            Energy/eV
      -------------------------------------------------------------
         1        2.0000           -0.7324831             -19.9319
       ...           ...                  ...                  ...
       142        2.0000           -0.4105912             -11.1728
       143        2.0000           -0.4094132             -11.1407
       144        2.0000           -0.4075114             -11.0890
       145        2.0000           -0.4041282             -10.9969
       146        2.0000           -0.4024280             -10.9506
       147        2.0000           -0.4013738             -10.9219
       148        2.0000           -0.4001224             -10.8879
       149        2.0000           -0.3975365             -10.8175
       150        2.0000           -0.3966290             -10.7928
       151        2.0000           -0.3842003             -10.4546
       152        2.0000           -0.3777245             -10.2784
       153        2.0000           -0.3756989             -10.2233
       154        2.0000           -0.3594934              -9.7823 (HOMO)
       155                         -0.2573391              -7.0026 (LUMO)
       156                         -0.2560708              -6.9680
       157                         -0.2487673              -6.7693
       158                         -0.2436940              -6.6313
       159                         -0.2428219              -6.6075
       160                         -0.2395152              -6.5175
       161                         -0.2358909              -6.4189
       162                         -0.2350090              -6.3949
       163                         -0.2328873              -6.3372
       164                         -0.2326910              -6.3318
       165                         -0.2306266              -6.2757
       ...                                ...                  ...
       307                          1.2189972              33.1706
      -------------------------------------------------------------
                  HL-Gap            0.1021544 Eh            2.7798 eV

     #   Z          covCN         q      C6AA      α(0)
     1   8 O        0.808    -0.366    21.025     6.147
     2  15 P        4.076     0.087   156.408    22.466
     3   6 C        2.921     0.020    27.570     8.611
     4   6 C        2.966    -0.022    28.551     8.764
     5   6 C        2.921    -0.027    28.666     8.780
     6   6 C        2.921    -0.026    28.651     8.778
     7   6 C        2.919    -0.027    28.669     8.780
     8   6 C        3.040    -0.019    28.438     8.747
     9   6 C        2.921     0.014    27.707     8.632
    10   6 C        2.970    -0.029    28.709     8.789
    11   6 C        2.920    -0.029    28.715     8.788
    12   6 C        2.920    -0.025    28.635     8.775
    13   6 C        2.919    -0.028    28.689     8.783
    14   6 C        3.036    -0.021    28.487     8.754
    15   6 C        2.918    -0.010    28.274     8.720
    16   6 C        3.020    -0.021    28.509     8.758
    17   6 C        2.918    -0.034    28.854     8.809
    18   6 C        2.921    -0.027    28.679     8.782
    19   6 C        2.917    -0.052    29.287     8.874
    20   6 C        2.920     0.142    24.904     8.184
    21   8 O        1.709    -0.254    18.209     5.761
    22   6 C        2.870     0.142    24.904     8.180
    23   6 C        2.916    -0.060    29.482     8.904
    24   6 C        2.927    -0.034    28.858     8.810
    25   6 C        2.976     0.002    27.980     8.677
    26   6 C        2.977     0.008    27.830     8.653
    27   6 C        2.925    -0.035    28.876     8.812
    28   6 C        2.922    -0.036    28.895     8.815
    29   6 C        2.980     0.015    27.670     8.629
    30   6 C        3.947     0.008    20.381     6.415
    31   6 C        2.979     0.014    27.691     8.632
    32   6 C        2.924    -0.033    28.834     8.806
    33   6 C        2.922    -0.044    29.096     8.846
    34   6 C        2.913     0.062    26.615     8.460
    35   7 N        2.803    -0.044    22.094     6.981
    36   6 C        3.076     0.047    26.875     8.499
    37   6 C        2.910    -0.051    29.265     8.871
    38   6 C        2.924    -0.034    28.836     8.806
    39   6 C        2.920    -0.041    29.022     8.834
    40   6 C        2.913    -0.033    28.821     8.803
    41   6 C        3.068    -0.017    28.369     8.734
    42   6 C        3.068    -0.017    28.368     8.733
    43   6 C        2.913    -0.033    28.819     8.803
    44   6 C        2.920    -0.041    29.022     8.834
    45   6 C        2.924    -0.034    28.839     8.807
    46   6 C        2.910    -0.051    29.268     8.871
    47   6 C        3.076     0.047    26.876     8.500
    48   6 C        2.922    -0.044    29.087     8.844
    49   6 C        2.923    -0.035    28.873     8.812
    50   6 C        3.058     0.004    27.888     8.660
    51   6 C        2.914    -0.034    28.836     8.806
    52   6 C        2.922    -0.032    28.801     8.801
    53   6 C        2.921    -0.032    28.806     8.801
    54   6 C        2.915    -0.034    28.840     8.806
    55   6 C        3.035     0.001    27.968     8.674
    56   6 C        3.035     0.001    27.967     8.674
    57   6 C        2.915    -0.034    28.840     8.806
    58   6 C        2.921    -0.032    28.806     8.801
    59   6 C        2.922    -0.032    28.800     8.801
    60   6 C        2.914    -0.034    28.837     8.806
    61   6 C        3.058     0.004    27.887     8.660
    62   6 C        2.922    -0.035    28.865     8.811
    63   6 C        2.925    -0.036    28.888     8.814
    64   6 C        2.926    -0.034    28.847     8.808
    65   6 C        2.918    -0.053    29.309     8.878
    66   1 H        0.926     0.039     2.461     2.453
    67   1 H        0.926     0.036     2.508     2.477
    68   1 H        0.926     0.035     2.514     2.479
    69   1 H        0.926     0.036     2.499     2.472
    70   1 H        0.925     0.045     2.386     2.416
    71   1 H        0.926     0.056     2.251     2.346
    72   1 H        0.926     0.035     2.522     2.483
    73   1 H        0.926     0.036     2.503     2.474
    74   1 H        0.926     0.038     2.471     2.458
    75   1 H        0.926     0.064     2.148     2.292
    76   1 H        0.926     0.071     2.074     2.252
    77   1 H        0.926     0.046     2.368     2.407
    78   1 H        0.926     0.045     2.386     2.416
    79   1 H        0.926     0.045     2.379     2.412
    80   1 H        0.926     0.033     2.546     2.495
    81   1 H        0.926     0.039     2.467     2.456
    82   1 H        0.926     0.032     2.557     2.501
    83   1 H        0.926     0.032     2.560     2.502
    84   1 H        0.926     0.036     2.502     2.474
    85   1 H        0.926     0.041     2.436     2.441
    86   1 H        0.926     0.027     2.636     2.539
    87   1 H        0.926     0.028     2.612     2.527
    88   1 H        0.926     0.027     2.624     2.533
    89   1 H        0.926     0.030     2.580     2.512
    90   1 H        0.926     0.030     2.580     2.512
    91   1 H        0.926     0.027     2.622     2.532
    92   1 H        0.926     0.028     2.613     2.528
    93   1 H        0.926     0.026     2.648     2.545
    94   1 H        0.926     0.041     2.435     2.440
    95   1 H        0.926     0.036     2.497     2.471
    96   1 H        0.926     0.030     2.591     2.517
    97   1 H        0.926     0.031     2.572     2.508
    98   1 H        0.926     0.031     2.571     2.507
    99   1 H        0.926     0.032     2.559     2.502
   100   1 H        0.926     0.032     2.559     2.502
   101   1 H        0.926     0.031     2.570     2.507
   102   1 H        0.926     0.031     2.569     2.506
   103   1 H        0.926     0.029     2.594     2.518
   104   1 H        0.926     0.030     2.580     2.512
   105   1 H        0.926     0.031     2.566     2.505
   106   1 H        0.926     0.041     2.440     2.443
   107   1 H        0.926     0.046     2.372     2.409

molecular dipole:
                 x           y           z       tot (Debye)
 q only:        0.215       1.500       0.790
   full:        0.247       1.827       0.926       5.244

 projected vibrational frequencies (cm⁻¹)
eigval :       -0.00    -0.00     0.00     0.00     0.00     0.00
eigval :        5.78     6.86    10.25    13.63    15.74    20.74
eigval :       28.34    29.30    30.42    42.19    46.02    47.06
eigval :       50.10    51.96    60.66    67.26    68.84    77.66
eigval :       83.09    88.54    91.92    98.46   103.90   112.02
eigval :      131.14   137.30   141.58   146.69   156.51   161.40
eigval :      176.42   179.93   193.63   195.85   211.60   223.02
eigval :      225.15   234.56   242.19   249.06   266.04   271.85
eigval :      273.23   277.28   283.21   303.71   312.70   333.59
eigval :      352.37   360.32   361.59   365.91   374.83   382.18
eigval :      385.99   387.84   390.97   392.84   396.65   403.91
eigval :      408.17   415.26   415.60   421.60   428.05   438.53
eigval :      447.38   457.36   470.35   475.13   483.49   498.40
eigval :      504.98   507.58   519.16   519.88   525.48   534.17
eigval :      536.85   541.30   543.45   567.22   580.86   586.02
eigval :      586.68   588.28   589.54   596.20   601.58   607.09
eigval :      616.77   621.78   624.93   653.53   657.00   660.82
eigval :      664.65   672.75   673.94   676.46   683.89   691.90
eigval :      699.14   708.27   709.60   719.70   723.52   728.35
eigval :      738.86   740.85   745.94   755.23   758.09   768.90
eigval :      769.65   780.90   781.47   785.01   801.39   813.72
eigval :      820.45   829.39   864.64   867.47   870.06   873.69
eigval :      876.94   877.44   878.34   878.90   882.52   883.17
eigval :      886.19   896.86   898.93   901.89   902.41   903.35
eigval :      904.56   907.58   908.86   909.36   911.81   917.24
eigval :      920.00   920.43   921.61   922.76   925.43   927.00
eigval :      927.24   927.83   929.18   929.45   930.45   931.42
eigval :      934.84   935.10   937.10   956.19   972.34   976.55
eigval :      991.60  1007.96  1012.24  1018.94  1027.20  1053.52
eigval :     1070.26  1073.90  1076.28  1079.21  1079.49  1081.67
eigval :     1083.44  1084.49  1108.39  1114.11  1115.59  1118.42
eigval :     1123.00  1130.10  1134.16  1140.65  1144.68  1148.35
eigval :     1152.93  1155.04  1173.86  1175.32  1176.50  1177.29
eigval :     1180.94  1181.08  1181.50  1183.19  1184.31  1185.30
eigval :     1192.31  1194.28  1203.77  1205.61  1207.73  1213.33
eigval :     1228.75  1231.48  1237.14  1238.09  1242.71  1244.84
eigval :     1251.20  1256.73  1262.81  1270.01  1271.42  1271.70
eigval :     1274.05  1277.26  1285.97  1301.10  1305.04  1309.95
eigval :     1315.25  1318.25  1321.98  1322.19  1322.68  1327.43
eigval :     1328.34  1357.57  1362.66  1366.36  1369.92  1395.51
eigval :     1407.85  1417.00  1423.26  1424.44  1426.72  1428.69
eigval :     1429.20  1432.09  1433.64  1445.26  1452.55  1457.30
eigval :     1462.34  1471.65  1472.85  1476.95  1488.86  1494.17
eigval :     1506.43  1564.02  1568.35  1572.41  1576.08  1578.01
eigval :     1582.35  1583.42  1586.41  1586.51  1586.86  1589.48
eigval :     1589.94  1594.66  1598.23  1599.50  1599.70  1603.45
eigval :     1604.65  1608.44  1615.62  3054.25  3069.80  3071.37
eigval :     3072.23  3074.47  3075.05  3075.26  3075.62  3076.44
eigval :     3077.20  3077.27  3078.79  3079.09  3080.28  3080.59
eigval :     3081.15  3081.50  3081.61  3081.91  3082.28  3083.68
eigval :     3083.85  3085.03  3087.00  3087.36  3087.52  3088.84
eigval :     3088.99  3089.08  3089.78  3090.71  3091.99  3092.73
eigval :     3093.24  3093.74  3094.68  3094.84  3096.16  3096.62
eigval :     3098.31  3103.54  3112.27

   temp. (K)  partition function   enthalpy   heat capacity  entropy
                                   cal/mol     cal/K/mol   cal/K/mol   J/K/mol
 298.15  VIB  0.174E+27            31549.349    195.800    199.634
         ROT  0.276E+09              888.752      2.981     41.603
         INT  0.480E+35            32438.101    198.781    241.237
         TR   0.241E+29             1481.254      4.968     46.083
         TOT                       33919.3550   203.7494   287.3197  1202.1457

       T/K    H(0)-H(T)+PV         H(T)/Eh          T*S/Eh         G(T)/Eh
   ------------------------------------------------------------------------
    298.15    0.540539E-01    0.876789E+00    0.136515E+00    0.740275E+00
   ------------------------------------------------------------------------

         :::::::::::::::::::::::::::::::::::::::::::::::::::::
         ::                  THERMODYNAMIC                  ::
         :::::::::::::::::::::::::::::::::::::::::::::::::::::
         :: total free energy        -164.961942335812 Eh   ::
         ::.................................................::
         :: total energy             -165.702216954598 Eh   ::
         :: zero point energy           0.822735558089 Eh   ::
         :: G(RRHO) w/o ZPVE           -0.082460939302 Eh   ::
         :: G(RRHO) contrib.            0.740274618787 Eh   ::
         :::::::::::::::::::::::::::::::::::::::::::::::::::::

           -------------------------------------------------
          | TOTAL ENERGY             -165.702216954598 Eh   |
          | TOTAL ENTHALPY           -164.825427463691 Eh   |
          | TOTAL FREE ENERGY        -164.961942335812 Eh   |
          | GRADIENT NORM               0.000036587118 Eh/α |
          | HOMO-LUMO GAP               2.779761508581 eV   |
           -------------------------------------------------

 * finished run on 2025/09/07 at 00:09:47.374
