   * xtb version 6.7.1 (edcfbbe) compiled by 'albert@albert-system' on 2024-07-22

   ID    Z sym.   atoms
    1    8 O      1, 21
    2   15 P      2
    3    6 C      3-20, 22-34, 36-65
    4    7 N      35
    5    1 H      66-107

          program call               : xtb data2507/gas/9CzFDPESPO/9CzFDPESPO_gas_T1_crest.xyz --gfn 2 --spinpol --tblite --uhf 2 --ohess vtight --parallel 40 --molden --ceasefiles --namespace data2507/gas/9CzFDPESPO/9CzFDPESPO_gas_T1_finalOpt
 * total energy  :  -165.5981053 Eh     change        0.5792344E-09 Eh
 * total energy  :  -165.5981473 Eh     change       -0.4193792E-04 Eh
 * total energy  :  -165.5981626 Eh     change       -0.1530815E-04 Eh
 * total energy  :  -165.5981660 Eh     change       -0.3422803E-05 Eh
 * total energy  :  -165.5981725 Eh     change       -0.6516977E-05 Eh
 * total energy  :  -165.5981797 Eh     change       -0.7246663E-05 Eh
 * total energy  :  -165.5981884 Eh     change       -0.8686677E-05 Eh
 * total energy  :  -165.5981950 Eh     change       -0.6612321E-05 Eh
 * total energy  :  -165.5981997 Eh     change       -0.4633727E-05 Eh
 * total energy  :  -165.5982042 Eh     change       -0.4512083E-05 Eh
 * total energy  :  -165.5982490 Eh     change       -0.9742799E-06 Eh
 * total energy  :  -165.5982497 Eh     change       -0.6913852E-06 Eh
 * total energy  :  -165.5982506 Eh     change       -0.8739543E-06 Eh
 * total energy  :  -165.5982514 Eh     change       -0.7988267E-06 Eh
 * total energy  :  -165.5982521 Eh     change       -0.6944399E-06 Eh
 * total energy  :  -165.5982528 Eh     change       -0.7699987E-06 Eh
 * total energy  :  -165.5982538 Eh     change       -0.9836125E-06 Eh
 * total energy  :  -165.5982544 Eh     change       -0.6107847E-06 Eh
 * total energy  :  -165.5982544 Eh     change       -0.6203720E-08 Eh
   *** GEOMETRY OPTIMIZATION CONVERGED AFTER 44 ITERATIONS ***

 final structure:
================
107
 xtb: 6.7.1 (edcfbbe)
O           -8.65752817454332       -3.14876343605992        0.51943034746548
P           -8.07519778151610       -1.80718673450017        0.38884840476561
C           -6.44176822149630       -1.65077286990429        1.18853690171542
C           -6.16645584070264       -0.78856389594218        2.23739827079827
C           -4.88045507273872       -0.71754665797534        2.74466436348642
C           -3.87466084791843       -1.50518647926883        2.21031800918086
C           -4.15599699983643       -2.38651642740281        1.17877209141616
C           -5.43944558880994       -2.46117877470355        0.67155037839747
C           -9.14883935149508       -0.49682802753434        1.05210631342221
C           -8.86246202187935        0.85870100291436        0.94390915629077
C           -9.74260456326553        1.78680241544764        1.46933125260400
C          -10.90636327254266        1.36932372334890        2.09699345730520
C          -11.19485634608725        0.01836762202268        2.19942013039836
C          -10.31683318961568       -0.91359388936137        1.67576286355226
C           -7.74436380149627       -1.38472131982239       -1.35485259237119
C           -8.42452370846355       -2.08996107601133       -2.33395282473044
C           -8.15925496442399       -1.86825361151826       -3.67351824179753
C           -7.19760764474912       -0.93490832936412       -4.03736496369669
C           -6.50524176566740       -0.22688850734123       -3.07391126530028
C           -6.77986107177329       -0.44235916039456       -1.72625251849971
O           -6.19277307436699        0.27725760857406       -0.72724312874468
C           -4.85363491160249        0.50669384133683       -0.70945926707179
C           -3.90161384279128       -0.26871164209464       -1.40741818567654
C           -2.57414063796070       -0.02224558719710       -1.26858436242437
C           -2.06221579599454        1.04094640853687       -0.43077754025798
C           -0.69890459440237        1.32660564108979       -0.32502966415032
C            0.31564420840591        0.55988453748265       -1.00994308047703
C            1.63832849190157        0.85198945336870       -0.90562397070355
C            2.10125017023807        1.92633230414584       -0.11353638811237
C            3.55981951645011        2.29616617723791       -0.09490049582195
C            4.47948786588978        1.09685216875382       -0.09947752550791
C            4.15546182821381       -0.03293575296128        0.64443232687440
C            5.01777648262545       -1.10883643608527        0.70849822823730
C            6.22721575765766       -1.07570384620389        0.02022352871289
N            7.10443501235812       -2.16688792022257        0.07753891974239
C            6.77111045236155       -3.48505164251394       -0.16031455964097
C            5.55492173593779       -4.03465637990808       -0.54075261185120
C            5.49906785537464       -5.40073147624574       -0.74103458375107
C            6.62347933936819       -6.20659693828337       -0.57768826053187
C            7.84195952730313       -5.66236209940465       -0.22197468894675
C            7.92306886802095       -4.29224476161132       -0.01452030841535
C            8.99935321037456       -3.40729098677208        0.33538532741827
C           10.34356882344862       -3.60398692874851        0.62064310937751
C           11.11652816000519       -2.50848851334464        0.95197306783298
C           10.56128128243430       -1.23246346058137        1.01554226772035
C            9.22626574701348       -1.01134470449991        0.73590877641896
C            8.45022831311167       -2.10490698043729        0.37837969222165
C            6.55791111884582        0.05295439943398       -0.72348832440607
C            5.69400180084700        1.12956772309871       -0.77283440793085
C            3.93919290139996        3.18530191581094        1.07523472315398
C            3.98344901671974        2.86760434412693        2.41521987633284
C            4.37203952258044        3.84821356987076        3.31863898422364
C            4.71220137456963        5.12019668215111        2.88381179598708
C            4.67510447263586        5.44313922709477        1.53717447798418
C            4.28811756929414        4.46893430898289        0.63108166144763
C            4.16192331493985        4.50947896413601       -0.81531040880968
C            4.37290623868571        5.53987585801224       -1.71696394398303
C            4.18529956267618        5.29131884169563       -3.06645449894550
C            3.79237733667465        4.03603785551289       -3.50910698621032
C            3.57294185068353        3.00127572452812       -2.61140865378320
C            3.76530127094413        3.24103813360076       -1.26668422122145
C            1.13370409731248        2.70980142520993        0.54885104523884
C           -0.19300994849540        2.42686703459620        0.46311054863680
C           -3.07149571178059        1.78187922043412        0.29531768895818
C           -4.39473536470896        1.52153983575537        0.16337812780833
H           -6.95250798534761       -0.16919858212483        2.64588199026144
H           -4.65995533201857       -0.03943593369760        3.55628478018869
H           -2.86943623214329       -1.43332826318511        2.59842735784898
H           -3.37296872236450       -3.00698322669653        0.76800824156044
H           -5.68336657421618       -3.14194172959124       -0.13440819895102
H           -7.95604269693424        1.17898599685076        0.45460258055444
H           -9.52250629906050        2.84179586666090        1.38929745933652
H          -11.58953889529226        2.10018489525658        2.50475134127559
H          -12.10276319805558       -0.30650989527712        2.68628219958276
H          -10.51739870677610       -1.97335603439714        1.73985907675984
H           -9.14716182552394       -2.82831796127121       -2.01773115339515
H           -8.69122501858203       -2.42105426927128       -4.43241131289665
H           -6.98626208856582       -0.75492316324787       -5.08083483863227
H           -5.76598176186783        0.51089135947683       -3.35203836925705
H           -4.24211948599519       -1.08445177398969       -2.02912544143800
H           -1.88319970778103       -0.65288904667713       -1.80193117919356
H            0.02336140030391       -0.27722412407146       -1.62204053061745
H            2.36158188381965        0.24469621075780       -1.43234429091699
H            3.21675617532383       -0.06864152815116        1.17828197135590
H            4.76755781345943       -1.97325268687438        1.30534033780531
H            4.68214235780636       -3.41623545524463       -0.68660006121697
H            4.56324049331732       -5.85328653398489       -1.03410135005903
H            6.53827828192438       -7.27051296887692       -0.74125106869922
H            8.71681648268249       -6.28490289608327       -0.11048738264381
H           10.77028948556505       -4.59503766429125        0.58745393775552
H           12.16486970538419       -2.63932641312180        1.17521009723161
H           11.18725015422775       -0.39735377704404        1.29339911304391
H            8.80073180796336       -0.02159198566499        0.80586267601470
H            7.48765406103608        0.07620810458776       -1.27198129508539
H            5.96289966917429        2.00203268058341       -1.34996175212552
H            3.72018439577632        1.87865175326758        2.76003738545583
H            4.40977584674674        3.61633283805810        4.37285046647433
H            5.01114672738949        5.86714412525037        3.60473378687642
H            4.94285452915496        6.43375026207421        1.20099128817620
H            4.67721133548053        6.51773719322642       -1.37442597103053
H            4.34531147927011        6.08280325138124       -3.78393433792170
H            3.65418296147634        3.86223652128166       -4.56611556529346
H            3.26281772353354        2.02858968818441       -2.96287908591147
H            1.46220385581618        3.55251135270342        1.14049080566947
H           -0.88506960537374        3.06204494209303        0.99011345435808
H           -2.76847633542145        2.56055852072974        0.97423109485454
H           -5.13101933004548        2.08038769781508        0.72087409777527

 projected vibrational frequencies (cm⁻¹)
eigval :       -0.00    -0.00    -0.00    -0.00     0.00     0.00
eigval :        0.81     5.01     9.66    12.95    13.52    18.62
eigval :       27.33    27.86    30.87    38.04    41.52    45.05
eigval :       47.27    52.95    57.41    59.27    62.63    71.88
eigval :       73.79    82.25    86.28    98.86   103.15   106.34
eigval :      114.96   136.59   140.46   145.40   148.10   156.04
eigval :      173.02   181.97   191.78   196.34   212.10   219.17
eigval :      223.66   231.93   240.29   246.82   254.49   267.06
eigval :      271.56   272.34   281.29   283.63   301.79   321.11
eigval :      337.02   350.93   359.28   361.57   363.15   366.43
eigval :      369.11   382.71   385.09   387.92   390.39   393.88
eigval :      405.40   410.09   413.57   419.63   425.26   429.72
eigval :      437.71   439.15   445.51   456.80   467.43   473.86
eigval :      486.39   497.19   506.01   517.87   519.07   519.56
eigval :      535.51   536.78   540.46   556.76   570.54   579.91
eigval :      585.81   585.99   586.49   587.25   594.79   598.32
eigval :      606.35   617.06   622.99   623.87   646.01   651.22
eigval :      656.58   660.78   665.44   673.86   674.41   677.80
eigval :      691.42   706.84   708.14   710.49   720.96   723.32
eigval :      730.61   739.87   744.08   754.23   757.18   757.56
eigval :      765.06   766.15   767.74   769.54   772.49   774.02
eigval :      780.38   783.70   795.85   818.81   849.65   867.27
eigval :      873.27   875.29   876.47   876.71   877.94   881.44
eigval :      882.58   887.48   890.50   893.74   896.98   898.76
eigval :      899.11   901.68   903.04   903.34   906.51   907.61
eigval :      909.93   912.18   913.26   914.22   920.02   921.46
eigval :      923.22   924.68   925.19   926.98   927.55   929.44
eigval :      930.83   934.16   936.13   939.28   953.46   961.15
eigval :      972.34   976.51   977.55  1003.36  1012.23  1023.50
eigval :     1046.83  1070.13  1073.61  1075.60  1078.95  1079.18
eigval :     1080.96  1081.10  1104.02  1114.08  1115.33  1118.07
eigval :     1121.42  1123.09  1128.52  1134.25  1138.71  1143.24
eigval :     1150.06  1151.24  1164.32  1172.18  1173.13  1175.50
eigval :     1176.55  1180.61  1180.65  1180.99  1182.90  1183.59
eigval :     1191.46  1193.42  1198.77  1202.61  1208.98  1216.97
eigval :     1220.98  1227.97  1235.08  1235.88  1238.33  1240.75
eigval :     1243.38  1251.66  1256.66  1260.73  1269.06  1270.84
eigval :     1273.39  1277.91  1285.92  1299.21  1300.88  1305.89
eigval :     1318.21  1321.41  1322.85  1324.16  1326.90  1331.86
eigval :     1335.65  1356.20  1358.91  1360.57  1364.23  1367.48
eigval :     1375.97  1402.42  1407.91  1418.15  1422.42  1424.06
eigval :     1424.69  1426.67  1428.05  1430.29  1431.85  1452.32
eigval :     1457.16  1460.04  1466.09  1473.38  1473.75  1487.02
eigval :     1487.57  1491.21  1506.11  1515.04  1540.94  1565.12
eigval :     1565.80  1574.02  1577.82  1581.24  1584.69  1585.84
eigval :     1586.62  1587.60  1588.78  1594.34  1594.91  1595.92
eigval :     1600.17  1608.36  1617.64  3050.00  3064.32  3068.80
eigval :     3071.53  3073.96  3074.70  3075.21  3075.22  3076.38
eigval :     3076.72  3076.87  3077.16  3077.56  3077.65  3079.79
eigval :     3081.07  3081.15  3081.90  3081.93  3083.00  3083.35
eigval :     3083.94  3086.58  3088.41  3088.52  3088.73  3089.33
eigval :     3090.34  3090.57  3092.34  3092.59  3093.07  3094.46
eigval :     3095.21  3095.54  3097.08  3098.95  3103.69  3107.93
eigval :     3109.86  3119.80  3123.11

   temp. (K)  partition function   enthalpy   heat capacity  entropy
                                   cal/mol     cal/K/mol   cal/K/mol   J/K/mol
 298.15  VIB  0.427E+26            31521.268    196.756    198.290
         ROT  0.287E+09              888.752      2.981     41.683
         INT  0.123E+35            32410.021    199.737    239.974
         TR   0.241E+29             1481.254      4.968     46.083
         TOT                       33891.2747   204.7054   286.0567  1196.8612

       T/K    H(0)-H(T)+PV         H(T)/Eh          T*S/Eh         G(T)/Eh
   ------------------------------------------------------------------------
    298.15    0.540092E-01    0.871912E+00    0.135915E+00    0.735997E+00
   ------------------------------------------------------------------------

         :::::::::::::::::::::::::::::::::::::::::::::::::::::
         ::                  THERMODYNAMIC                  ::
         :::::::::::::::::::::::::::::::::::::::::::::::::::::
         :: total free energy        -164.862257409233 Eh   ::
         ::.................................................::
         :: total energy             -165.598254401594 Eh   ::
         :: zero point energy           0.817902572183 Eh   ::
         :: G(RRHO) w/o ZPVE           -0.081905579822 Eh   ::
         :: G(RRHO) contrib.            0.735996992361 Eh   ::
         :::::::::::::::::::::::::::::::::::::::::::::::::::::

           -------------------------------------------------
          | TOTAL ENERGY             -165.598254401594 Eh   |
          | TOTAL ENTHALPY           -164.726342645326 Eh   |
          | TOTAL FREE ENERGY        -164.862257409233 Eh   |
          | GRADIENT NORM               0.000076003412 Eh/α |
           -------------------------------------------------

 * finished run on 2025/09/07 at 00:31:44.252
