   * xtb version 6.7.1 (edcfbbe) compiled by 'albert@albert-system' on 2024-07-22

   ID    Z sym.   atoms
    1    8 O      1, 21
    2   15 P      2
    3    6 C      3-20, 22-34, 36-65
    4    7 N      35
    5    1 H      66-107

          program call               : xtb data2507/gas/9CzFDPESPO/9CzFDPESPO_gas_S0_finalOpt.xtbopt.xyz --gfn 2 --spinpol --tblite --uhf 2 --ohess vtight --parallel 40 --molden --ceasefiles --namespace data2507/gas/9CzFDPESPO/9CzFDPESPO_gas_T1_preOpt
 * total energy  :  -165.5873455 Eh     change       -0.3003015E-07 Eh
 * total energy  :  -165.5892297 Eh     change       -0.1884121E-02 Eh
 * total energy  :  -165.5897402 Eh     change       -0.5105597E-03 Eh
 * total energy  :  -165.5898769 Eh     change       -0.1366470E-03 Eh
 * total energy  :  -165.5906870 Eh     change       -0.8101077E-03 Eh
 * total energy  :  -165.5925522 Eh     change       -0.1865219E-02 Eh
 * total energy  :  -165.5928671 Eh     change       -0.3149153E-03 Eh
 * total energy  :  -165.5954991 Eh     change       -0.2632002E-02 Eh
 * total energy  :  -165.5957744 Eh     change       -0.2752916E-03 Eh
 * total energy  :  -165.5958649 Eh     change       -0.9053806E-04 Eh
 * total energy  :  -165.5959206 Eh     change       -0.4291314E-05 Eh
 * total energy  :  -165.5959234 Eh     change       -0.2796194E-05 Eh
 * total energy  :  -165.5959244 Eh     change       -0.1052553E-05 Eh
 * total energy  :  -165.5959252 Eh     change       -0.8424764E-06 Eh
 * total energy  :  -165.5959257 Eh     change       -0.4887576E-06 Eh
 * total energy  :  -165.5959264 Eh     change       -0.6159790E-06 Eh
 * total energy  :  -165.5959269 Eh     change       -0.5307161E-06 Eh
 * total energy  :  -165.5959274 Eh     change       -0.5023207E-06 Eh
 * total energy  :  -165.5959274 Eh     change       -0.3214745E-07 Eh
   *** GEOMETRY OPTIMIZATION CONVERGED AFTER 22 ITERATIONS ***

 final structure:
================
107
 xtb: 6.7.1 (edcfbbe)
O           -8.05900634629614       -2.48164854131632       -1.91629715410016
P           -7.59090878443942       -1.58194668591290       -0.85444117097534
C           -5.79843418000238       -1.73007007721985       -0.54570334453419
C           -5.24411538265606       -2.09997394941668        0.66888390631249
C           -3.86806253664575       -2.17777016667356        0.79716139930306
C           -3.04852222906833       -1.89139642236415       -0.28171306257504
C           -3.60357849969433       -1.54093965073575       -1.50147253020881
C           -4.97734968385963       -1.46279107224311       -1.63305619020000
C           -8.45374064042690       -1.83689774607709        0.72686629743932
C           -8.28605513130204       -1.01682846597995        1.83584987434306
C           -8.98931548702127       -1.28589977264131        2.99592917173234
C           -9.85830210575781       -2.36475852632419        3.05258670701774
C          -10.02872151197779       -3.17928743213719        1.94529997190164
C           -9.32724662352972       -2.91412032615921        0.78274180762844
C           -7.83664995576615        0.16942056782607       -1.31236230199367
C           -8.75457265653986        0.44552785776785       -2.31423579235375
C           -8.94814917753391        1.74383350168320       -2.74954810934319
C           -8.21445877884366        2.77427560915282       -2.18330285828089
C           -7.29379330975425        2.51307081042839       -1.18378120739820
C           -7.10556747046380        1.20945580845706       -0.74311022726349
O           -6.26655925267895        0.90595270866161        0.29995041031827
C           -4.93813615958952        1.23007818626354        0.23963819841576
C           -4.28828701809712        1.62757071559128       -0.92155785512791
C           -2.92431581212744        1.84172338481107       -0.90337381620094
C           -2.17931227572638        1.65149321267139        0.25661550649236
C           -0.72250931248680        1.83156609607396        0.25283626025212
C           -0.12778909187472        2.88907729601722       -0.43055162586998
C            1.24436547685632        3.04666459617721       -0.43567830776599
C            2.06495582983012        2.14025844680489        0.22375361813271
C            3.56504639100624        2.34336379267403        0.27382427549773
C            4.33553903322529        1.04213021692492        0.21245790318334
C            3.91199021786681        0.01332795495362       -0.62386328052521
C            4.64322451805007       -1.15086778933340       -0.74047958985523
C            5.82055501178500       -1.31175308523912       -0.01435321191797
N            6.55626833928929       -2.50020313911134       -0.11860983836893
C            7.90984839748287       -2.59458976570502       -0.36935715796551
C            8.83391891844684       -1.59032685579371       -0.62272595135022
C           10.14044257009156       -1.96512231432493       -0.87192699924444
C           10.52465268866256       -3.30407020264409       -0.87964527727207
C            9.60428829096041       -4.30915361784369       -0.65293314721812
C            8.28577405996033       -3.95776878868377       -0.40020123539982
C            7.09100071772625       -4.71584997779380       -0.14972208583924
C            6.82619943431215       -6.07389059148597       -0.04263577741051
C            5.53381444993196       -6.47613308434559        0.23421360382870
C            4.51663990661916       -5.54258879828512        0.41871398861840
C            4.75578266536055       -4.18535273151620        0.31740361424824
C            6.04712270580597       -3.77586757984931        0.01492407844990
C            6.25676534300641       -0.28238988432653        0.81404601363306
C            5.52426939999669        0.88417972842125        0.91517822534436
C            3.86755902139578        3.17607125052267        1.50494992868740
C            3.60712428319597        2.90647580581571        2.81087288576534
C            3.96873921356455        3.84748519522993        3.79433322235196
C            4.58496115291945        5.06665055452690        3.43039931113616
C            4.85088822948760        5.37073324104332        2.13132034032521
C            4.49921725485530        4.42650850764578        1.11046588887077
C            4.64899002334340        4.45356988933187       -0.26004786242813
C            5.21922889080207        5.43013017622589       -1.14237889458637
C            5.22877413604718        5.18414780722856       -2.48024588708151
C            4.69421257265254        3.99058006835188       -3.01777875291549
C            4.13359614161332        3.01328275344490       -2.17309622376242
C            4.09867713078551        3.23362858803681       -0.83275262317733
C            1.47384107919192        1.08835293215627        0.91643422900847
C            0.10269375503692        0.93655119885797        0.93158656274975
C           -2.84799796121440        1.26366943497204        1.41651042032824
C           -4.21049804404935        1.06065741885231        1.41392767227088
H           -5.88649161171584       -2.31818628771736        1.51019411115614
H           -3.43329262533131       -2.46081328819718        1.74493479768558
H           -1.97506255907600       -1.94342506363179       -0.17467901803215
H           -2.96428229896844       -1.32434292292802       -2.34471180111244
H           -5.43358523158208       -1.19639636381705       -2.57790282541320
H           -7.60902054500965       -0.17855507598441        1.78678214131895
H           -8.86125132266318       -0.65138442241296        3.86123327746442
H          -10.40471474591911       -2.56823899803335        3.96209998830665
H          -10.70770648577247       -4.01829006126255        1.98882742678879
H           -9.44323699613632       -3.53066707329987       -0.09695144375615
H           -9.29364930813066       -0.38234842909442       -2.75164151162668
H           -9.66285796713952        1.95390907741835       -3.53067352738240
H           -8.35759484522860        3.79023706621880       -2.52000104941813
H           -6.72033189865511        3.31209184811487       -0.73591746461851
H           -4.84291283461979        1.74508485826398       -1.84095745732088
H           -2.42459178519251        2.12729967632096       -1.81713729278159
H           -0.74938566824162        3.60872759704213       -0.94307418166945
H            1.68598544705843        3.88194762147757       -0.95977952514253
H            2.99671532153767        0.12454432721015       -1.18657221310531
H            4.31563159218228       -1.93639465420884       -1.40514090690147
H            8.54156543120622       -0.55128288054405       -0.63736863255443
H           10.87938151528417       -1.20262231557591       -1.06895749871284
H           11.55616829252191       -3.55586142325990       -1.07568568864961
H            9.89899168311222       -5.34739649843075       -0.67536163570172
H            7.61748596159541       -6.79707217659039       -0.16964003232439
H            5.30600261495334       -7.52816323767602        0.31874317119677
H            3.51937499273952       -5.88695983641902        0.64940751762077
H            3.96479751209783       -3.46885494458545        0.47941904138754
H            7.16205889086024       -0.40776032179067        1.38900623762247
H            5.87262127511966        1.67788156902571        1.55944748654149
H            3.13360202140227        1.98163755183556        3.10702989518190
H            3.77345905131566        3.63808227126003        4.83384250717333
H            4.84315318167727        5.76519397855478        4.21366763891990
H            5.31474136014279        6.30408384057769        1.85209261162214
H            5.63395994214069        6.33722790154259       -0.73073191943805
H            5.65413282031400        5.90808330058869       -3.16077514179771
H            4.71567533121204        3.82915571298067       -4.08361350231642
H            3.73106977008285        2.10663859560527       -2.60134305942023
H            2.09630280470118        0.37486120179170        1.43759840955092
H           -0.33811621604874        0.10137975839546        1.45656318993001
H           -2.29346724344471        1.13452746888841        2.33387891806331
H           -4.72950868168897        0.75435784603011        2.30872532924887

 projected vibrational frequencies (cm⁻¹)
eigval :       -0.00    -0.00     0.00     0.00     0.00     0.00
eigval :        5.84     6.55    10.00    13.40    15.54    19.32
eigval :       24.31    28.84    30.32    41.59    44.55    46.06
eigval :       50.08    51.48    59.56    65.19    67.97    75.43
eigval :       77.73    88.31    91.34    98.17   103.77   110.46
eigval :      113.28   130.76   140.82   145.42   156.57   160.67
eigval :      172.64   177.63   192.20   193.95   210.76   219.12
eigval :      220.87   233.02   239.95   244.57   252.35   266.35
eigval :      271.20   272.31   279.76   299.52   310.80   323.42
eigval :      332.01   351.46   356.06   361.42   365.83   374.21
eigval :      381.21   383.84   386.63   388.78   391.15   393.19
eigval :      403.65   409.85   411.93   415.50   420.27   426.94
eigval :      436.49   447.26   450.18   467.20   472.57   476.06
eigval :      488.24   496.42   504.93   517.86   519.51   525.00
eigval :      535.41   538.97   539.76   552.53   559.48   580.13
eigval :      581.92   585.98   586.64   592.09   598.60   602.62
eigval :      606.37   617.66   619.57   634.26   652.92   656.99
eigval :      658.02   662.51   663.55   673.53   674.22   681.81
eigval :      685.88   692.36   699.03   701.64   708.28   709.61
eigval :      718.28   722.52   725.74   740.47   741.24   745.67
eigval :      757.31   769.36   779.84   780.37   786.49   794.27
eigval :      799.95   812.38   819.00   828.02   863.71   866.22
eigval :      866.99   871.03   872.69   873.81   876.40   877.43
eigval :      881.03   882.32   884.97   885.93   896.82   898.35
eigval :      898.72   901.07   901.80   902.98   903.41   907.18
eigval :      908.58   911.17   917.15   919.36   919.93   921.04
eigval :      921.96   925.28   926.82   928.90   930.11   931.06
eigval :      933.29   934.71   935.93   940.47   948.56   972.39
eigval :      976.60   988.86  1011.99  1014.53  1015.84  1024.13
eigval :     1029.11  1053.61  1069.72  1073.18  1079.22  1079.49
eigval :     1081.20  1083.61  1084.40  1087.05  1114.21  1115.70
eigval :     1117.54  1122.93  1129.44  1129.94  1133.65  1136.84
eigval :     1142.77  1148.90  1150.12  1154.85  1160.46  1162.54
eigval :     1173.49  1175.74  1180.05  1180.41  1180.66  1182.12
eigval :     1182.65  1191.81  1193.76  1197.74  1199.76  1211.07
eigval :     1213.30  1230.48  1231.02  1234.21  1234.98  1243.77
eigval :     1246.09  1254.88  1256.67  1267.94  1269.35  1271.11
eigval :     1273.75  1274.74  1280.64  1291.68  1297.93  1298.63
eigval :     1308.76  1317.12  1318.25  1321.96  1322.65  1323.94
eigval :     1324.56  1328.27  1348.70  1349.08  1356.07  1356.58
eigval :     1366.00  1370.61  1396.15  1408.11  1417.13  1422.15
eigval :     1423.34  1424.38  1426.65  1428.97  1444.95  1452.82
eigval :     1457.61  1469.30  1470.92  1486.38  1487.70  1493.77
eigval :     1497.63  1504.23  1524.65  1559.34  1559.65  1563.62
eigval :     1570.71  1572.17  1576.32  1581.86  1582.89  1585.95
eigval :     1586.33  1586.68  1588.91  1589.76  1589.86  1591.54
eigval :     1606.35  1607.85  1621.47  3054.09  3069.05  3069.22
eigval :     3070.71  3071.31  3071.81  3074.40  3075.34  3076.02
eigval :     3076.40  3076.91  3078.00  3078.42  3078.45  3080.29
eigval :     3080.67  3081.43  3081.73  3081.97  3082.93  3083.37
eigval :     3083.50  3084.60  3086.54  3086.90  3088.40  3088.53
eigval :     3089.79  3090.41  3091.63  3091.74  3092.23  3092.60
eigval :     3092.68  3094.72  3096.23  3097.74  3098.01  3101.34
eigval :     3102.30  3102.86  3112.04

   temp. (K)  partition function   enthalpy   heat capacity  entropy
                                   cal/mol     cal/K/mol   cal/K/mol   J/K/mol
 298.15  VIB  0.553E+27            32030.153    198.248    202.838
         ROT  0.277E+09              888.752      2.981     41.609
         INT  0.153E+36            32918.905    201.229    244.447
         TR   0.241E+29             1481.254      4.968     46.083
         TOT                       34400.1594   206.1969   290.5296  1215.5758

       T/K    H(0)-H(T)+PV         H(T)/Eh          T*S/Eh         G(T)/Eh
   ------------------------------------------------------------------------
    298.15    0.548201E-01    0.872325E+00    0.138040E+00    0.734285E+00
   ------------------------------------------------------------------------

         :::::::::::::::::::::::::::::::::::::::::::::::::::::
         ::                  THERMODYNAMIC                  ::
         :::::::::::::::::::::::::::::::::::::::::::::::::::::
         :: total free energy        -164.861642712965 Eh   ::
         ::.................................................::
         :: total energy             -165.595927414095 Eh   ::
         :: zero point energy           0.817504543507 Eh   ::
         :: G(RRHO) w/o ZPVE           -0.083219842377 Eh   ::
         :: G(RRHO) contrib.            0.734284701130 Eh   ::
         :::::::::::::::::::::::::::::::::::::::::::::::::::::

           -------------------------------------------------
          | TOTAL ENERGY             -165.595927414095 Eh   |
          | TOTAL ENTHALPY           -164.723602727138 Eh   |
          | TOTAL FREE ENERGY        -164.861642712965 Eh   |
          | GRADIENT NORM               0.000116995137 Eh/α |
           -------------------------------------------------

 * finished run on 2025/09/07 at 00:10:06.635
