   * xtb version 6.7.1 (edcfbbe) compiled by 'albert@albert-system' on 2024-07-22

   ID    Z sym.   atoms
    1    6 C      1-5, 7-15, 17-31, 34-42
    2    7 N      6, 16, 32
    3    8 O      33
    4    1 H      43-67

          program call               : xtb data2507/toluene/CzPh-PPO/CzPh-PPO.xyz --gfn 2 --gbsa toluene --ohess vtight --parallel 40 --molden --ceasefiles --namespace data2507/toluene/CzPh-PPO/CzPh-PPO_toluene_S0_preOpt
      * Solvation model:               GBSA
        Solvent                        toluene
        Solvent mass                       9.2140E+01 g/mol
          :  Hamiltonian                  GFN2-xTB          :
 * total energy  :  -107.0185076 Eh     change       -0.1431886E-08 Eh
 * total energy  :  -107.0299824 Eh     change       -0.1147474E-01 Eh
 * total energy  :  -107.0323309 Eh     change       -0.2348559E-02 Eh
 * total energy  :  -107.0329774 Eh     change       -0.6464807E-03 Eh
 * total energy  :  -107.0335576 Eh     change       -0.5802468E-03 Eh
 * total energy  :  -107.0337762 Eh     change       -0.2185478E-03 Eh
 * total energy  :  -107.0339048 Eh     change       -0.1286337E-03 Eh
 * total energy  :  -107.0339994 Eh     change       -0.9454971E-04 Eh
 * total energy  :  -107.0340922 Eh     change       -0.9281596E-04 Eh
 * total energy  :  -107.0341996 Eh     change       -0.1073914E-03 Eh
 * total energy  :  -107.0350370 Eh     change       -0.2233016E-05 Eh
 * total energy  :  -107.0350387 Eh     change       -0.1737952E-05 Eh
 * total energy  :  -107.0350400 Eh     change       -0.1329597E-05 Eh
 * total energy  :  -107.0350412 Eh     change       -0.1147173E-05 Eh
 * total energy  :  -107.0350422 Eh     change       -0.9846747E-06 Eh
 * total energy  :  -107.0350431 Eh     change       -0.9255803E-06 Eh
 * total energy  :  -107.0350440 Eh     change       -0.9026801E-06 Eh
 * total energy  :  -107.0350449 Eh     change       -0.8800849E-06 Eh
 * total energy  :  -107.0350449 Eh     change       -0.6059267E-08 Eh
   *** GEOMETRY OPTIMIZATION CONVERGED AFTER 68 ITERATIONS ***

 final structure:
================
67
 xtb: 6.7.1 (edcfbbe)
C            8.80725498029743        3.59138471435463       -0.08554994141220
C            8.96159063269367        2.37816616286630       -0.73768699115980
C            7.94533908834179        1.44097503922078       -0.71728763314549
C            6.76056830691764        1.70948051459855       -0.03429035812694
C            5.66194208549245        0.75256629873319       -0.00690310994645
N            4.36677058950568        1.18406322102111       -0.00877593837964
C            3.62847998305457        0.11436746357286       -0.03850876608162
C            2.18247600982666        0.03508929330231       -0.04427344388610
C            1.54313562746294       -1.20645747122396        0.03963638147249
C            0.16388388696770       -1.24304131171562        0.04026352163462
C           -0.55553604498227       -0.04956534399867       -0.04714135787086
C           -2.02056425829915       -0.02642897662434       -0.04350033513611
C           -2.72228524306113        0.83568487691962       -0.88567438912520
C           -4.10215669932468        0.85680899338264       -0.88380727114576
C           -4.81561944447714        0.02895187517469       -0.01914799424482
N           -6.21554392939246        0.05814548160836       -0.00493304210902
C           -7.04879980290620       -1.04257780641904       -0.07144656718169
C           -6.73132456805468       -2.38599936155446       -0.21602093543470
C           -7.77223031266425       -3.29281772924323       -0.28283009052829
C           -9.10175412852692       -2.88063078773780       -0.21918056655636
C           -9.42472202601778       -1.54304708188729       -0.10275324788374
C           -8.39540005315644       -0.61298988715280       -0.03121714270524
C           -8.36427203226638        0.81971595989021        0.07135107726294
C           -9.35215457660502        1.79177888835166        0.16597481934934
C           -8.97101393715166        3.11458049990412        0.27455457693408
C           -7.62432521127217        3.47090656855020        0.30810388118965
C           -6.62373620830695        2.52168015983887        0.21779021742090
C           -7.00042472113003        1.19284744018609        0.08053194615509
C           -4.12109120126480       -0.82778709604323        0.83235649142187
C           -2.74171365911023       -0.86133818831580        0.80963962268562
C            0.19096892075884        1.13114341210108       -0.12712624780225
N            1.50452710692678        1.17958731910499       -0.12434133628069
O            4.35422172047791       -1.02605575072029       -0.05289854392361
C            5.65581149024103       -0.63195709485722       -0.02266441622849
C            6.68599817327244       -1.65343024050612        0.03312763404703
C            6.46011450378865       -2.89599651263257       -0.56109449590304
C            7.42755347671727       -3.88138584381135       -0.50646511765258
C            8.62667405864193       -3.64410444849117        0.14583829198304
C            8.85063706089416       -2.41792507284504        0.75328090363065
C            7.88928006755557       -1.42686481367397        0.70302626063790
C            6.60275052784981        2.93992564561591        0.60059435201962
C            7.62362385312661        3.87170977976928        0.57811419112512
H            9.60533957029732        4.31905674265192       -0.10149473559635
H            9.87693890408704        2.16226848832178       -1.26927252937210
H            8.06128916246177        0.50307430467821       -1.24025257152132
H            2.12824902681827       -2.11087851237525        0.10179403186088
H           -0.35655076754018       -2.18850824033345        0.08902728710607
H           -2.17963237245732        1.47113535062088       -1.56951241535808
H           -4.63626151169539        1.50402471071823       -1.56311923779013
H           -5.70580666671004       -2.71555471831957       -0.28624531845421
H           -7.54988927190549       -4.34460704753273       -0.39055658368051
H           -9.88734321204518       -3.62016436074467       -0.27234136743259
H          -10.45524091225511       -1.22196500958258       -0.07101697818665
H          -10.39559705299653        1.51383700129693        0.15781804851789
H           -9.72352223159796        3.88633488517365        0.34525062588560
H           -7.35581595286750        4.51235914956341        0.41058822992118
H           -5.58413097519034        2.80850497738135        0.26487905415567
H           -4.66867352517864       -1.45297078694444        1.52155057217094
H           -2.21441660886025       -1.51713415208951        1.48646239316267
H           -0.30333760516121        2.09276663037079       -0.17706518820578
H            5.52515942424828       -3.07519778121379       -1.07183659018070
H            7.24536951023697       -4.83697657165339       -0.97595090610710
H            9.38266124796045       -4.41407325066855        0.18556641996268
H            9.77890076862685       -2.23400921304767        1.27354472563593
H            8.05672999768671       -0.47817847649011        1.18954806192889
H            5.67161621501372        3.14718200328909        1.10566741031817
H            7.49502574618437        4.82051308831987        1.07829967214996

          :  Hamiltonian                  GFN2-xTB          :
         :: gradient norm              0.000066302558 Eh/a0 ::
         :: HOMO-LUMO gap              2.059253107440 eV    ::
         :: SCC energy              -108.970082475957 Eh    ::
         :: -> dispersion             -0.086636537338 Eh    ::
         :: -> Gsolv                  -0.048126971991 Eh    ::
         :: repulsion energy           1.935037584175 Eh    ::

    * Orbital Energies and Occupations

         #    Occupation            Energy/Eh            Energy/eV
      -------------------------------------------------------------
         1        2.0000           -0.7597607             -20.6741
       ...           ...                  ...                  ...
        87        2.0000           -0.4205075             -11.4426
        88        2.0000           -0.4194713             -11.4144
        89        2.0000           -0.4169651             -11.3462
        90        2.0000           -0.4146854             -11.2842
        91        2.0000           -0.4128598             -11.2345
        92        2.0000           -0.4062065             -11.0534
        93        2.0000           -0.4061458             -11.0518
        94        2.0000           -0.4049532             -11.0193
        95        2.0000           -0.3976456             -10.8205
        96        2.0000           -0.3796063             -10.3296
        97        2.0000           -0.3789763             -10.3125
        98        2.0000           -0.3768557             -10.2548
        99        2.0000           -0.3634923              -9.8911 (HOMO)
       100                         -0.2878161              -7.8319 (LUMO)
       101                         -0.2611851              -7.1072
       102                         -0.2547983              -6.9334
       103                         -0.2467072              -6.7132
       104                         -0.2371826              -6.4541
       105                         -0.2362128              -6.4277
       106                         -0.2326192              -6.3299
       107                         -0.2239775              -6.0947
       108                         -0.2229783              -6.0675
       109                         -0.2217756              -6.0348
       110                         -0.1961083              -5.3364
       ...                                ...                  ...
       193                          0.7431596              20.2224
      -------------------------------------------------------------
                  HL-Gap            0.0756762 Eh            2.0593 eV

     #   Z          covCN         q      C6AA      α(0)
     1   6 C        2.919    -0.029    28.728     8.789
     2   6 C        2.919    -0.029    28.719     8.788
     3   6 C        2.923    -0.036    28.886     8.814
     4   6 C        2.974     0.007    27.861     8.658
     5   6 C        3.134     0.056    26.525     8.430
     6   7 N        1.888    -0.292    28.414     7.902
     7   6 C        3.190     0.210    23.159     7.850
     8   6 C        2.962     0.079    26.238     8.402
     9   6 C        2.917    -0.043    29.076     8.842
    10   6 C        2.930    -0.018    28.453     8.748
    11   6 C        2.972     0.004    27.928     8.668
    12   6 C        2.975     0.006    27.883     8.662
    13   6 C        2.924    -0.032    28.796     8.800
    14   6 C        2.920    -0.041    29.030     8.836
    15   6 C        2.912     0.065    26.538     8.447
    16   7 N        2.801    -0.043    22.073     6.978
    17   6 C        3.073     0.047    26.879     8.500
    18   6 C        2.910    -0.052    29.289     8.874
    19   6 C        2.924    -0.035    28.868     8.811
    20   6 C        2.920    -0.042    29.048     8.838
    21   6 C        2.912    -0.035    28.859     8.809
    22   6 C        3.067    -0.018    28.384     8.736
    23   6 C        3.067    -0.018    28.385     8.736
    24   6 C        2.912    -0.035    28.860     8.809
    25   6 C        2.920    -0.042    29.044     8.838
    26   6 C        2.924    -0.035    28.861     8.810
    27   6 C        2.910    -0.052    29.284     8.874
    28   6 C        3.073     0.047    26.879     8.500
    29   6 C        2.920    -0.042    29.047     8.838
    30   6 C        2.924    -0.031    28.781     8.798
    31   6 C        2.913     0.059    26.687     8.471
    32   7 N        1.842    -0.234    26.972     7.697
    33   8 O        1.727    -0.228    17.776     5.693
    34   6 C        3.077     0.099    25.730     8.316
    35   6 C        2.970     0.003    27.964     8.674
    36   6 C        2.925    -0.028    28.709     8.787
    37   6 C        2.918    -0.027    28.686     8.783
    38   6 C        2.919    -0.027    28.682     8.782
    39   6 C        2.919    -0.026    28.648     8.777
    40   6 C        2.923    -0.033    28.820     8.804
    41   6 C        2.926    -0.027    28.680     8.782
    42   6 C        2.918    -0.028    28.705     8.786
    43   1 H        0.926     0.039     2.462     2.454
    44   1 H        0.926     0.038     2.470     2.458
    45   1 H        0.926     0.032     2.564     2.504
    46   1 H        0.926     0.049     2.336     2.390
    47   1 H        0.926     0.052     2.290     2.367
    48   1 H        0.926     0.044     2.398     2.422
    49   1 H        0.926     0.048     2.347     2.395
    50   1 H        0.926     0.031     2.574     2.509
    51   1 H        0.926     0.031     2.579     2.511
    52   1 H        0.926     0.028     2.610     2.526
    53   1 H        0.926     0.031     2.573     2.509
    54   1 H        0.926     0.031     2.573     2.508
    55   1 H        0.926     0.029     2.606     2.524
    56   1 H        0.926     0.031     2.572     2.508
    57   1 H        0.926     0.031     2.568     2.506
    58   1 H        0.926     0.048     2.349     2.397
    59   1 H        0.926     0.045     2.388     2.416
    60   1 H        0.925     0.049     2.333     2.388
    61   1 H        0.926     0.038     2.478     2.462
    62   1 H        0.926     0.041     2.432     2.439
    63   1 H        0.926     0.043     2.409     2.427
    64   1 H        0.926     0.044     2.399     2.422
    65   1 H        0.926     0.040     2.454     2.450
    66   1 H        0.926     0.046     2.365     2.405
    67   1 H        0.926     0.039     2.459     2.452

molecular dipole:
                 x           y           z       tot (Debye)
 q only:        0.518      -0.723       0.094
   full:        0.403      -1.365       0.086       3.624

 projected vibrational frequencies (cm⁻¹)
eigval :       -0.00    -0.00    -0.00    -0.00     0.00     0.00
eigval :        9.61    12.13    16.54    34.58    40.67    42.36
eigval :       44.04    52.64    62.67    75.41    83.82    91.91
eigval :      101.13   110.88   119.57   125.65   141.32   145.73
eigval :      188.32   205.30   227.90   237.80   251.88   265.69
eigval :      272.98   276.04   298.03   329.13   359.08   369.19
eigval :      376.42   376.97   384.54   387.16   396.78   397.90
eigval :      417.65   423.00   436.74   438.58   467.83   489.37
eigval :      507.65   516.59   522.37   534.33   542.38   542.89
eigval :      566.00   582.38   586.88   592.07   595.85   611.46
eigval :      618.79   635.18   656.64   657.82   666.40   672.86
eigval :      677.64   689.99   693.26   695.49   709.16   723.56
eigval :      729.69   755.71   761.00   766.39   768.95   780.71
eigval :      788.08   814.95   836.99   866.98   873.43   876.31
eigval :      880.02   881.08   896.08   898.43   902.00   903.40
eigval :      903.62   907.47   919.45   921.37   923.85   928.41
eigval :      928.80   928.97   930.19   932.57   935.14   936.76
eigval :      941.47   960.47   974.90   999.75  1011.10  1019.86
eigval :     1023.49  1069.45  1072.87  1078.89  1080.66  1082.48
eigval :     1099.14  1111.64  1116.30  1116.51  1118.80  1136.00
eigval :     1150.14  1151.51  1174.33  1178.13  1178.34  1178.99
eigval :     1182.42  1188.38  1194.83  1202.20  1205.60  1234.42
eigval :     1238.40  1242.39  1246.10  1266.63  1276.16  1279.30
eigval :     1280.25  1286.91  1298.32  1299.26  1309.35  1314.95
eigval :     1318.40  1319.92  1355.01  1359.48  1361.44  1362.90
eigval :     1380.02  1407.52  1425.58  1426.57  1426.98  1430.55
eigval :     1444.99  1451.02  1473.26  1481.03  1486.07  1497.25
eigval :     1525.33  1547.85  1555.84  1558.38  1567.95  1573.40
eigval :     1576.11  1580.68  1586.62  1591.41  1592.85  1596.51
eigval :     1596.59  1612.33  3055.33  3070.93  3071.37  3072.11
eigval :     3075.59  3076.03  3076.91  3077.07  3077.68  3079.67
eigval :     3082.74  3083.63  3084.73  3085.48  3085.83  3086.53
eigval :     3090.46  3091.89  3092.53  3093.88  3094.84  3096.97
eigval :     3097.51  3099.13  3100.16

   temp. (K)  partition function   enthalpy   heat capacity  entropy
                                   cal/mol     cal/K/mol   cal/K/mol   J/K/mol
 298.15  VIB  0.692E+15            18807.170    119.607    117.678
         ROT  0.880E+08              888.752      2.981     39.334
         INT  0.609E+23            19695.923    122.588    157.012
         TR   0.121E+29             1481.254      4.968     44.722
         TOT                       21177.1766   127.5559   201.7344   844.0569

       T/K    H(0)-H(T)+PV         H(T)/Eh          T*S/Eh         G(T)/Eh
   ------------------------------------------------------------------------
    298.15    0.337480E-01    0.543145E+00    0.958505E-01    0.447294E+00
   ------------------------------------------------------------------------

         :::::::::::::::::::::::::::::::::::::::::::::::::::::
         ::                  THERMODYNAMIC                  ::
         :::::::::::::::::::::::::::::::::::::::::::::::::::::
         :: total free energy        -106.587750756905 Eh   ::
         ::.................................................::
         :: total energy             -107.035044888346 Eh   ::
         :: zero point energy           0.509396689725 Eh   ::
         :: G(RRHO) w/o ZPVE           -0.062102558284 Eh   ::
         :: G(RRHO) contrib.            0.447294131441 Eh   ::
         :::::::::::::::::::::::::::::::::::::::::::::::::::::

           -------------------------------------------------
          | TOTAL ENERGY             -107.035044888346 Eh   |
          | TOTAL ENTHALPY           -106.491900219494 Eh   |
          | TOTAL FREE ENERGY        -106.587750756905 Eh   |
          | GRADIENT NORM               0.000066302691 Eh/α |
          | HOMO-LUMO GAP               2.059253008920 eV   |
           -------------------------------------------------

 * finished run on 2025/07/18 at 15:25:14.888
