   * xtb version 6.7.1 (edcfbbe) compiled by 'albert@albert-system' on 2024-07-22

   ID    Z sym.   atoms
    1    6 C      1-5, 7-15, 17-31, 34-42
    2    7 N      6, 16, 32
    3    8 O      33
    4    1 H      43-67

          program call               : xtb data2507/toluene/CzPh-PPO/CzPh-PPO_toluene_T1_crest.xyz --gfn 2 --uhf 2 --gbsa toluene --ohess vtight --parallel 40 --molden --ceasefiles --namespace data2507/toluene/CzPh-PPO/CzPh-PPO_toluene_T1_finalOpt
      * Solvation model:               GBSA
        Solvent                        toluene
        Solvent mass                       9.2140E+01 g/mol
          :  Hamiltonian                  GFN2-xTB          :
 * total energy  :  -106.9585611 Eh     change       -0.3731543E-08 Eh
 * total energy  :  -106.9586387 Eh     change       -0.7754475E-04 Eh
 * total energy  :  -106.9586695 Eh     change       -0.3084990E-04 Eh
 * total energy  :  -106.9586752 Eh     change       -0.5641876E-05 Eh
 * total energy  :  -106.9586798 Eh     change       -0.4617310E-05 Eh
 * total energy  :  -106.9586837 Eh     change       -0.3976734E-05 Eh
 * total energy  :  -106.9586879 Eh     change       -0.4196102E-05 Eh
 * total energy  :  -106.9586922 Eh     change       -0.4245160E-05 Eh
 * total energy  :  -106.9586962 Eh     change       -0.4014978E-05 Eh
 * total energy  :  -106.9586996 Eh     change       -0.3352913E-05 Eh
 * total energy  :  -106.9587431 Eh     change       -0.1912995E-06 Eh
 * total energy  :  -106.9587433 Eh     change       -0.1988398E-06 Eh
 * total energy  :  -106.9587436 Eh     change       -0.2440924E-06 Eh
 * total energy  :  -106.9587438 Eh     change       -0.2707263E-06 Eh
 * total energy  :  -106.9587441 Eh     change       -0.2796972E-06 Eh
 * total energy  :  -106.9587444 Eh     change       -0.2859356E-06 Eh
 * total energy  :  -106.9587447 Eh     change       -0.3017326E-06 Eh
 * total energy  :  -106.9587450 Eh     change       -0.3055518E-06 Eh
 * total energy  :  -106.9587450 Eh     change       -0.2594177E-08 Eh
   *** GEOMETRY OPTIMIZATION CONVERGED AFTER 44 ITERATIONS ***

 final structure:
================
67
 xtb: 6.7.1 (edcfbbe)
C            8.89633482466080       -3.17419532556439        1.32732444103862
C            8.88064099534560       -1.84258084331523        1.71304128924003
C            7.84304340510176       -1.01635682703059        1.32452317582486
C            6.80384985261874       -1.51889855698418        0.54028926411981
C            5.67626077427640       -0.68201651284403        0.15786638348994
N            4.42685892941225       -1.15733274439621        0.21505427150232
C            3.62112659352553       -0.13672359697579       -0.09515995881669
C            2.22676518646464       -0.18946200889718       -0.13509211938937
C            1.53281675062352       -1.39312363201713        0.19950102006877
C            0.17670934805549       -1.39505505041534        0.24499792298342
C           -0.56242805350324       -0.20837268426177       -0.05101928518386
C           -1.99165786266865       -0.15536974968097       -0.04383812376902
C           -2.68744009671638        1.06947020491660        0.08150461957338
C           -4.05669503701110        1.11947869749044        0.11741293981727
C           -4.81622970652408       -0.05330950768557        0.00746970898326
N           -6.20761304185175       -0.00294111301445        0.03392475814259
C           -7.05643040820215       -0.64308181913782       -0.85027452349984
C           -6.75463073050236       -1.40332048773951       -1.97271975861727
C           -7.80830558050748       -1.90751958374048       -2.71344162688205
C           -9.13149956042881       -1.65437998767615       -2.36067259411476
C           -9.43819010505829       -0.87104395562559       -1.26194131922700
C           -8.39779716702716       -0.35681069320419       -0.50302780326465
C           -8.34655264833055        0.49555337502955        0.65596090491235
C           -9.32012207995733        1.07509866108114        1.45544777465266
C           -8.91947534986871        1.83363077547631        2.54121595018405
C           -7.56957912546056        1.99885215806251        2.84074345750348
C           -6.58149217331276        1.42862089108696        2.05873016420940
C           -6.97646956615653        0.69198061103695        0.94961724018512
C           -4.14788205748638       -1.27714742563981       -0.13164338371983
C           -2.77826762199294       -1.32603684580671       -0.15026100528652
C            0.23071249899618        0.91104436546258       -0.42322993055878
N            1.52431513378833        0.92714864197021       -0.47887537727739
O            4.31816522265202        1.01350383469795       -0.35828704804150
C            5.63959942836059        0.67677254426708       -0.22938429742019
C            6.63360480725643        1.64295064338505       -0.56030045831201
C            6.27466226062409        3.00320835034599       -0.63955111544524
C            7.21435500834194        3.95819839416182       -0.95526134181682
C            8.52978730215458        3.59135108987393       -1.21353103016784
C            8.89143042251415        2.25011575159222       -1.16567697143677
C            7.96340162847308        1.28315948962639       -0.84872792765541
C            6.81281807716632       -2.86563580249741        0.17883495041950
C            7.85793606343247       -3.68393862588895        0.56354561093886
H            9.71204298960754       -3.81461710871097        1.62860502770375
H            9.67917887992668       -1.44629217654804        2.32297061769944
H            7.82152289687166        0.01665700645147        1.64006099642991
H            2.12484536082862       -2.25517044125388        0.46110700692374
H           -0.34679768541433       -2.28731417799535        0.55285380285080
H           -2.13045237940943        1.98915475794457        0.17003468604489
H           -4.56181627312590        2.07055102200839        0.19775338859185
H           -5.73330656969322       -1.58434382834725       -2.27012172956018
H           -7.59930794091655       -2.50506988920124       -3.58836613001685
H           -9.92721559477387       -2.06668875897221       -2.96307025945245
H          -10.46399198968624       -0.65798665458991       -1.00249300398392
H          -10.36716336128058        0.93013875869347        1.23703099961047
H           -9.66183967906350        2.29581722848759        3.17470651367953
H           -7.28692074674434        2.57966179844577        3.70619495195686
H           -5.53975468022066        1.54397057101673        2.31467614856896
H           -4.72303096643340       -2.18919940398393       -0.19068139137573
H           -2.29304202981091       -2.28311196641487       -0.25930261419820
H           -0.24437096154484        1.82168733864121       -0.76615055379239
H            5.25119338186513        3.28080058691136       -0.43598541610388
H            6.92573304799921        4.99827297737851       -1.00173799012887
H            9.26435715883396        4.34305987946113       -1.45983369760403
H            9.90777025921539        1.95931893879954       -1.38806321197366
H            8.24469578114629        0.24196995806505       -0.84501981168161
H            5.99385525835199       -3.25012664675320       -0.41013825914010
H            7.86202672239482       -4.72316151296669        0.26909572546528

          :  Hamiltonian                  GFN2-xTB          :
         :: gradient norm              0.000036019115 Eh/a0 ::
         :: HOMO-LUMO gap              0.746875968984 eV    ::
         :: SCC energy              -108.878877292174 Eh    ::
         :: -> dispersion             -0.086643864257 Eh    ::
         :: -> Gsolv                  -0.050705176468 Eh    ::
         :: repulsion energy           1.920132288237 Eh    ::

    * Orbital Energies and Occupations

         #    Occupation            Energy/Eh            Energy/eV
      -------------------------------------------------------------
         1        2.0000           -0.7378640             -20.0783
       ...           ...                  ...                  ...
        88        2.0000           -0.4220199             -11.4837
        89        2.0000           -0.4176712             -11.3654
        90        2.0000           -0.4146086             -11.2821
        91        2.0000           -0.4114683             -11.1966
        92        2.0000           -0.4097423             -11.1497
        93        2.0000           -0.4089582             -11.1283
        94        2.0000           -0.3970799             -10.8051
        95        2.0000           -0.3939961             -10.7212
        96        2.0000           -0.3886011             -10.5744
        97        1.9999           -0.3746509             -10.1948
        98        1.9807           -0.3698747             -10.0648
        99        1.0194           -0.3624163              -9.8619
       100        1.0000           -0.2892044              -7.8697 (HOMO)
       101        0.0000           -0.2617572              -7.1228 (LUMO)
       102                         -0.2541769              -6.9165
       103                         -0.2414900              -6.5713
       104                         -0.2331525              -6.3444
       105                         -0.2323183              -6.3217
       106                         -0.2310780              -6.2880
       107                         -0.2288428              -6.2271
       108                         -0.2252437              -6.1292
       109                         -0.2190022              -5.9594
       110                         -0.2022682              -5.5040
       111                         -0.1955985              -5.3225
       ...                                ...                  ...
       193                          0.7341540              19.9773
      -------------------------------------------------------------
                  HL-Gap            0.0274472 Eh            0.7469 eV

     #   Z          covCN         q      C6AA      α(0)
     1   6 C        2.919    -0.027    28.669     8.780
     2   6 C        2.918    -0.028    28.691     8.784
     3   6 C        2.923    -0.032    28.791     8.799
     4   6 C        2.974     0.008    27.841     8.655
     5   6 C        3.114     0.076    26.157     8.378
     6   7 N        1.879    -0.334    29.526     8.055
     7   6 C        3.148     0.203    23.479     7.927
     8   6 C        2.945     0.053    26.802     8.491
     9   6 C        2.911    -0.045    29.116     8.848
    10   6 C        2.920    -0.030    28.738     8.791
    11   6 C        2.967    -0.018    28.444     8.748
    12   6 C        2.968     0.010    27.800     8.649
    13   6 C        2.921    -0.037    28.909     8.817
    14   6 C        2.915    -0.040    29.003     8.831
    15   6 C        2.912     0.055    26.772     8.484
    16   7 N        2.800    -0.015    21.534     6.892
    17   6 C        3.071     0.046    26.898     8.504
    18   6 C        2.909    -0.044    29.101     8.846
    19   6 C        2.923    -0.032    28.789     8.799
    20   6 C        2.920    -0.035    28.870     8.811
    21   6 C        2.912    -0.030    28.757     8.793
    22   6 C        3.064    -0.012    28.252     8.716
    23   6 C        3.065    -0.012    28.253     8.716
    24   6 C        2.912    -0.030    28.758     8.794
    25   6 C        2.920    -0.035    28.871     8.811
    26   6 C        2.923    -0.032    28.790     8.799
    27   6 C        2.909    -0.044    29.101     8.846
    28   6 C        3.071     0.046    26.898     8.504
    29   6 C        2.915    -0.041    29.014     8.833
    30   6 C        2.921    -0.035    28.878     8.812
    31   6 C        2.892     0.065    26.549     8.448
    32   7 N        1.838    -0.248    27.319     7.746
    33   8 O        1.719    -0.244    18.046     5.736
    34   6 C        3.042     0.099    25.778     8.328
    35   6 C        2.967     0.000    28.014     8.682
    36   6 C        2.924    -0.029    28.724     8.789
    37   6 C        2.915    -0.027    28.686     8.783
    38   6 C        2.918    -0.029    28.735     8.791
    39   6 C        2.916    -0.027    28.675     8.781
    40   6 C        2.920    -0.037    28.918     8.819
    41   6 C        2.925    -0.025    28.634     8.775
    42   6 C        2.918    -0.027    28.683     8.782
    43   1 H        0.926     0.043     2.408     2.427
    44   1 H        0.926     0.042     2.420     2.433
    45   1 H        0.926     0.035     2.519     2.482
    46   1 H        0.926     0.045     2.377     2.411
    47   1 H        0.926     0.042     2.421     2.433
    48   1 H        0.926     0.040     2.450     2.448
    49   1 H        0.926     0.046     2.371     2.408
    50   1 H        0.926     0.040     2.443     2.444
    51   1 H        0.926     0.039     2.464     2.455
    52   1 H        0.926     0.038     2.476     2.460
    53   1 H        0.926     0.040     2.443     2.444
    54   1 H        0.926     0.040     2.442     2.444
    55   1 H        0.926     0.038     2.477     2.461
    56   1 H        0.926     0.039     2.466     2.456
    57   1 H        0.926     0.040     2.448     2.446
    58   1 H        0.926     0.047     2.361     2.403
    59   1 H        0.926     0.044     2.398     2.421
    60   1 H        0.925     0.040     2.455     2.450
    61   1 H        0.926     0.041     2.432     2.439
    62   1 H        0.926     0.039     2.466     2.456
    63   1 H        0.926     0.040     2.443     2.444
    64   1 H        0.926     0.041     2.439     2.442
    65   1 H        0.926     0.037     2.486     2.466
    66   1 H        0.926     0.043     2.407     2.426
    67   1 H        0.926     0.042     2.419     2.432

molecular dipole:
                 x           y           z       tot (Debye)
 q only:       -2.037      -0.262       0.168
   full:       -2.097      -0.174       0.182       5.367

 projected vibrational frequencies (cm⁻¹)
eigval :       -0.00    -0.00    -0.00    -0.00     0.00     0.00
eigval :        8.11    12.14    19.20    29.80    37.53    42.72
eigval :       44.83    56.60    61.73    75.10    87.19    94.65
eigval :      100.42   111.10   114.51   137.99   144.92   151.27
eigval :      167.87   205.41   225.27   231.94   242.42   265.08
eigval :      268.81   271.52   290.37   325.83   347.12   360.25
eigval :      366.97   372.89   377.99   387.13   391.20   399.28
eigval :      413.68   419.80   422.54   435.28   448.71   459.16
eigval :      491.40   501.08   510.34   515.52   536.69   541.80
eigval :      565.95   578.30   582.89   585.64   589.98   593.70
eigval :      615.04   616.84   627.88   648.71   651.14   657.64
eigval :      664.79   674.08   678.26   683.26   686.30   709.62
eigval :      719.62   745.38   750.70   758.33   765.84   768.32
eigval :      778.11   787.74   807.82   833.64   846.02   857.42
eigval :      871.24   872.00   877.77   885.52   893.42   895.06
eigval :      900.49   902.43   903.27   908.65   914.31   917.48
eigval :      920.33   921.70   923.43   924.70   927.25   931.63
eigval :      934.22   936.75   942.80   965.12   995.07  1001.68
eigval :     1010.27  1036.36  1053.38  1068.47  1069.74  1071.50
eigval :     1078.07  1082.30  1112.67  1116.55  1117.78  1128.09
eigval :     1141.86  1146.78  1163.73  1174.01  1174.79  1177.73
eigval :     1179.33  1180.50  1189.78  1196.93  1206.04  1227.55
eigval :     1229.09  1239.77  1250.98  1262.92  1267.24  1275.16
eigval :     1277.64  1280.12  1285.95  1291.58  1304.78  1318.17
eigval :     1324.27  1328.22  1343.40  1344.19  1348.86  1357.54
eigval :     1367.60  1394.97  1413.78  1415.55  1417.38  1427.66
eigval :     1429.05  1431.25  1445.76  1459.93  1467.98  1472.62
eigval :     1480.22  1481.22  1491.83  1521.35  1534.02  1558.64
eigval :     1567.65  1572.37  1574.14  1579.68  1580.54  1581.74
eigval :     1590.49  1601.29  3040.97  3074.36  3074.76  3076.97
eigval :     3077.19  3078.52  3078.78  3079.57  3083.95  3084.24
eigval :     3085.10  3085.33  3086.19  3089.67  3091.18  3093.24
eigval :     3094.43  3095.04  3096.96  3098.53  3099.32  3100.47
eigval :     3101.85  3104.94  3105.55

   temp. (K)  partition function   enthalpy   heat capacity  entropy
                                   cal/mol     cal/K/mol   cal/K/mol   J/K/mol
 298.15  VIB  0.102E+16            19095.888    121.578    119.178
         ROT  0.882E+08              888.752      2.981     39.338
         INT  0.900E+23            19984.640    124.559    158.516
         TR   0.121E+29             1481.254      4.968     44.722
         TOT                       21465.8938   129.5267   203.2387   850.3507

       T/K    H(0)-H(T)+PV         H(T)/Eh          T*S/Eh         G(T)/Eh
   ------------------------------------------------------------------------
    298.15    0.342081E-01    0.539707E+00    0.965653E-01    0.443141E+00
   ------------------------------------------------------------------------

         :::::::::::::::::::::::::::::::::::::::::::::::::::::
         ::                  THERMODYNAMIC                  ::
         :::::::::::::::::::::::::::::::::::::::::::::::::::::
         :: total free energy        -106.515603553480 Eh   ::
         ::.................................................::
         :: total energy             -106.958745002296 Eh   ::
         :: zero point energy           0.505498628443 Eh   ::
         :: G(RRHO) w/o ZPVE           -0.062357179626 Eh   ::
         :: G(RRHO) contrib.            0.443141448817 Eh   ::
         :::::::::::::::::::::::::::::::::::::::::::::::::::::

           -------------------------------------------------
          | TOTAL ENERGY             -106.958745002296 Eh   |
          | TOTAL ENTHALPY           -106.419038294660 Eh   |
          | TOTAL FREE ENERGY        -106.515603553480 Eh   |
          | GRADIENT NORM               0.000035940958 Eh/α |
          | HOMO-LUMO GAP               0.746876476113 eV   |
           -------------------------------------------------

 * finished run on 2025/07/18 at 15:32:01.354
