   * xtb version 6.7.1 (edcfbbe) compiled by 'albert@albert-system' on 2024-07-22

   ID    Z sym.   atoms
    1    6 C      1-5, 7-15, 17-31, 34-42
    2    7 N      6, 16, 32
    3    8 O      33
    4    1 H      43-67

          program call               : xtb data2507/toluene/CzPh-PPO/CzPh-PPO_toluene_S0_finalOpt.xtbopt.xyz --gfn 2 --uhf 2 --gbsa toluene --ohess vtight --parallel 40 --molden --ceasefiles --namespace data2507/toluene/CzPh-PPO/CzPh-PPO_toluene_T1_preOpt
      * Solvation model:               GBSA
        Solvent                        toluene
        Solvent mass                       9.2140E+01 g/mol
          :  Hamiltonian                  GFN2-xTB          :
 * total energy  :  -106.9484920 Eh     change       -0.1625139E-08 Eh
 * total energy  :  -106.9544903 Eh     change       -0.5998245E-02 Eh
 * total energy  :  -106.9566168 Eh     change       -0.2126517E-02 Eh
 * total energy  :  -106.9568449 Eh     change       -0.2281420E-03 Eh
 * total energy  :  -106.9571377 Eh     change       -0.2928238E-03 Eh
 * total energy  :  -106.9572929 Eh     change       -0.1551308E-03 Eh
 * total energy  :  -106.9574502 Eh     change       -0.1573036E-03 Eh
 * total energy  :  -106.9575566 Eh     change       -0.1064127E-03 Eh
 * total energy  :  -106.9576252 Eh     change       -0.6858062E-04 Eh
 * total energy  :  -106.9576841 Eh     change       -0.5897089E-04 Eh
 * total energy  :  -106.9584709 Eh     change       -0.1064395E-05 Eh
 * total energy  :  -106.9584719 Eh     change       -0.9791801E-06 Eh
 * total energy  :  -106.9584728 Eh     change       -0.9408041E-06 Eh
 * total energy  :  -106.9584737 Eh     change       -0.8366569E-06 Eh
 * total energy  :  -106.9584744 Eh     change       -0.7513740E-06 Eh
 * total energy  :  -106.9584751 Eh     change       -0.6808087E-06 Eh
 * total energy  :  -106.9584757 Eh     change       -0.6358933E-06 Eh
 * total energy  :  -106.9584763 Eh     change       -0.6167576E-06 Eh
 * total energy  :  -106.9584763 Eh     change       -0.5535483E-08 Eh
   *** GEOMETRY OPTIMIZATION CONVERGED AFTER 94 ITERATIONS ***

 final structure:
================
67
 xtb: 6.7.1 (edcfbbe)
C            8.90898209159742        3.40928924985728       -0.49679664523748
C            8.94634124735145        2.17819133310225       -1.13335057201824
C            7.90460115614504        1.28256985599988       -0.98132048570074
C            6.80833605884062        1.61241544775336       -0.18314473109375
C            5.67628056988810        0.70941199902137       -0.03952542986160
N            4.42636183975851        1.18064457693484       -0.08364055236352
C            3.61852457567485        0.11617460602844       -0.02451493629146
C            2.22436746097669        0.15352885997187       -0.06891995968439
C            1.53137054270194        1.39873669427162       -0.17303273148470
C            0.17419889130977        1.41365676122358       -0.15774968904222
C           -0.55834453518665        0.19511310866650       -0.02833757367519
C           -1.98877111910602        0.14493740701212       -0.02741877143101
C           -2.69102256104009       -0.90969214432132        0.59800865547003
C           -4.06138572486603       -0.95115780382012        0.60939486018603
C           -4.81154441139079        0.05575008096749       -0.01385533589282
N           -6.20307670273414        0.01150786900716       -0.00711577133578
C           -7.04671037916742        1.07174317226259        0.27327845077201
C           -6.74077075568731        2.36910643780516        0.66366991222125
C           -7.79065254841811        3.23314350006025        0.91701846530799
C           -9.11574945250053        2.82051631471453        0.80241889778783
C           -9.42732958809522        1.52003612064937        0.44734734026150
C           -8.39035063800998        0.63735838953543        0.18555034736642
C           -8.34702410765095       -0.75622848009922       -0.17173651394446
C           -9.32717692647099       -1.70562332127051       -0.41849544937405
C           -8.93551968925303       -2.98335419680498       -0.77688555052893
C           -7.58785755240664       -3.30784671673304       -0.91029524108662
C           -6.59364402002725       -2.37642464014007       -0.67165918227691
C           -6.97901137257535       -1.10161214413414       -0.27717653541055
C           -4.13303458418892        1.10699385981339       -0.64532272931667
C           -2.76265234546320        1.15046239915362       -0.64884910018611
C            0.23229742286278       -0.98203830030700        0.04290237381078
N            1.52745230283829       -1.01785281036300        0.00525229881667
O            4.31661879628131       -1.05961539807266        0.07779197911508
C            5.63863040596731       -0.70080200639151        0.08246583442082
C            6.62572257387807       -1.71228865563767        0.25265956581799
C            6.27277078430474       -3.06123143646211        0.04213805921047
C            7.20720702419760       -4.06072605220682        0.18791395182867
C            8.51186991237753       -3.75504497487605        0.55823069282483
C            8.86574017762759       -2.43251147525316        0.79978519711584
C            7.94330532328971       -1.42047733452969        0.65549655897744
C            6.76533971336070        2.86372923468161        0.43157120127758
C            7.81412040236828        3.75090849567107        0.28191948014082
H            9.72758982588889        4.10380811591073       -0.61427844202765
H            9.78941882971001        1.91588090325073       -1.75544485974519
H            7.92457239626564        0.33215828233292       -1.49427626220921
H            2.12333791497523        2.29798210371228       -0.22891524466705
H           -0.35674373604972        2.35292775643993       -0.19592089072919
H           -2.13852717719979       -1.67512897279013        1.12052296287611
H           -4.57321337838650       -1.74160473419267        1.13753756390314
H           -5.71905989326060        2.69443936198428        0.78234876075022
H           -7.57678992363219        4.24846144960343        1.21642897552244
H           -9.90870541682402        3.52460240949789        1.00611772125010
H          -10.45429786760910        1.19477465008228        0.38047654026506
H          -10.37231865810980       -1.44860380922767       -0.33737837948344
H           -9.68286439759486       -3.73872942503405       -0.96893771513575
H           -7.31175350632257       -4.30716835474900       -1.21250320737725
H           -5.55444113372726       -2.63399322253634       -0.80454848564134
H           -4.69881348728098        1.86378646885717       -1.16764479766828
H           -2.26530541271782        1.94831983759699       -1.17801949939466
H           -0.24545432121991       -1.95388769195303        0.06417734366734
H            5.25873603888295       -3.29034405587593       -0.24966992193424
H            6.92392860735608       -5.08821813516016        0.01116075545855
H            9.24290577246093       -4.54152311896883        0.66917694825700
H            9.87222804720114       -2.19440612686939        1.11156872145618
H            8.21747166185502       -0.40115945224054        0.87668882121330
H            5.90344297735480        3.11841154448466        1.02953785998782
H            7.77688131455150        4.71297240553572        0.77153842183531

          :  Hamiltonian                  GFN2-xTB          :
         :: gradient norm              0.000066182741 Eh/a0 ::
         :: HOMO-LUMO gap              0.727892443927 eV    ::
         :: SCC energy              -108.877965699219 Eh    ::
         :: -> dispersion             -0.086699432483 Eh    ::
         :: -> Gsolv                  -0.050771265239 Eh    ::
         :: repulsion energy           1.919489354990 Eh    ::

    * Orbital Energies and Occupations

         #    Occupation            Energy/Eh            Energy/eV
      -------------------------------------------------------------
         1        2.0000           -0.7378172             -20.0770
       ...           ...                  ...                  ...
        88        2.0000           -0.4211923             -11.4612
        89        2.0000           -0.4175931             -11.3633
        90        2.0000           -0.4145165             -11.2796
        91        2.0000           -0.4117023             -11.2030
        92        2.0000           -0.4100461             -11.1579
        93        2.0000           -0.4091588             -11.1338
        94        2.0000           -0.3979970             -10.8300
        95        2.0000           -0.3944633             -10.7339
        96        2.0000           -0.3885314             -10.5725
        97        1.9999           -0.3742271             -10.1832
        98        1.9584           -0.3687721             -10.0348
        99        1.0417           -0.3628135              -9.8727
       100        1.0000           -0.2887186              -7.8564 (HOMO)
       101        0.0000           -0.2619691              -7.1285 (LUMO)
       102                         -0.2541375              -6.9154
       103                         -0.2411299              -6.5615
       104                         -0.2332351              -6.3466
       105                         -0.2323198              -6.3217
       106                         -0.2315566              -6.3010
       107                         -0.2291313              -6.2350
       108                         -0.2253178              -6.1312
       109                         -0.2194094              -5.9704
       110                         -0.2017903              -5.4910
       111                         -0.1955276              -5.3206
       ...                                ...                  ...
       193                          0.7340745              19.9752
      -------------------------------------------------------------
                  HL-Gap            0.0267495 Eh            0.7279 eV

     #   Z          covCN         q      C6AA      α(0)
     1   6 C        2.919    -0.026    28.661     8.779
     2   6 C        2.918    -0.027    28.688     8.783
     3   6 C        2.922    -0.032    28.787     8.799
     4   6 C        2.974     0.008    27.836     8.654
     5   6 C        3.113     0.077    26.137     8.375
     6   7 N        1.879    -0.333    29.489     8.050
     7   6 C        3.146     0.202    23.489     7.929
     8   6 C        2.946     0.055    26.776     8.487
     9   6 C        2.912    -0.045    29.125     8.849
    10   6 C        2.920    -0.029    28.727     8.789
    11   6 C        2.968    -0.018    28.452     8.749
    12   6 C        2.970     0.010    27.795     8.648
    13   6 C        2.921    -0.036    28.898     8.815
    14   6 C        2.916    -0.041    29.011     8.832
    15   6 C        2.911     0.055    26.756     8.482
    16   7 N        2.799    -0.015    21.534     6.892
    17   6 C        3.070     0.046    26.902     8.505
    18   6 C        2.910    -0.045    29.106     8.846
    19   6 C        2.923    -0.032    28.792     8.799
    20   6 C        2.920    -0.035    28.872     8.811
    21   6 C        2.912    -0.030    28.759     8.794
    22   6 C        3.064    -0.012    28.253     8.716
    23   6 C        3.064    -0.012    28.253     8.716
    24   6 C        2.912    -0.030    28.759     8.794
    25   6 C        2.920    -0.035    28.870     8.811
    26   6 C        2.923    -0.032    28.792     8.799
    27   6 C        2.910    -0.044    29.104     8.846
    28   6 C        3.070     0.046    26.903     8.505
    29   6 C        2.916    -0.041    29.020     8.834
    30   6 C        2.921    -0.035    28.868     8.811
    31   6 C        2.893     0.065    26.534     8.445
    32   7 N        1.838    -0.255    27.480     7.769
    33   8 O        1.719    -0.244    18.046     5.736
    34   6 C        3.039     0.099    25.762     8.325
    35   6 C        2.967     0.000    28.017     8.682
    36   6 C        2.924    -0.029    28.722     8.789
    37   6 C        2.915    -0.027    28.683     8.782
    38   6 C        2.918    -0.029    28.735     8.790
    39   6 C        2.916    -0.027    28.674     8.781
    40   6 C        2.920    -0.037    28.921     8.819
    41   6 C        2.926    -0.025    28.627     8.774
    42   6 C        2.918    -0.027    28.679     8.782
    43   1 H        0.926     0.044     2.403     2.424
    44   1 H        0.926     0.043     2.413     2.429
    45   1 H        0.926     0.036     2.506     2.475
    46   1 H        0.926     0.045     2.389     2.417
    47   1 H        0.926     0.040     2.443     2.444
    48   1 H        0.926     0.040     2.455     2.450
    49   1 H        0.926     0.047     2.360     2.403
    50   1 H        0.926     0.041     2.438     2.442
    51   1 H        0.926     0.039     2.463     2.454
    52   1 H        0.926     0.038     2.477     2.461
    53   1 H        0.926     0.040     2.444     2.445
    54   1 H        0.926     0.040     2.443     2.444
    55   1 H        0.926     0.038     2.477     2.461
    56   1 H        0.926     0.039     2.466     2.455
    57   1 H        0.926     0.040     2.443     2.444
    58   1 H        0.926     0.047     2.355     2.400
    59   1 H        0.926     0.044     2.402     2.423
    60   1 H        0.925     0.037     2.485     2.465
    61   1 H        0.926     0.042     2.425     2.435
    62   1 H        0.926     0.039     2.464     2.455
    63   1 H        0.926     0.040     2.442     2.444
    64   1 H        0.926     0.041     2.437     2.441
    65   1 H        0.926     0.038     2.479     2.462
    66   1 H        0.926     0.043     2.404     2.425
    67   1 H        0.926     0.043     2.414     2.430

molecular dipole:
                 x           y           z       tot (Debye)
 q only:       -1.951       0.318       0.005
   full:       -2.019       0.249       0.017       5.171

 projected vibrational frequencies (cm⁻¹)
eigval :       -0.00    -0.00    -0.00     0.00     0.00     0.00
eigval :        6.96    13.48    16.04    30.51    35.58    39.41
eigval :       43.05    56.96    62.31    78.25    88.93    95.08
eigval :      103.17   113.25   115.89   136.37   144.38   147.76
eigval :      174.71   204.72   206.14   235.10   245.45   268.01
eigval :      270.34   272.58   287.84   313.02   345.13   365.07
eigval :      375.17   377.20   377.70   388.96   390.23   397.10
eigval :      399.06   420.22   428.68   436.98   452.95   454.79
eigval :      494.16   500.16   507.90   515.38   536.66   542.74
eigval :      565.55   578.12   582.07   585.09   590.06   592.47
eigval :      613.14   617.97   627.67   647.09   650.40   658.99
eigval :      667.31   675.28   681.18   682.42   688.36   709.95
eigval :      718.60   747.33   750.39   758.52   764.09   771.86
eigval :      780.13   781.26   810.74   842.22   852.20   857.82
eigval :      870.80   872.41   874.27   885.72   895.25   898.00
eigval :      902.55   903.75   904.84   908.13   918.17   918.61
eigval :      922.87   923.40   925.92   929.58   929.88   931.84
eigval :      933.66   934.60   943.11   963.51   995.07   999.90
eigval :     1010.12  1038.75  1051.40  1068.37  1068.69  1071.97
eigval :     1077.24  1081.01  1112.30  1116.13  1117.51  1129.87
eigval :     1140.71  1146.27  1162.75  1173.40  1174.84  1176.91
eigval :     1177.94  1178.81  1188.50  1195.45  1205.15  1226.39
eigval :     1228.38  1239.32  1251.60  1262.37  1265.11  1275.07
eigval :     1277.65  1279.32  1286.25  1291.53  1304.01  1318.06
eigval :     1324.23  1328.44  1343.71  1344.05  1348.67  1357.57
eigval :     1367.76  1395.36  1413.55  1413.64  1416.87  1427.05
eigval :     1427.32  1429.90  1441.38  1459.66  1466.64  1471.80
eigval :     1479.67  1480.65  1491.18  1522.17  1530.87  1556.40
eigval :     1567.39  1571.45  1573.08  1578.33  1580.45  1580.49
eigval :     1589.54  1601.10  3038.58  3074.70  3075.01  3077.35
eigval :     3077.62  3077.81  3078.76  3079.22  3084.54  3084.62
eigval :     3085.44  3085.81  3087.35  3089.81  3091.63  3093.20
eigval :     3094.37  3095.22  3097.67  3098.39  3098.97  3099.83
eigval :     3100.72  3104.91  3105.21

   temp. (K)  partition function   enthalpy   heat capacity  entropy
                                   cal/mol     cal/K/mol   cal/K/mol   J/K/mol
 298.15  VIB  0.136E+16            19103.212    121.463    119.291
         ROT  0.881E+08              888.752      2.981     39.335
         INT  0.120E+24            19991.965    124.443    158.626
         TR   0.121E+29             1481.254      4.968     44.722
         TOT                       21473.2187   129.4116   203.3484   850.8096

       T/K    H(0)-H(T)+PV         H(T)/Eh          T*S/Eh         G(T)/Eh
   ------------------------------------------------------------------------
    298.15    0.342198E-01    0.539681E+00    0.966174E-01    0.443064E+00
   ------------------------------------------------------------------------

         :::::::::::::::::::::::::::::::::::::::::::::::::::::
         ::                  THERMODYNAMIC                  ::
         :::::::::::::::::::::::::::::::::::::::::::::::::::::
         :: total free energy        -106.515412567658 Eh   ::
         ::.................................................::
         :: total energy             -106.958476343008 Eh   ::
         :: zero point energy           0.505461393340 Eh   ::
         :: G(RRHO) w/o ZPVE           -0.062397617990 Eh   ::
         :: G(RRHO) contrib.            0.443063775350 Eh   ::
         :::::::::::::::::::::::::::::::::::::::::::::::::::::

           -------------------------------------------------
          | TOTAL ENERGY             -106.958476343008 Eh   |
          | TOTAL ENTHALPY           -106.418795197456 Eh   |
          | TOTAL FREE ENERGY        -106.515412567658 Eh   |
          | GRADIENT NORM               0.000066195434 Eh/α |
          | HOMO-LUMO GAP               0.727891584635 eV   |
           -------------------------------------------------

 * finished run on 2025/07/18 at 15:28:03.333
