   * xtb version 6.7.1 (edcfbbe) compiled by 'albert@albert-system' on 2024-07-22

   ID    Z sym.   atoms
    1    6 C      1-5, 7-15, 17-31, 34-42
    2    7 N      6, 16, 32
    3    8 O      33
    4    1 H      43-67

          program call               : xtb data2507/toluene/CzPh-PPO/CzPh-PPO_toluene_S0_crest.xyz --gfn 2 --gbsa toluene --ohess vtight --parallel 40 --molden --ceasefiles --namespace data2507/toluene/CzPh-PPO/CzPh-PPO_toluene_S0_finalOpt
      * Solvation model:               GBSA
        Solvent                        toluene
        Solvent mass                       9.2140E+01 g/mol
          :  Hamiltonian                  GFN2-xTB          :
 * total energy  :  -107.0380463 Eh     change       -0.1052129E-08 Eh
 * total energy  :  -107.0380787 Eh     change       -0.3236141E-04 Eh
 * total energy  :  -107.0380927 Eh     change       -0.1400197E-04 Eh
 * total energy  :  -107.0380984 Eh     change       -0.5774048E-05 Eh
 * total energy  :  -107.0381037 Eh     change       -0.5306291E-05 Eh
 * total energy  :  -107.0381086 Eh     change       -0.4851514E-05 Eh
 * total energy  :  -107.0381133 Eh     change       -0.4695681E-05 Eh
 * total energy  :  -107.0381178 Eh     change       -0.4541977E-05 Eh
 * total energy  :  -107.0381214 Eh     change       -0.3586408E-05 Eh
 * total energy  :  -107.0381245 Eh     change       -0.3062029E-05 Eh
 * total energy  :  -107.0381531 Eh     change       -0.5267390E-06 Eh
 * total energy  :  -107.0381536 Eh     change       -0.5143642E-06 Eh
 * total energy  :  -107.0381541 Eh     change       -0.5347123E-06 Eh
 * total energy  :  -107.0381547 Eh     change       -0.5762371E-06 Eh
 * total energy  :  -107.0381553 Eh     change       -0.6158433E-06 Eh
 * total energy  :  -107.0381560 Eh     change       -0.6428858E-06 Eh
 * total energy  :  -107.0381566 Eh     change       -0.6486559E-06 Eh
 * total energy  :  -107.0381572 Eh     change       -0.6145285E-06 Eh
 * total energy  :  -107.0381572 Eh     change       -0.2408655E-08 Eh
   *** GEOMETRY OPTIMIZATION CONVERGED AFTER 44 ITERATIONS ***

 final structure:
================
67
 xtb: 6.7.1 (edcfbbe)
C            8.96684954983734        3.41063361635076       -0.26073928646315
C            9.04856784650288        2.17296647657100       -0.87928677980447
C            7.99068356469441        1.28573752227735       -0.80745480035103
C            6.83611477447754        1.62935045365661       -0.10647958540005
C            5.69524756248332        0.72557923107959       -0.03110702166460
N            4.42026295407128        1.21387796554048       -0.05199560108432
C            3.63666731153147        0.17026777526455       -0.03427749868796
C            2.19046218374103        0.20630451711800       -0.04755402736919
C            1.52410433127373        1.43334099637833       -0.12397534276147
C            0.14519667853697        1.43523815066192       -0.12041013585851
C           -0.54528397881845        0.22264177805511       -0.03967078060759
C           -2.00945412350227        0.16618617142008       -0.02637303049340
C           -2.68042084176218       -0.72759831983623        0.80802088378770
C           -4.05941348967887       -0.77672845250779        0.82770595653134
C           -4.80287575703044        0.05642331211390       -0.00573785511931
N           -6.20213100297240        0.00121797098737        0.00475636092756
C           -7.05373200235499        1.08341480121919        0.12165961519208
C           -6.75735133155489        2.42703759587420        0.30372926674313
C           -7.81292398918429        3.31167435495660        0.42006449855043
C           -9.13582319435013        2.87694425706258        0.36855394588356
C           -9.43703983496293        1.53824209522817        0.21365174639512
C           -8.39279902902648        0.62999184642408        0.09349948895632
C           -8.33750912914134       -0.79812163497259       -0.05433126548658
C           -9.30863471641317       -1.78558812543811       -0.16197774380733
C           -8.90503362676074       -3.09635472647345       -0.32248966182851
C           -7.55281367302330       -3.42562827311392       -0.39212634945075
C           -6.56855592007700       -2.46080006970814       -0.28891554434606
C           -6.96740403685495       -1.14474052550689       -0.10117436921305
C           -4.13965732319647        0.94497053509013       -0.84943648533540
C           -2.76094832392111        1.00431178737125       -0.84978202054114
C            0.22711640445663       -0.94089703163415        0.02331902202855
N            1.54292747995601       -0.95735316814270        0.01949227608745
O            4.30744996550773       -0.99154628030282        0.00236527458488
C            5.62299365492988       -0.65754480688027        0.01536965951176
C            6.60592320934499       -1.72104851897025        0.11766010014994
C            6.30312405898475       -2.98625018788083       -0.38836769806566
C            7.22234437899282       -4.01343139808343       -0.29048996365449
C            8.44784189859903       -3.79593079553328        0.31861487611404
C            8.74686165159137       -2.54662098043869        0.84039601789621
C            7.83459154252525       -1.51314303726906        0.74595938917295
C            6.75256601059972        2.88308889163835        0.49577003768779
C            7.81464992444059        3.76496734913289        0.42228278802856
H            9.79664357818390        4.09968849491918       -0.31719973773626
H            9.93964140204176        1.89875903810162       -1.42494700824409
H            8.05007018243897        0.32805923485129       -1.30327293044199
H            2.10195801598822        2.34145915121748       -0.17791859155880
H           -0.39975363426569        2.36703124097531       -0.15827449639879
H           -2.11486199424168       -1.36606290660163        1.47020215517799
H           -4.56986846312879       -1.44940715588518        1.50048596132031
H           -5.73658355045202        2.77296415082831        0.36398185614813
H           -7.60754589252708        4.36330923932564        0.55834451130483
H           -9.93343377915654        3.59956967232961        0.46091105702532
H          -10.46209153985624        1.19937325250491        0.19089195861161
H          -10.35676177545411       -1.52834016377730       -0.12546186326590
H           -9.64421863817896       -3.87971963526590       -0.40520415961555
H           -7.26716918517997       -4.45782420549844       -0.53430968064337
H           -5.52462433106046       -2.72545073592622       -0.36358756857501
H           -4.71132950077930        1.57555001092357       -1.51372585915680
H           -2.25794628571134        1.68468271742269       -1.52065863420747
H           -0.24281927469382       -1.91531919165848        0.06135236003911
H            5.34539425716818       -3.14958377012707       -0.86041884067594
H            6.98130704865110       -4.98703935215516       -0.69126329888652
H            9.16568666892440       -4.59926493544783        0.39254507525131
H            9.69537196229756       -2.37753704491261        1.32832544412961
H            8.06100424943013       -0.54560118460530        1.16715237203769
H            5.84723218455538        3.14871204813448        1.02036695557569
H            7.74298495631228        4.73206691724472        0.89838257474891

          :  Hamiltonian                  GFN2-xTB          :
         :: gradient norm              0.000047334163 Eh/a0 ::
         :: HOMO-LUMO gap              2.066133916554 eV    ::
         :: SCC energy              -108.973121210980 Eh    ::
         :: -> dispersion             -0.086622384001 Eh    ::
         :: -> Gsolv                  -0.047971280051 Eh    ::
         :: repulsion energy           1.934963973619 Eh    ::

    * Orbital Energies and Occupations

         #    Occupation            Energy/Eh            Energy/eV
      -------------------------------------------------------------
         1        2.0000           -0.7572707             -20.6064
       ...           ...                  ...                  ...
        87        2.0000           -0.4205574             -11.4439
        88        2.0000           -0.4195003             -11.4152
        89        2.0000           -0.4170819             -11.3494
        90        2.0000           -0.4136541             -11.2561
        91        2.0000           -0.4125833             -11.2270
        92        2.0000           -0.4077665             -11.0959
        93        2.0000           -0.4061828             -11.0528
        94        2.0000           -0.4055233             -11.0349
        95        2.0000           -0.4024360             -10.9508
        96        2.0000           -0.3803455             -10.3497
        97        2.0000           -0.3796098             -10.3297
        98        2.0000           -0.3786095             -10.3025
        99        2.0000           -0.3635527              -9.8928 (HOMO)
       100                         -0.2876237              -7.8266 (LUMO)
       101                         -0.2607313              -7.0949
       102                         -0.2550839              -6.9412
       103                         -0.2467346              -6.7140
       104                         -0.2374124              -6.4603
       105                         -0.2363272              -6.4308
       106                         -0.2306266              -6.2757
       107                         -0.2254743              -6.1355
       108                         -0.2229760              -6.0675
       109                         -0.2212244              -6.0198
       110                         -0.1957964              -5.3279
       ...                                ...                  ...
       193                          0.7431322              20.2217
      -------------------------------------------------------------
                  HL-Gap            0.0759290 Eh            2.0661 eV

     #   Z          covCN         q      C6AA      α(0)
     1   6 C        2.919    -0.029    28.730     8.790
     2   6 C        2.919    -0.028    28.710     8.787
     3   6 C        2.923    -0.035    28.879     8.813
     4   6 C        2.973     0.007    27.869     8.659
     5   6 C        3.133     0.057    26.526     8.431
     6   7 N        1.890    -0.319    29.109     7.998
     7   6 C        3.201     0.210    23.079     7.828
     8   6 C        2.963     0.079    26.227     8.400
     9   6 C        2.917    -0.043    29.064     8.840
    10   6 C        2.931    -0.016    28.421     8.743
    11   6 C        2.972     0.004    27.934     8.669
    12   6 C        2.975     0.006    27.882     8.661
    13   6 C        2.924    -0.032    28.796     8.800
    14   6 C        2.920    -0.041    29.030     8.836
    15   6 C        2.912     0.065    26.537     8.447
    16   7 N        2.801    -0.043    22.076     6.978
    17   6 C        3.073     0.047    26.878     8.500
    18   6 C        2.910    -0.052    29.287     8.874
    19   6 C        2.924    -0.035    28.865     8.811
    20   6 C        2.919    -0.042    29.047     8.838
    21   6 C        2.912    -0.035    28.859     8.809
    22   6 C        3.067    -0.018    28.386     8.736
    23   6 C        3.067    -0.018    28.386     8.736
    24   6 C        2.912    -0.035    28.859     8.809
    25   6 C        2.920    -0.042    29.046     8.838
    26   6 C        2.924    -0.035    28.864     8.810
    27   6 C        2.910    -0.052    29.286     8.874
    28   6 C        3.073     0.047    26.878     8.500
    29   6 C        2.920    -0.042    29.041     8.837
    30   6 C        2.924    -0.031    28.781     8.798
    31   6 C        2.912     0.058    26.694     8.472
    32   7 N        1.842    -0.246    27.262     7.738
    33   8 O        1.728    -0.200    17.330     5.621
    34   6 C        3.090     0.098    25.723     8.313
    35   6 C        2.971     0.003    27.959     8.673
    36   6 C        2.925    -0.028    28.694     8.784
    37   6 C        2.918    -0.027    28.675     8.781
    38   6 C        2.919    -0.027    28.681     8.782
    39   6 C        2.919    -0.026    28.659     8.779
    40   6 C        2.922    -0.033    28.828     8.805
    41   6 C        2.926    -0.028    28.697     8.785
    42   6 C        2.918    -0.029    28.715     8.787
    43   1 H        0.926     0.039     2.459     2.452
    44   1 H        0.926     0.039     2.463     2.454
    45   1 H        0.926     0.032     2.552     2.498
    46   1 H        0.926     0.058     2.217     2.328
    47   1 H        0.926     0.055     2.255     2.348
    48   1 H        0.926     0.043     2.410     2.428
    49   1 H        0.926     0.048     2.351     2.398
    50   1 H        0.926     0.031     2.571     2.507
    51   1 H        0.926     0.031     2.575     2.509
    52   1 H        0.926     0.028     2.608     2.525
    53   1 H        0.926     0.031     2.574     2.509
    54   1 H        0.926     0.031     2.573     2.508
    55   1 H        0.926     0.028     2.608     2.525
    56   1 H        0.926     0.031     2.577     2.510
    57   1 H        0.926     0.031     2.576     2.510
    58   1 H        0.926     0.048     2.345     2.395
    59   1 H        0.926     0.046     2.373     2.409
    60   1 H        0.925     0.046     2.375     2.410
    61   1 H        0.926     0.042     2.421     2.433
    62   1 H        0.926     0.042     2.429     2.437
    63   1 H        0.926     0.043     2.413     2.429
    64   1 H        0.926     0.043     2.408     2.427
    65   1 H        0.926     0.039     2.465     2.455
    66   1 H        0.926     0.043     2.413     2.429
    67   1 H        0.926     0.039     2.464     2.454

molecular dipole:
                 x           y           z       tot (Debye)
 q only:        0.503       0.120       0.011
   full:        0.368       0.080      -0.007       0.958

 projected vibrational frequencies (cm⁻¹)
eigval :       -0.00    -0.00    -0.00     0.00     0.00     0.00
eigval :        9.70    12.91    16.38    33.32    39.59    42.00
eigval :       43.17    54.42    62.84    76.28    84.62    91.75
eigval :      102.28   111.46   119.11   127.65   140.62   146.07
eigval :      187.44   204.89   228.67   238.48   251.99   266.32
eigval :      269.46   275.69   297.72   330.05   360.04   370.82
eigval :      377.47   378.65   384.59   387.01   394.94   398.49
eigval :      417.71   422.60   436.10   440.19   467.67   489.10
eigval :      506.52   516.80   522.92   533.17   540.51   543.49
eigval :      567.46   582.37   586.89   592.22   596.05   610.85
eigval :      618.67   636.40   656.99   658.51   666.25   672.29
eigval :      679.77   690.59   693.29   696.22   707.67   723.99
eigval :      729.87   755.56   762.05   765.69   769.04   780.07
eigval :      788.02   816.45   840.79   866.52   873.92   876.46
eigval :      879.70   880.02   897.01   899.36   901.46   903.14
eigval :      903.37   907.71   919.78   920.68   926.81   928.49
eigval :      930.04   930.22   931.13   932.22   936.58   936.64
eigval :      942.09   965.43   975.30  1000.86  1011.07  1020.83
eigval :     1023.23  1069.39  1072.29  1079.26  1079.83  1081.11
eigval :     1101.50  1116.19  1116.53  1118.29  1119.72  1135.04
eigval :     1141.64  1151.13  1174.78  1177.75  1179.88  1180.17
eigval :     1182.46  1189.05  1195.54  1202.12  1205.15  1234.60
eigval :     1237.83  1242.12  1245.32  1266.73  1276.68  1280.36
eigval :     1280.89  1287.81  1298.95  1299.73  1313.56  1316.74
eigval :     1319.79  1327.51  1355.26  1359.58  1363.51  1365.38
eigval :     1379.58  1408.45  1424.12  1426.63  1427.45  1430.49
eigval :     1438.95  1451.12  1473.50  1481.60  1486.06  1496.40
eigval :     1533.78  1535.62  1554.41  1557.82  1565.18  1573.31
eigval :     1576.40  1580.29  1586.92  1591.51  1592.77  1596.65
eigval :     1596.80  1612.10  3054.19  3071.00  3071.67  3073.07
eigval :     3076.17  3076.77  3076.89  3077.64  3080.36  3080.42
eigval :     3083.30  3084.57  3084.74  3085.10  3086.06  3087.50
eigval :     3090.91  3091.46  3093.27  3093.57  3095.15  3096.85
eigval :     3097.29  3099.38  3112.67

   temp. (K)  partition function   enthalpy   heat capacity  entropy
                                   cal/mol     cal/K/mol   cal/K/mol   J/K/mol
 298.15  VIB  0.662E+15            18799.225    119.540    117.526
         ROT  0.879E+08              888.752      2.981     39.331
         INT  0.582E+23            19687.978    122.521    156.857
         TR   0.121E+29             1481.254      4.968     44.722
         TOT                       21169.2315   127.4887   201.5795   843.4085

       T/K    H(0)-H(T)+PV         H(T)/Eh          T*S/Eh         G(T)/Eh
   ------------------------------------------------------------------------
    298.15    0.337353E-01    0.543263E+00    0.957769E-01    0.447486E+00
   ------------------------------------------------------------------------

         :::::::::::::::::::::::::::::::::::::::::::::::::::::
         ::                  THERMODYNAMIC                  ::
         :::::::::::::::::::::::::::::::::::::::::::::::::::::
         :: total free energy        -106.590670964725 Eh   ::
         ::.................................................::
         :: total energy             -107.038157233985 Eh   ::
         :: zero point energy           0.509527861158 Eh   ::
         :: G(RRHO) w/o ZPVE           -0.062041591898 Eh   ::
         :: G(RRHO) contrib.            0.447486269260 Eh   ::
         :::::::::::::::::::::::::::::::::::::::::::::::::::::

           -------------------------------------------------
          | TOTAL ENERGY             -107.038157233985 Eh   |
          | TOTAL ENTHALPY           -106.494894055024 Eh   |
          | TOTAL FREE ENERGY        -106.590670964725 Eh   |
          | GRADIENT NORM               0.000047333893 Eh/α |
          | HOMO-LUMO GAP               2.066133911172 eV   |
           -------------------------------------------------

 * finished run on 2025/07/18 at 15:27:55.031
