   * xtb version 6.7.1 (edcfbbe) compiled by 'albert@albert-system' on 2024-07-22

   ID    Z sym.   atoms
    1    6 C      1-7, 9-13, 15-20, 22-27, 29, 30, 32, 34-39, 41-50, 52-62
    2    7 N      8, 14, 28, 31, 33, 51
    3    8 O      21, 40
    4    1 H      63-94

          program call               : xtb data2507/gas/BPZPP/BPZPP_gas_S0_finalOpt.xtbopt.xyz --gfn 2 --spinpol --tblite --uhf 2 --ohess vtight --parallel 40 --molden --ceasefiles --namespace data2507/gas/BPZPP/BPZPP_gas_T1_preOpt
 * total energy  :  -157.6808140 Eh     change        0.6712639E-07 Eh
 * total energy  :  -157.6839056 Eh     change       -0.3091626E-02 Eh
 * total energy  :  -157.6850238 Eh     change       -0.1118245E-02 Eh
 * total energy  :  -157.6851740 Eh     change       -0.1501615E-03 Eh
 * total energy  :  -157.6852385 Eh     change       -0.6453151E-04 Eh
 * total energy  :  -157.6852491 Eh     change       -0.1060202E-04 Eh
 * total energy  :  -157.6852613 Eh     change       -0.1217244E-04 Eh
 * total energy  :  -157.6852754 Eh     change       -0.1406767E-04 Eh
 * total energy  :  -157.6852896 Eh     change       -0.1421739E-04 Eh
 * total energy  :  -157.6853016 Eh     change       -0.1200736E-04 Eh
 * total energy  :  -157.6854358 Eh     change       -0.2064137E-06 Eh
 * total energy  :  -157.6854360 Eh     change       -0.1752470E-06 Eh
 * total energy  :  -157.6854362 Eh     change       -0.1517298E-06 Eh
 * total energy  :  -157.6854363 Eh     change       -0.1448673E-06 Eh
 * total energy  :  -157.6854370 Eh     change       -0.6834136E-06 Eh
 * total energy  :  -157.6854371 Eh     change       -0.1281393E-06 Eh
 * total energy  :  -157.6854372 Eh     change       -0.1205321E-06 Eh
 * total energy  :  -157.6854374 Eh     change       -0.1269927E-06 Eh
 * total energy  :  -157.6854374 Eh     change       -0.4315410E-08 Eh
   *** GEOMETRY OPTIMIZATION CONVERGED AFTER 94 ITERATIONS ***

 final structure:
================
94
 xtb: 6.7.1 (edcfbbe)
C            9.86204804935322        3.06777970505252        0.43736629380191
C            8.91960266412458        3.36924961855386       -0.53115240790976
C            7.76144789727681        2.62069730287887       -0.63003198256412
C            7.53352922215450        1.55165711021344        0.23268225691618
C            6.29493638926747        0.76380137191400        0.12851251269082
C            5.07874876308841        1.43250003371787        0.07509139531434
C            3.86481467508213        0.75597832095548        0.02792660359632
N            2.68969633899849        1.38177255663322       -0.00926055427577
C            1.54003862462544        0.72043913502277       -0.04993406650604
C            0.29386135134272        1.40051471101324       -0.08753259559782
C            0.22000804077714        2.80755275829614       -0.05669398499211
C           -0.99819412213814        3.42565966252234       -0.05692755305400
C           -2.16196845548510        2.62018499079009       -0.09307095280515
N           -3.42070070979968        3.22497842037645       -0.02231836221349
C           -4.40490378080881        2.79675332764557        0.88325509112247
C           -4.37435705728977        1.55572534417012        1.50735432099697
C           -5.34358868473610        1.20587911288537        2.43249267211077
C           -6.36607080275884        2.08197216957474        2.74457563660990
C           -6.41756876884266        3.31930941173343        2.12466436018190
C           -5.44567472959254        3.67961310470019        1.20670658015695
O           -5.55346737998235        4.93169320034508        0.65446024084706
C           -4.74869419989063        5.20802383294126       -0.41570231088510
C           -5.01878866468763        6.35684517353669       -1.14027848426479
C           -4.25342745722271        6.67557539135291       -2.24979147339467
C           -3.23999657736276        5.82415775145531       -2.65074387724240
C           -2.96651902358986        4.67450224346239       -1.92998645554981
C           -3.69015996921227        4.36630697391864       -0.78206759644337
N           -2.11154718512040        1.31114486822958       -0.15168343454745
C           -0.93014333891212        0.68973255038777       -0.14282999781548
C           -0.91188088097427       -0.74505477992467       -0.17895072730100
N           -2.07298682644706       -1.39046516526087       -0.28899573437073
C           -2.10166312613276       -2.70693468163838       -0.30429549240624
N           -3.33078083415232       -3.31620128348605       -0.42837761489032
C           -4.55175992184028       -2.66985974786219       -0.12469932312555
C           -4.81626107651628       -1.33928696781105       -0.41855025559334
C           -6.03191797505725       -0.77818858949812       -0.06205929223836
C           -6.99305278203010       -1.53017989668150        0.58740853559847
C           -6.75584707369359       -2.86778572806486        0.85367334719926
C           -5.54770103598278       -3.43799742195467        0.48935952876354
O           -5.37620096237909       -4.78223778872408        0.73525992357133
C           -4.48135950665670       -5.40676770201756       -0.09075728694434
C           -4.61910195045545       -6.76812745751743       -0.31045998758821
C           -3.76208786259842       -7.41535334813614       -1.18374357420561
C           -2.80079997447721       -6.69453441321194       -1.87058728540892
C           -2.65734823741221       -5.33562729361676       -1.65031713023343
C           -3.46187364009491       -4.68616222850993       -0.72134683526199
C           -0.91917976117968       -3.47677128221873       -0.13518938871406
C            0.27850020883952       -2.82892515145940       -0.05184762966701
C            0.32705192691191       -1.42094015094178       -0.10269979118072
C            1.55745741679895       -0.71187172861186       -0.04608698530762
N            2.71978605115545       -1.34350399196604        0.00738588599413
C            3.88154167082837       -0.68993314319186        0.04149374892995
C            5.10965873403666       -1.33813845683177        0.08886211144309
C            6.31156869183067       -0.64172390924944        0.12306711070382
C            7.57179569668318       -1.40103883495210        0.11040632644544
C            8.58598507261378       -1.08738882887994       -0.79165404962197
C            9.76102126354601       -1.81415919354382       -0.80522899345696
C            9.94303497324548       -2.86391024087017        0.08001576339751
C            8.93707099536933       -3.18971168961235        0.97390199383481
C            7.75813199560476       -2.46770877752556        0.98612933046423
C            8.48327411655120        1.26233354418033        1.20977459110298
C            9.63727007624178        2.01562305032554        1.30980673755307
H           10.76703854073688        3.65233515002568        0.51392042858945
H            9.08837364687694        4.19023934612424       -1.21315223742166
H            7.03292374743766        2.84940019394500       -1.39501252394012
H            5.05484576759704        2.51156251694210        0.09477633575432
H            1.14084863585435        3.36970521114943       -0.00769549428278
H           -1.08479314005083        4.49943095959489        0.00359310033747
H           -3.59167844716852        0.86112946624681        1.25291172383237
H           -5.29471480051130        0.23539644952093        2.90093536570956
H           -7.12328556487818        1.81098386160890        3.46343083626821
H           -7.19836328767783        4.02968160268125        2.34531537569803
H           -5.83104900690348        6.98742300451524       -0.81609164422527
H           -4.46236020339682        7.57696315727816       -2.80389024977282
H           -2.65718812582131        6.04814190057103       -3.53070063248447
H           -2.18611175588334        4.00545204012611       -2.25776376768460
H           -4.05740924586725       -0.74308193571630       -0.89312371602291
H           -6.22142843595227        0.25842373271624       -0.29195395279802
H           -7.93207388245392       -1.08491313190501        0.87764582421733
H           -7.49117417183079       -3.48719506602739        1.34233347536646
H           -5.39881859463745       -7.29915984204344        0.21164717202945
H           -3.86263381964083       -8.47758271845752       -1.34270781115125
H           -2.15685093088557       -7.18808665266959       -2.58196501190480
H           -1.91607592670756       -4.77071651818602       -2.19461901971494
H           -0.97170082588367       -4.54914069699437       -0.03870597796962
H            1.20417370111638       -3.37119947233871        0.07286927341787
H            5.11205245716366       -2.41745553990004        0.06784051412815
H            8.44433299248350       -0.27723318021669       -1.49174506299192
H           10.53887618493984       -1.56123865461946       -1.51094949612761
H           10.86427081247833       -3.42766472434915        0.07126332747630
H            9.07231873021785       -4.00891718794895        1.66544663360369
H            6.97942729286683       -2.71510956797359        1.69367836362282
H            8.30724841950226        0.45009697227286        1.89957644650267
H           10.36498332209149        1.78152560794900        2.07313933753025

 projected vibrational frequencies (cm⁻¹)
eigval :       -0.00    -0.00    -0.00     0.00     0.00     0.00
eigval :        9.15    11.93    13.50    20.43    27.22    28.93
eigval :       36.69    42.26    44.92    54.18    58.82    63.16
eigval :       64.63    76.58    80.63    92.84    94.12   100.93
eigval :      106.72   116.02   120.66   135.90   144.50   146.44
eigval :      167.32   185.28   188.54   202.54   212.14   221.38
eigval :      236.59   240.84   250.03   252.78   256.23   272.40
eigval :      283.33   292.75   298.96   303.09   315.67   328.17
eigval :      336.12   356.92   372.72   376.27   376.86   378.54
eigval :      390.93   397.15   398.18   410.34   413.76   416.57
eigval :      427.29   430.03   438.83   445.74   447.73   452.65
eigval :      461.41   474.08   486.66   490.20   503.77   505.48
eigval :      510.73   522.41   527.15   532.16   535.99   543.51
eigval :      558.78   563.05   573.20   580.48   582.68   587.89
eigval :      590.93   593.63   597.69   616.02   617.28   621.98
eigval :      626.91   640.34   646.44   648.55   659.20   666.53
eigval :      669.01   671.94   674.81   678.24   687.26   689.99
eigval :      696.88   699.39   707.77   721.87   729.18   731.42
eigval :      761.05   761.64   774.20   781.73   783.17   784.21
eigval :      788.55   808.00   816.98   825.30   826.89   828.63
eigval :      831.43   854.59   857.07   857.63   868.67   872.41
eigval :      875.62   878.29   878.85   879.32   901.30   901.56
eigval :      902.22   903.27   905.63   908.03   908.48   914.54
eigval :      916.40   917.66   918.53   921.19   923.14   923.51
eigval :      923.89   929.74   929.80   931.07   931.63   935.47
eigval :      960.18   973.32   998.76  1006.58  1065.20  1074.88
eigval :     1078.37  1083.30  1085.13  1085.32  1087.46  1088.90
eigval :     1089.44  1104.17  1108.00  1121.18  1121.51  1122.16
eigval :     1123.45  1138.04  1146.44  1168.87  1170.16  1174.35
eigval :     1174.62  1182.11  1182.14  1182.79  1186.07  1196.90
eigval :     1197.85  1200.43  1201.90  1203.68  1211.44  1223.79
eigval :     1229.59  1236.40  1236.80  1240.31  1241.69  1248.53
eigval :     1249.16  1250.89  1258.65  1272.26  1281.61  1282.15
eigval :     1284.17  1293.54  1300.67  1307.06  1310.37  1316.84
eigval :     1319.84  1320.11  1322.49  1327.88  1335.93  1339.85
eigval :     1348.54  1357.33  1371.39  1388.32  1393.74  1398.17
eigval :     1405.48  1422.49  1427.90  1430.45  1432.18  1440.87
eigval :     1442.42  1450.46  1459.95  1462.94  1465.62  1475.79
eigval :     1480.53  1482.14  1483.31  1487.43  1495.30  1506.74
eigval :     1513.59  1535.77  1549.91  1563.66  1566.71  1572.77
eigval :     1572.84  1575.77  1580.55  1580.96  1584.32  1587.40
eigval :     1593.89  1594.79  1598.37  1599.51  3068.90  3069.01
eigval :     3072.99  3073.43  3079.48  3079.64  3081.50  3082.45
eigval :     3085.74  3086.35  3089.00  3089.39  3089.76  3090.34
eigval :     3091.09  3092.50  3092.54  3092.89  3094.50  3095.53
eigval :     3098.84  3101.41  3102.41  3102.57  3103.74  3105.53
eigval :     3109.12  3110.96  3112.77  3113.80  3125.34  3145.84

   temp. (K)  partition function   enthalpy   heat capacity  entropy
                                   cal/mol     cal/K/mol   cal/K/mol   J/K/mol
 298.15  VIB  0.158E+22            27721.236    177.786    171.445
         ROT  0.210E+09              888.752      2.981     41.067
         INT  0.333E+30            28609.989    180.767    212.512
         TR   0.218E+29             1481.254      4.968     45.884
         TOT                       30091.2426   185.7350   258.3959  1081.1283

       T/K    H(0)-H(T)+PV         H(T)/Eh          T*S/Eh         G(T)/Eh
   ------------------------------------------------------------------------
    298.15    0.479534E-01    0.743855E+00    0.122772E+00    0.621082E+00
   ------------------------------------------------------------------------

         :::::::::::::::::::::::::::::::::::::::::::::::::::::
         ::                  THERMODYNAMIC                  ::
         :::::::::::::::::::::::::::::::::::::::::::::::::::::
         :: total free energy        -157.064355023236 Eh   ::
         ::.................................................::
         :: total energy             -157.685437361054 Eh   ::
         :: zero point energy           0.695901106582 Eh   ::
         :: G(RRHO) w/o ZPVE           -0.074818768764 Eh   ::
         :: G(RRHO) contrib.            0.621082337818 Eh   ::
         :::::::::::::::::::::::::::::::::::::::::::::::::::::

           -------------------------------------------------
          | TOTAL ENERGY             -157.685437361054 Eh   |
          | TOTAL ENTHALPY           -156.941582807045 Eh   |
          | TOTAL FREE ENERGY        -157.064355023236 Eh   |
          | GRADIENT NORM               0.000029177451 Eh/α |
           -------------------------------------------------

 * finished run on 2025/09/11 at 10:20:47.787
