   * xtb version 6.7.1 (edcfbbe) compiled by 'albert@albert-system' on 2024-07-22

   ID    Z sym.   atoms
    1    6 C      1-7, 9-13, 15-20, 22-27, 29, 30, 32, 34-39, 41-50, 52-62
    2    7 N      8, 14, 28, 31, 33, 51
    3    8 O      21, 40
    4    1 H      63-94

          program call               : xtb data2507/gas/BPZPP/BPZPP_gas_S0_crest.xyz --gfn 2 --ohess vtight --parallel 40 --molden --ceasefiles --namespace data2507/gas/BPZPP/BPZPP_gas_S0_finalOpt
          :  Hamiltonian                  GFN2-xTB          :
 * total energy  :  -157.7280584 Eh     change       -0.3814677E-08 Eh
 * total energy  :  -157.7280592 Eh     change       -0.8185672E-06 Eh
 * total energy  :  -157.7280600 Eh     change       -0.7410823E-06 Eh
 * total energy  :  -157.7280618 Eh     change       -0.1849830E-05 Eh
 * total energy  :  -157.7280631 Eh     change       -0.1255828E-05 Eh
 * total energy  :  -157.7280640 Eh     change       -0.9580062E-06 Eh
 * total energy  :  -157.7280653 Eh     change       -0.1236139E-05 Eh
 * total energy  :  -157.7280667 Eh     change       -0.1390658E-05 Eh
 * total energy  :  -157.7280677 Eh     change       -0.9958735E-06 Eh
 * total energy  :  -157.7280684 Eh     change       -0.7870311E-06 Eh
 * total energy  :  -157.7280803 Eh     change       -0.1956360E-06 Eh
 * total energy  :  -157.7280805 Eh     change       -0.1957542E-06 Eh
 * total energy  :  -157.7280807 Eh     change       -0.1879366E-06 Eh
 * total energy  :  -157.7280809 Eh     change       -0.1739880E-06 Eh
 * total energy  :  -157.7280811 Eh     change       -0.1667726E-06 Eh
 * total energy  :  -157.7280812 Eh     change       -0.1721222E-06 Eh
 * total energy  :  -157.7280814 Eh     change       -0.1998883E-06 Eh
 * total energy  :  -157.7280817 Eh     change       -0.2394967E-06 Eh
 * total energy  :  -157.7280817 Eh     change       -0.1649823E-08 Eh
   *** GEOMETRY OPTIMIZATION CONVERGED AFTER 44 ITERATIONS ***

 final structure:
================
94
 xtb: 6.7.1 (edcfbbe)
C            9.86974455902826        3.03542942043754        0.30889130765432
C            8.93871367462194        3.30011916776416       -0.68118456827954
C            7.76937410332247        2.56541148074035       -0.74854982931492
C            7.52108208671705        1.54706451549215        0.16747390683205
C            6.26926015613262        0.77393760378699        0.09421633857058
C            5.07231572141752        1.44031389162857        0.01914108130957
C            3.85095393015920        0.74041678525929        0.00246474063562
N            2.69314058564368        1.41417884354506       -0.06004198897762
C            1.57497286276076        0.71263803678884       -0.06648733359512
C            0.31269254554072        1.40575344636091       -0.10740569813046
C            0.23337705262580        2.80751816186737       -0.09006217395157
C           -0.99280806195406        3.41789109223630       -0.08933835537977
C           -2.14860014129529        2.60717878391221       -0.09659495103228
N           -3.40713322365718        3.19051451338941       -0.01926034725582
C           -4.41171320962854        2.71871615782228        0.85053535701560
C           -4.42508972339425        1.43331256741741        1.37459017259530
C           -5.40462326116885        1.04739658339200        2.27560964781302
C           -6.39560743600996        1.93044581337701        2.65646548848962
C           -6.40447136192325        3.21243300714525        2.13194115180357
C           -5.41963359205461        3.60881441025259        1.24376426487013
O           -5.48426270549979        4.90590556966166        0.79183117018848
C           -4.70828026403262        5.21469544860159       -0.29178194441279
C           -4.98069503655668        6.39531140583494       -0.96251066587652
C           -4.24560507773872        6.74411799402707       -2.08346812231741
C           -3.26454263905660        5.89045999040971       -2.55215992407210
C           -2.99101862078908        4.70821510412445       -1.88510279529207
C           -3.67876351553545        4.37209198417905       -0.72446888878698
N           -2.08097630807695        1.29026411811018       -0.13719651356421
C           -0.89453588301646        0.68856610282526       -0.13883960455405
C           -0.87503044418402       -0.76369217989091       -0.16052234035439
N           -2.03746861183046       -1.39501205293891       -0.27616957466613
C           -2.07577388437618       -2.71802532273600       -0.27893921999713
N           -3.30676832903693       -3.30704340551542       -0.43530616888813
C           -4.52569246533539       -2.61446698276368       -0.23641384725808
C           -4.75367556866841       -1.31518332085929       -0.66641614433203
C           -5.96910934427485       -0.70287689652767       -0.40768849634259
C           -6.96561101633892       -1.37485456743730        0.27565470797138
C           -6.76470791873818       -2.68495561066677        0.67464053146190
C           -5.55571139150954       -3.30626602608525        0.40929411353117
O           -5.41651815452970       -4.62615976578088        0.77869541581188
C           -4.51895475374279       -5.33630578435521        0.02838495384019
C           -4.68838411608635       -6.70691572991690       -0.09074424621399
C           -3.83126021645279       -7.43937065075482       -0.89331205982059
C           -2.83784581619193       -6.79733717771125       -1.61210579475573
C           -2.66163382078467       -5.42981210685179       -1.49092538832775
C           -3.46634141677993       -4.69310784049161       -0.63041819489006
C           -0.90760819226336       -3.48994720562801       -0.06836192378965
C            0.29594881788561       -2.84554292883077        0.02220295154690
C            0.34966691373814       -1.44435900431674       -0.06123075573543
C            1.59172665010024       -0.71989824079491       -0.01991859160700
N            2.72773549252237       -1.39053893992470        0.04929714419041
C            3.86779265133849       -0.68506840618561        0.06639011204008
C            5.10669845853812       -1.35082876720158        0.13144644124705
C            6.28717432180385       -0.65161583318420        0.13627807185153
C            7.56196910884417       -1.38980371011827        0.14758029580550
C            8.55723413135009       -1.10906937546708       -0.78492877817960
C            9.74384208868100       -1.81736291551634       -0.77568746022240
C            9.95547281255198       -2.81189171856775        0.16477902782788
C            8.96780530903671       -3.10388390912419        1.09019770240114
C            7.77651756442796       -2.40216596311092        1.07863198982701
C            8.45891478975612        1.29380651275867        1.16508329480586
C            9.62323737258252        2.03499639620041        1.23448429626897
H           10.78338226726256        3.60895223355881        0.36086926330318
H            9.12461192670113        4.08130453704398       -1.40396949203316
H            7.04762341242730        2.76463536012650       -1.52792169645500
H            5.03937702864668        2.51930286224377       -0.00069179808958
H            1.15008077706444        3.37561894424051       -0.05392054387974
H           -1.08297218869204        4.49228834165119       -0.04539624518986
H           -3.66242713845072        0.73668866250971        1.07046653124112
H           -5.38655531354345        0.04328900037493        2.66992153171235
H           -7.16147373604753        1.63229917106101        3.35538365480429
H           -7.15971199686457        3.93078163483242        2.40893734564490
H           -5.76921644649645        7.02761094447782       -0.58695718750395
H           -4.45413539474563        7.67118122043560       -2.59388347128267
H           -2.70696450786840        6.13733553932557       -3.44238879411718
H           -2.23462653838920        4.03797022738033       -2.26382452388784
H           -3.96846753319028       -0.77919446754285       -1.16881331620753
H           -6.13027383142776        0.31089081829711       -0.73851024445763
H           -7.90420535928363       -0.88812737047464        0.49056429000263
H           -7.52891504659589       -3.24317035862534        1.19188536276961
H           -5.49308449973642       -7.17710338895325        0.45138654062467
H           -3.95690151267972       -8.50774268321059       -0.97424317097111
H           -2.19428221662861       -7.35959455859541       -2.27087082659268
H           -1.89594073449906       -4.92645468663997       -2.06111667393498
H           -0.96739177227497       -4.55989103472119        0.04833443732323
H            1.21650751618760       -3.38877163126629        0.17004849791616
H            5.10234231961280       -2.43032228070084        0.15016909196566
H            8.39251369842149       -0.34163812017992       -1.52690017313363
H           10.50750732131316       -1.59187198170858       -1.50555329722282
H           10.88627380680408       -3.35950576578199        0.17463010619654
H            9.12653123334245       -3.88056180034675        1.82422603056130
H            7.00997814590696       -2.62252138300998        1.80793345620553
H            8.26615515991054        0.52181723885055        1.89548828386382
H           10.34207333749949        1.83075985795203        2.01441348408891

          :  Hamiltonian                  GFN2-xTB          :
         :: gradient norm              0.000027399654 Eh/a0 ::
         :: HOMO-LUMO gap              1.277000525041 eV    ::
         :: SCC energy              -160.487386251552 Eh    ::
         :: -> dispersion             -0.145021706346 Eh    ::
         :: repulsion energy           2.759304571318 Eh    ::

    * Orbital Energies and Occupations

         #    Occupation            Energy/Eh            Energy/eV
      -------------------------------------------------------------
         1        2.0000           -0.7316524             -19.9093
       ...           ...                  ...                  ...
       133        2.0000           -0.4082524             -11.1091
       134        2.0000           -0.4069701             -11.0742
       135        2.0000           -0.4047213             -11.0130
       136        2.0000           -0.4036883             -10.9849
       137        2.0000           -0.3941599             -10.7256
       138        2.0000           -0.3896237             -10.6022
       139        2.0000           -0.3866734             -10.5219
       140        2.0000           -0.3847883             -10.4706
       141        2.0000           -0.3690717             -10.0430
       142        2.0000           -0.3659668              -9.9585
       143        2.0000           -0.3547945              -9.6545
       144        2.0000           -0.3469370              -9.4406
       145        2.0000           -0.3454192              -9.3993 (HOMO)
       146                         -0.2984903              -8.1223 (LUMO)
       147                         -0.2692631              -7.3270
       148                         -0.2658494              -7.2341
       149                         -0.2424457              -6.5973
       150                         -0.2394997              -6.5171
       151                         -0.2376700              -6.4673
       152                         -0.2354097              -6.4058
       153                         -0.2326258              -6.3301
       154                         -0.2290982              -6.2341
       155                         -0.2270735              -6.1790
       156                         -0.2246386              -6.1127
       ...                                ...                  ...
       280                          0.7242776              19.7086
      -------------------------------------------------------------
                  HL-Gap            0.0469289 Eh            1.2770 eV

     #   Z          covCN         q      C6AA      α(0)
     1   6 C        2.920    -0.030    28.751     8.793
     2   6 C        2.919    -0.029    28.727     8.789
     3   6 C        2.925    -0.033    28.834     8.806
     4   6 C        2.979     0.014    27.699     8.633
     5   6 C        2.976     0.009    27.820     8.652
     6   6 C        2.924    -0.048    29.190     8.860
     7   6 C        2.967     0.079    26.237     8.402
     8   7 N        1.848    -0.244    27.223     7.733
     9   6 C        2.961     0.079    26.233     8.401
    10   6 C        2.982    -0.021    28.529     8.762
    11   6 C        2.926    -0.014    28.372     8.735
    12   6 C        2.914    -0.056    29.400     8.891
    13   6 C        2.898     0.150    24.752     8.157
    14   7 N        2.755    -0.061    22.425     7.033
    15   6 C        2.921     0.044    27.002     8.521
    16   6 C        2.922    -0.058    29.441     8.898
    17   6 C        2.920    -0.036    28.886     8.814
    18   6 C        2.919    -0.038    28.935     8.821
    19   6 C        2.920    -0.056    29.387     8.890
    20   6 C        2.890     0.124    25.271     8.242
    21   8 O        1.709    -0.252    18.177     5.756
    22   6 C        2.890     0.128    25.194     8.229
    23   6 C        2.919    -0.056    29.380     8.889
    24   6 C        2.920    -0.037    28.929     8.820
    25   6 C        2.919    -0.038    28.954     8.824
    26   6 C        2.924    -0.053    29.316     8.879
    27   6 C        2.927     0.041    27.084     8.535
    28   7 N        1.850    -0.240    27.123     7.719
    29   6 C        2.966     0.084    26.128     8.384
    30   6 C        2.964     0.085    26.100     8.380
    31   7 N        1.853    -0.251    27.394     7.757
    32   6 C        2.892     0.150    24.735     8.154
    33   7 N        2.758    -0.056    22.317     7.016
    34   6 C        2.933     0.045    26.999     8.521
    35   6 C        2.921    -0.045    29.114     8.848
    36   6 C        2.921    -0.033    28.825     8.804
    37   6 C        2.920    -0.034    28.851     8.808
    38   6 C        2.918    -0.054    29.340     8.883
    39   6 C        2.902     0.126    25.245     8.238
    40   8 O        1.708    -0.253    18.188     5.758
    41   6 C        2.901     0.130    25.145     8.222
    42   6 C        2.918    -0.054    29.334     8.882
    43   6 C        2.920    -0.035    28.865     8.810
    44   6 C        2.919    -0.038    28.950     8.823
    45   6 C        2.922    -0.049    29.206     8.862
    46   6 C        2.934     0.039    27.130     8.542
    47   6 C        2.913    -0.064    29.583     8.919
    48   6 C        2.926    -0.014    28.367     8.734
    49   6 C        2.982    -0.026    28.650     8.780
    50   6 C        2.960     0.080    26.216     8.398
    51   7 N        1.848    -0.245    27.251     7.737
    52   6 C        2.966     0.080    26.222     8.399
    53   6 C        2.924    -0.048    29.196     8.861
    54   6 C        2.976     0.009    27.813     8.651
    55   6 C        2.979     0.014    27.698     8.633
    56   6 C        2.924    -0.030    28.746     8.792
    57   6 C        2.919    -0.029    28.719     8.788
    58   6 C        2.920    -0.030    28.751     8.793
    59   6 C        2.919    -0.029    28.726     8.789
    60   6 C        2.925    -0.033    28.833     8.806
    61   6 C        2.924    -0.030    28.746     8.793
    62   6 C        2.919    -0.029    28.719     8.788
    63   1 H        0.926     0.031     2.569     2.507
    64   1 H        0.926     0.032     2.563     2.503
    65   1 H        0.926     0.032     2.553     2.499
    66   1 H        0.926     0.050     2.314     2.379
    67   1 H        0.926     0.061     2.190     2.314
    68   1 H        0.926     0.041     2.440     2.442
    69   1 H        0.926     0.081     1.965     2.192
    70   1 H        0.926     0.037     2.483     2.464
    71   1 H        0.926     0.039     2.461     2.453
    72   1 H        0.926     0.051     2.308     2.376
    73   1 H        0.926     0.053     2.286     2.365
    74   1 H        0.926     0.041     2.435     2.440
    75   1 H        0.926     0.039     2.457     2.451
    76   1 H        0.926     0.039     2.465     2.455
    77   1 H        0.926     0.084     1.941     2.179
    78   1 H        0.926     0.043     2.415     2.430
    79   1 H        0.926     0.042     2.422     2.434
    80   1 H        0.926     0.053     2.289     2.366
    81   1 H        0.926     0.055     2.256     2.349
    82   1 H        0.926     0.044     2.395     2.420
    83   1 H        0.926     0.042     2.417     2.431
    84   1 H        0.926     0.045     2.379     2.412
    85   1 H        0.926     0.039     2.456     2.451
    86   1 H        0.926     0.058     2.220     2.330
    87   1 H        0.926     0.051     2.313     2.378
    88   1 H        0.926     0.030     2.589     2.516
    89   1 H        0.926     0.031     2.573     2.508
    90   1 H        0.926     0.031     2.569     2.507
    91   1 H        0.926     0.032     2.562     2.503
    92   1 H        0.926     0.032     2.552     2.498
    93   1 H        0.926     0.030     2.590     2.516
    94   1 H        0.926     0.031     2.573     2.508

molecular dipole:
                 x           y           z       tot (Debye)
 q only:       -0.180      -0.384      -0.432
   full:        0.647      -0.372      -0.361       2.106

 projected vibrational frequencies (cm⁻¹)
eigval :       -0.00    -0.00     0.00     0.00     0.00     0.00
eigval :       10.68    11.08    13.44    21.16    27.97    29.39
eigval :       37.33    43.36    44.23    56.83    59.87    60.65
eigval :       64.74    76.51    80.20    92.24    92.85   100.99
eigval :      110.04   115.59   122.09   135.00   145.36   148.61
eigval :      168.32   184.62   199.23   202.13   212.03   220.52
eigval :      233.19   240.69   251.28   254.70   261.41   271.44
eigval :      283.26   289.53   305.20   311.42   317.01   333.66
eigval :      353.24   362.35   372.87   375.21   376.00   383.42
eigval :      392.41   398.62   400.30   409.88   413.58   418.55
eigval :      437.32   440.07   442.41   447.01   448.81   454.04
eigval :      462.30   468.43   481.56   491.64   503.43   508.02
eigval :      511.67   523.39   530.21   533.58   538.70   544.89
eigval :      562.25   566.52   578.47   582.31   585.42   590.69
eigval :      591.51   595.47   600.05   617.92   619.10   630.59
eigval :      646.44   648.32   652.11   658.01   667.20   671.73
eigval :      673.20   676.67   679.23   692.38   698.03   701.63
eigval :      709.46   712.56   729.11   742.04   749.82   763.70
eigval :      765.36   767.01   774.74   782.14   783.68   787.18
eigval :      789.77   810.40   828.56   832.55   839.49   854.19
eigval :      855.17   856.89   859.65   867.81   874.39   876.64
eigval :      877.32   878.68   880.69   882.84   902.18   903.86
eigval :      903.97   904.91   907.90   909.57   912.08   915.16
eigval :      918.31   920.16   920.51   923.44   925.23   929.50
eigval :      930.13   930.28   932.06   932.19   932.49   940.92
eigval :      972.09   981.22  1001.67  1008.45  1067.49  1073.64
eigval :     1083.00  1084.38  1084.76  1086.63  1087.39  1088.35
eigval :     1091.26  1104.34  1105.59  1120.95  1121.83  1122.13
eigval :     1123.74  1141.21  1148.37  1170.06  1170.90  1174.63
eigval :     1175.23  1182.18  1182.19  1182.58  1186.39  1196.57
eigval :     1197.68  1200.35  1200.67  1201.40  1212.99  1224.95
eigval :     1228.09  1237.95  1240.39  1242.20  1249.93  1253.56
eigval :     1254.94  1270.45  1274.86  1282.89  1283.52  1286.18
eigval :     1299.09  1308.04  1309.20  1313.35  1317.16  1319.42
eigval :     1321.47  1325.09  1329.44  1332.42  1338.13  1353.38
eigval :     1361.41  1384.67  1394.63  1407.49  1419.53  1424.42
eigval :     1425.04  1428.53  1429.01  1434.10  1441.34  1443.40
eigval :     1449.03  1463.02  1464.41  1467.42  1475.78  1482.19
eigval :     1485.56  1490.90  1492.23  1496.16  1510.79  1529.31
eigval :     1533.25  1564.01  1570.95  1573.81  1576.02  1576.42
eigval :     1578.04  1579.97  1582.17  1589.62  1590.39  1592.34
eigval :     1595.58  1598.78  1599.44  1601.63  3071.51  3071.59
eigval :     3074.99  3075.45  3081.28  3081.63  3087.16  3087.61
eigval :     3088.33  3089.60  3089.75  3089.97  3091.73  3091.94
eigval :     3092.11  3093.77  3094.04  3095.22  3096.07  3096.49
eigval :     3099.91  3102.61  3102.96  3103.89  3104.12  3106.81
eigval :     3109.84  3110.06  3113.21  3113.35  3127.92  3147.31

   temp. (K)  partition function   enthalpy   heat capacity  entropy
                                   cal/mol     cal/K/mol   cal/K/mol   J/K/mol
 298.15  VIB  0.106E+22            27534.039    176.635    170.309
         ROT  0.208E+09              888.752      2.981     41.046
         INT  0.222E+30            28422.792    179.616    211.355
         TR   0.218E+29             1481.254      4.968     45.884
         TOT                       29904.0457   184.5842   257.2385  1076.2858

       T/K    H(0)-H(T)+PV         H(T)/Eh          T*S/Eh         G(T)/Eh
   ------------------------------------------------------------------------
    298.15    0.476551E-01    0.746344E+00    0.122222E+00    0.624122E+00
   ------------------------------------------------------------------------

         :::::::::::::::::::::::::::::::::::::::::::::::::::::
         ::                  THERMODYNAMIC                  ::
         :::::::::::::::::::::::::::::::::::::::::::::::::::::
         :: total free energy        -157.103959653839 Eh   ::
         ::.................................................::
         :: total energy             -157.728081680296 Eh   ::
         :: zero point energy           0.698689199308 Eh   ::
         :: G(RRHO) w/o ZPVE           -0.074567172851 Eh   ::
         :: G(RRHO) contrib.            0.624122026457 Eh   ::
         :::::::::::::::::::::::::::::::::::::::::::::::::::::

           -------------------------------------------------
          | TOTAL ENERGY             -157.728081680296 Eh   |
          | TOTAL ENTHALPY           -156.981737350779 Eh   |
          | TOTAL FREE ENERGY        -157.103959653839 Eh   |
          | GRADIENT NORM               0.000027390782 Eh/α |
          | HOMO-LUMO GAP               1.277000277093 eV   |
           -------------------------------------------------

 * finished run on 2025/09/11 at 10:20:25.384
