   * xtb version 6.7.1 (edcfbbe) compiled by 'albert@albert-system' on 2024-07-22

   ID    Z sym.   atoms
    1    6 C      1-7, 9-13, 15-20, 22-27, 29, 30, 32, 34-39, 41-50, 52-62
    2    7 N      8, 14, 28, 31, 33, 51
    3    8 O      21, 40
    4    1 H      63-94

          program call               : xtb data2507/gas/BPZPP/BPZPP.xyz --gfn 2 --ohess vtight --parallel 40 --molden --ceasefiles --namespace data2507/gas/BPZPP/BPZPP_gas_S0_preOpt
          :  Hamiltonian                  GFN2-xTB          :
 * total energy  :  -157.6805459 Eh     change       -0.4728463E-08 Eh
 * total energy  :  -157.7035560 Eh     change       -0.2301008E-01 Eh
 * total energy  :  -157.7114165 Eh     change       -0.7860528E-02 Eh
 * total energy  :  -157.7144007 Eh     change       -0.2984155E-02 Eh
 * total energy  :  -157.7168086 Eh     change       -0.2407904E-02 Eh
 * total energy  :  -157.7180902 Eh     change       -0.1281602E-02 Eh
 * total energy  :  -157.7187583 Eh     change       -0.6681025E-03 Eh
 * total energy  :  -157.7192102 Eh     change       -0.4519540E-03 Eh
 * total energy  :  -157.7196666 Eh     change       -0.4563209E-03 Eh
 * total energy  :  -157.7201354 Eh     change       -0.4688569E-03 Eh
 * total energy  :  -157.7280556 Eh     change       -0.1048967E-05 Eh
 * total energy  :  -157.7280566 Eh     change       -0.1007095E-05 Eh
 * total energy  :  -157.7280576 Eh     change       -0.1041795E-05 Eh
 * total energy  :  -157.7280588 Eh     change       -0.1202660E-05 Eh
 * total energy  :  -157.7280602 Eh     change       -0.1324049E-05 Eh
 * total energy  :  -157.7280618 Eh     change       -0.1588903E-05 Eh
 * total energy  :  -157.7280632 Eh     change       -0.1472769E-05 Eh
 * total energy  :  -157.7280645 Eh     change       -0.1275229E-05 Eh
 * total energy  :  -157.7280645 Eh     change       -0.4214371E-08 Eh
   *** GEOMETRY OPTIMIZATION CONVERGED AFTER 152 ITERATIONS ***

 final structure:
================
94
 xtb: 6.7.1 (edcfbbe)
C            9.60154149339740        2.99520078868191       -0.01729373878018
C            8.65228792224730        3.20091999858894       -1.00406961556916
C            7.47794997930151        2.47113673429416       -1.00030505164263
C            7.24259005850251        1.51640039219578       -0.01495995171241
C            5.98552860281077        0.74833528717697       -0.01338320028897
C            4.79090797794681        1.41615824226279       -0.10943837327460
C            3.56577241060510        0.72454986017134       -0.05837393356932
N            2.41064392059138        1.40007945630433       -0.14551026030521
C            1.28889457659205        0.70664887920002       -0.08709531258392
C            0.02977546934429        1.40326342700121       -0.15605070641523
C           -0.04018720177613        2.80315692134178       -0.23786213733469
C           -1.26249590681542        3.42047289907004       -0.26609467777967
C           -2.42285967664278        2.61943788745575       -0.19946969521507
N           -3.67634366585294        3.21779661451245       -0.15332122810225
C           -4.67028829302628        2.82995914019111        0.76787896415657
C           -4.67740105072158        1.59803857625913        1.40758280493152
C           -5.64627329320579        1.29710057172297        2.35157674225302
C           -6.63238110924725        2.21264272370328        2.66185955852166
C           -6.64677263628459        3.44171280485067        2.02306956802654
C           -5.67254241074426        3.75411863015766        1.09082638710878
O           -5.74132483950841        5.00513542567219        0.52434354302030
C           -4.97349208114227        5.21597849182905       -0.58830312621594
C           -5.24823722711458        6.33512986720396       -1.35629655194930
C           -4.52174727363455        6.58330988461362       -2.50926714755259
C           -3.54690759446192        5.68911011503888       -2.91027107739735
C           -3.27106595966829        4.56793964368643       -2.14578995575167
C           -3.95011291212360        4.33543191642511       -0.95505203647651
N           -2.36487384978515        1.30265699379210       -0.14313901885055
C           -1.18204123237446        0.69380443524531       -0.11886015120245
C           -1.17047213933770       -0.75681686369520       -0.04228172894061
N           -2.33781896629002       -1.38770067217358       -0.09837428483951
C           -2.38175668610195       -2.70794488930449       -0.01760183075648
N           -3.61608550488206       -3.30289637894213       -0.11656514032605
C           -4.83250982147813       -2.60596686345938        0.08118392161177
C           -5.07151737909816       -1.32146928134201       -0.38585139367780
C           -6.28371228048293       -0.70347646101606       -0.12483659836354
C           -7.26554453641421       -1.35423647313960        0.59896561246209
C           -7.05390035208919       -2.65024384142053        1.03667129847532
C           -5.84898540959176       -3.27800841575654        0.76845004985343
O           -5.70117900218477       -4.58489471159522        1.17864717157919
C           -4.81451856483201       -5.31819147763061        0.43780449599338
C           -4.98255420890670       -6.69233850547329        0.36736790364107
C           -4.13605672523365       -7.44989296181816       -0.42311178026886
C           -3.15452530615080       -6.83066933013513       -1.17739630355508
C           -2.98002605577933       -5.45954662675782       -1.10518511277304
C           -3.77428539849556       -4.69540963583319       -0.25889626945436
C           -1.21357956718494       -3.47185478728807        0.22107958273343
C           -0.00592674987592       -2.82994433578786        0.25266631004760
C            0.05241894700672       -1.43697872269521        0.08057230884245
C            1.29888536096943       -0.71950473375115        0.05416604217171
N            2.43239364871267       -1.39151174815153        0.14791546840144
C            3.57624128803684       -0.69382594441572        0.09850236584971
C            4.81266250999359       -1.36190212172803        0.18428014966131
C            5.99668743439874       -0.67157482411362        0.12129902277392
C            7.26750662772742       -1.41582948499808        0.15664171566570
C            8.24617033818041       -1.20288374896434       -0.81074386860558
C            9.42892015557263       -1.91689789858105       -0.77771811552801
C            9.65323045049779       -2.84957810819961        0.22135491382945
C            8.68193395467527       -3.07432646713781        1.18219627801910
C            7.49443271976461       -2.36698144704022        1.14738718119063
C            8.19881419554512        1.32260251271315        0.97850162230628
C            9.36825062394251        2.05897826692999        0.97639492386437
H           10.51911170059688        3.56477151770835       -0.02089798971918
H            8.82786895312611        3.93195693211543       -1.77994223969573
H            6.74187801393205        2.62380203328493       -1.77678644046106
H            4.76326350851114        2.49174267150224       -0.19913923570379
H            0.88055924465895        3.36555755450530       -0.25486150138290
H           -1.34624799291085        4.49574833005749       -0.30045112084008
H           -3.91918306346698        0.87511620092712        1.15865835569796
H           -5.62406525560230        0.33302935161374        2.83541858543619
H           -7.39015501002738        1.98050277918982        3.39383554471418
H           -7.39825076451955        4.18348126038434        2.24259126597971
H           -6.03184132964386        7.00022720304974       -1.03039581800713
H           -4.73215504851361        7.46345606438659       -3.09622053284627
H           -2.99609666588316        5.85612643338421       -3.82299546376328
H           -2.51978859454716        3.86494953078620       -2.47159948736124
H           -4.29669986574560       -0.80064785307062       -0.91949468187881
H           -6.45377841212561        0.29824237296636       -0.48639827908032
H           -8.20127350459175       -0.86256438403502        0.81521282643137
H           -7.80669867054728       -3.19272026322327        1.58638159651251
H           -5.77779450362123       -7.14547487943260        0.93726197453554
H           -4.26061519015847       -8.52057538522140       -0.46641079381233
H           -2.51910266549725       -7.41358664643916       -1.82602718943958
H           -2.22318340128206       -4.97433140163642       -1.70234453833096
H           -1.27692951157573       -4.53246019504170        0.40345771521594
H            0.91456465433552       -3.36770261812813        0.41962587783703
H            4.80297644692459       -2.43782282186401        0.27356249854493
H            8.07136030092848       -0.48428034550578       -1.59792357204039
H           10.17961233020491       -1.74439435394663       -1.53497303804989
H           10.58107388172578       -3.40156575774779        0.24929391067442
H            8.85052792920373       -3.80271685191712        1.96209106205681
H            6.74088579561295       -2.53437010794460        1.90380122196775
H            8.01659917722585        0.60125464274155        1.76148526893553
H           10.10143971550328        1.90133636063873        1.75376368593994

          :  Hamiltonian                  GFN2-xTB          :
         :: gradient norm              0.000046820120 Eh/a0 ::
         :: HOMO-LUMO gap              1.272119323265 eV    ::
         :: SCC energy              -160.487289414308 Eh    ::
         :: -> dispersion             -0.144852137132 Eh    ::
         :: repulsion energy           2.759224909858 Eh    ::

    * Orbital Energies and Occupations

         #    Occupation            Energy/Eh            Energy/eV
      -------------------------------------------------------------
         1        2.0000           -0.7314817             -19.9046
       ...           ...                  ...                  ...
       133        2.0000           -0.4084483             -11.1144
       134        2.0000           -0.4071016             -11.0778
       135        2.0000           -0.4048131             -11.0155
       136        2.0000           -0.4038341             -10.9889
       137        2.0000           -0.3941095             -10.7243
       138        2.0000           -0.3897176             -10.6048
       139        2.0000           -0.3867758             -10.5247
       140        2.0000           -0.3849528             -10.4751
       141        2.0000           -0.3695791             -10.0568
       142        2.0000           -0.3661628              -9.9638
       143        2.0000           -0.3546097              -9.6494
       144        2.0000           -0.3469986              -9.4423
       145        2.0000           -0.3455193              -9.4021 (HOMO)
       146                         -0.2987697              -8.1299 (LUMO)
       147                         -0.2695826              -7.3357
       148                         -0.2661000              -7.2410
       149                         -0.2426005              -6.6015
       150                         -0.2394941              -6.5170
       151                         -0.2376650              -6.4672
       152                         -0.2353892              -6.4053
       153                         -0.2325764              -6.3287
       154                         -0.2291293              -6.2349
       155                         -0.2272027              -6.1825
       156                         -0.2245649              -6.1107
       ...                                ...                  ...
       280                          0.7238828              19.6979
      -------------------------------------------------------------
                  HL-Gap            0.0467495 Eh            1.2721 eV

     #   Z          covCN         q      C6AA      α(0)
     1   6 C        2.920    -0.030    28.750     8.793
     2   6 C        2.919    -0.029    28.726     8.789
     3   6 C        2.925    -0.033    28.834     8.806
     4   6 C        2.979     0.014    27.699     8.633
     5   6 C        2.976     0.009    27.819     8.652
     6   6 C        2.924    -0.048    29.190     8.860
     7   6 C        2.967     0.079    26.236     8.402
     8   7 N        1.848    -0.244    27.221     7.733
     9   6 C        2.961     0.079    26.233     8.401
    10   6 C        2.982    -0.021    28.525     8.761
    11   6 C        2.926    -0.014    28.372     8.735
    12   6 C        2.914    -0.056    29.395     8.891
    13   6 C        2.899     0.150    24.749     8.157
    14   7 N        2.755    -0.061    22.430     7.034
    15   6 C        2.921     0.045    27.001     8.521
    16   6 C        2.922    -0.058    29.436     8.897
    17   6 C        2.920    -0.036    28.886     8.814
    18   6 C        2.919    -0.038    28.937     8.821
    19   6 C        2.920    -0.056    29.387     8.890
    20   6 C        2.890     0.124    25.271     8.242
    21   8 O        1.709    -0.252    18.177     5.756
    22   6 C        2.889     0.128    25.196     8.229
    23   6 C        2.919    -0.056    29.380     8.889
    24   6 C        2.920    -0.037    28.931     8.820
    25   6 C        2.919    -0.038    28.953     8.824
    26   6 C        2.924    -0.053    29.319     8.880
    27   6 C        2.927     0.041    27.082     8.534
    28   7 N        1.850    -0.240    27.117     7.718
    29   6 C        2.966     0.084    26.127     8.384
    30   6 C        2.963     0.085    26.101     8.380
    31   7 N        1.853    -0.251    27.383     7.756
    32   6 C        2.892     0.150    24.735     8.154
    33   7 N        2.758    -0.056    22.316     7.016
    34   6 C        2.932     0.044    27.003     8.522
    35   6 C        2.920    -0.046    29.142     8.853
    36   6 C        2.921    -0.033    28.830     8.805
    37   6 C        2.920    -0.034    28.856     8.809
    38   6 C        2.918    -0.054    29.342     8.883
    39   6 C        2.901     0.125    25.248     8.239
    40   8 O        1.708    -0.253    18.190     5.758
    41   6 C        2.901     0.130    25.147     8.222
    42   6 C        2.918    -0.054    29.335     8.882
    43   6 C        2.920    -0.035    28.867     8.811
    44   6 C        2.919    -0.038    28.949     8.823
    45   6 C        2.922    -0.049    29.206     8.862
    46   6 C        2.934     0.039    27.129     8.542
    47   6 C        2.914    -0.063    29.572     8.917
    48   6 C        2.926    -0.014    28.369     8.735
    49   6 C        2.982    -0.026    28.646     8.780
    50   6 C        2.960     0.080    26.216     8.398
    51   7 N        1.848    -0.245    27.249     7.736
    52   6 C        2.966     0.080    26.220     8.399
    53   6 C        2.924    -0.048    29.196     8.861
    54   6 C        2.976     0.009    27.811     8.650
    55   6 C        2.979     0.014    27.698     8.633
    56   6 C        2.924    -0.030    28.746     8.792
    57   6 C        2.919    -0.029    28.719     8.788
    58   6 C        2.920    -0.030    28.750     8.793
    59   6 C        2.919    -0.029    28.726     8.789
    60   6 C        2.925    -0.033    28.832     8.806
    61   6 C        2.924    -0.030    28.746     8.792
    62   6 C        2.919    -0.029    28.718     8.788
    63   1 H        0.926     0.031     2.569     2.506
    64   1 H        0.926     0.032     2.562     2.503
    65   1 H        0.926     0.032     2.553     2.499
    66   1 H        0.926     0.051     2.313     2.378
    67   1 H        0.926     0.061     2.188     2.313
    68   1 H        0.926     0.041     2.438     2.442
    69   1 H        0.926     0.080     1.977     2.199
    70   1 H        0.926     0.038     2.481     2.463
    71   1 H        0.926     0.039     2.462     2.454
    72   1 H        0.926     0.051     2.309     2.376
    73   1 H        0.926     0.053     2.287     2.365
    74   1 H        0.926     0.041     2.436     2.441
    75   1 H        0.926     0.039     2.457     2.451
    76   1 H        0.926     0.039     2.467     2.456
    77   1 H        0.926     0.085     1.927     2.171
    78   1 H        0.926     0.043     2.415     2.430
    79   1 H        0.926     0.042     2.424     2.435
    80   1 H        0.926     0.052     2.290     2.366
    81   1 H        0.926     0.055     2.257     2.349
    82   1 H        0.926     0.044     2.396     2.421
    83   1 H        0.926     0.042     2.417     2.431
    84   1 H        0.926     0.045     2.383     2.414
    85   1 H        0.926     0.039     2.457     2.451
    86   1 H        0.926     0.058     2.219     2.329
    87   1 H        0.926     0.051     2.312     2.378
    88   1 H        0.926     0.030     2.589     2.516
    89   1 H        0.926     0.031     2.573     2.508
    90   1 H        0.926     0.031     2.569     2.506
    91   1 H        0.926     0.032     2.562     2.503
    92   1 H        0.926     0.032     2.551     2.498
    93   1 H        0.926     0.030     2.589     2.516
    94   1 H        0.926     0.031     2.573     2.508

molecular dipole:
                 x           y           z       tot (Debye)
 q only:       -0.152      -0.395      -0.396
   full:        0.676      -0.385      -0.342       2.161

 projected vibrational frequencies (cm⁻¹)
eigval :       -0.00    -0.00    -0.00     0.00     0.00     0.00
eigval :       10.46    11.18    13.43    20.99    27.69    29.35
eigval :       37.25    43.39    44.22    56.18    59.93    60.66
eigval :       64.80    76.60    80.39    92.40    92.99   100.95
eigval :      110.01   115.47   122.01   134.95   145.10   148.42
eigval :      168.08   185.05   199.35   202.26   212.33   220.67
eigval :      233.48   240.77   251.32   254.67   261.05   271.20
eigval :      283.33   289.61   304.65   311.38   316.84   332.83
eigval :      353.44   362.32   372.87   375.23   376.07   383.44
eigval :      392.30   398.56   400.27   410.12   413.58   418.75
eigval :      437.05   439.94   442.00   446.69   448.74   453.86
eigval :      462.29   468.51   481.44   491.59   503.56   508.02
eigval :      511.63   523.20   530.11   533.63   538.47   544.75
eigval :      562.52   566.52   578.36   582.17   585.42   590.75
eigval :      591.49   595.46   600.01   617.89   619.13   630.55
eigval :      646.64   648.43   652.42   658.13   666.98   671.69
eigval :      673.15   676.45   679.10   692.14   698.07   701.52
eigval :      709.54   712.68   729.10   742.16   749.83   763.71
eigval :      765.37   767.06   774.72   782.69   783.63   786.89
eigval :      789.80   810.30   828.55   833.09   839.65   854.20
eigval :      855.20   856.88   859.67   868.53   874.13   876.64
eigval :      877.14   878.69   880.49   882.84   902.55   903.70
eigval :      903.98   904.94   907.76   909.71   912.17   915.22
eigval :      918.21   920.28   920.97   923.41   924.95   929.48
eigval :      930.14   930.28   932.00   932.09   932.50   940.26
eigval :      972.09   981.20  1001.65  1008.45  1067.48  1073.64
eigval :     1083.12  1084.44  1084.83  1086.65  1087.41  1088.43
eigval :     1091.22  1104.20  1105.69  1120.95  1121.87  1122.13
eigval :     1123.80  1141.00  1148.33  1170.16  1170.80  1174.66
eigval :     1175.26  1182.17  1182.18  1182.52  1186.27  1196.66
eigval :     1197.68  1200.36  1200.68  1201.42  1212.85  1224.92
eigval :     1227.95  1237.81  1240.39  1242.22  1249.91  1253.97
eigval :     1254.93  1270.48  1274.81  1282.88  1283.50  1286.13
eigval :     1299.25  1308.14  1308.96  1313.11  1317.13  1319.42
eigval :     1321.64  1325.17  1329.37  1332.37  1338.05  1353.21
eigval :     1361.35  1384.15  1394.64  1407.15  1419.52  1424.38
eigval :     1424.96  1428.49  1428.97  1434.07  1441.28  1443.44
eigval :     1448.93  1462.99  1464.43  1467.40  1476.15  1482.14
eigval :     1485.52  1490.92  1492.36  1496.30  1510.55  1529.22
eigval :     1533.30  1563.88  1570.89  1573.62  1576.00  1576.48
eigval :     1578.03  1579.96  1582.16  1589.56  1590.43  1592.32
eigval :     1595.59  1598.82  1599.43  1601.63  3071.54  3071.64
eigval :     3075.02  3075.49  3081.31  3081.67  3087.20  3087.65
eigval :     3088.35  3089.48  3089.77  3090.08  3091.76  3091.84
eigval :     3092.15  3093.82  3094.09  3094.94  3096.14  3096.31
eigval :     3099.94  3102.73  3103.25  3103.93  3104.06  3106.34
eigval :     3109.91  3110.08  3113.24  3113.39  3127.76  3146.87

   temp. (K)  partition function   enthalpy   heat capacity  entropy
                                   cal/mol     cal/K/mol   cal/K/mol   J/K/mol
 298.15  VIB  0.111E+22            27536.652    176.628    170.341
         ROT  0.209E+09              888.752      2.981     41.050
         INT  0.231E+30            28425.404    179.608    211.391
         TR   0.218E+29             1481.254      4.968     45.884
         TOT                       29906.6582   184.5766   257.2748  1076.4377

       T/K    H(0)-H(T)+PV         H(T)/Eh          T*S/Eh         G(T)/Eh
   ------------------------------------------------------------------------
    298.15    0.476593E-01    0.746337E+00    0.122240E+00    0.624097E+00
   ------------------------------------------------------------------------

         :::::::::::::::::::::::::::::::::::::::::::::::::::::
         ::                  THERMODYNAMIC                  ::
         :::::::::::::::::::::::::::::::::::::::::::::::::::::
         :: total free energy        -157.103967111458 Eh   ::
         ::.................................................::
         :: total energy             -157.728064504449 Eh   ::
         :: zero point energy           0.698677650461 Eh   ::
         :: G(RRHO) w/o ZPVE           -0.074580257471 Eh   ::
         :: G(RRHO) contrib.            0.624097392991 Eh   ::
         :::::::::::::::::::::::::::::::::::::::::::::::::::::

           -------------------------------------------------
          | TOTAL ENERGY             -157.728064504449 Eh   |
          | TOTAL ENTHALPY           -156.981727560495 Eh   |
          | TOTAL FREE ENERGY        -157.103967111458 Eh   |
          | GRADIENT NORM               0.000046823262 Eh/α |
          | HOMO-LUMO GAP               1.272119616458 eV   |
           -------------------------------------------------

 * finished run on 2025/09/11 at 10:11:23.701
