   * xtb version 6.7.1 (edcfbbe) compiled by 'albert@albert-system' on 2024-07-22

   ID    Z sym.   atoms
    1    6 C      1-7, 9-13, 15-20, 22-27, 29, 30, 32, 34-39, 41-50, 52-62
    2    7 N      8, 14, 28, 31, 33, 51
    3    8 O      21, 40
    4    1 H      63-94

          program call               : xtb data2507/gas/BPZPP/BPZPP_gas_T1_crest.xyz --gfn 2 --spinpol --tblite --uhf 2 --ohess vtight --parallel 40 --molden --ceasefiles --namespace data2507/gas/BPZPP/BPZPP_gas_T1_finalOpt
 * total energy  :  -157.6853058 Eh     change        0.5528136E-08 Eh
 * total energy  :  -157.6853487 Eh     change       -0.4284276E-04 Eh
 * total energy  :  -157.6853640 Eh     change       -0.1528243E-04 Eh
 * total energy  :  -157.6853675 Eh     change       -0.3505540E-05 Eh
 * total energy  :  -157.6853700 Eh     change       -0.2560968E-05 Eh
 * total energy  :  -157.6853721 Eh     change       -0.2090989E-05 Eh
 * total energy  :  -157.6853743 Eh     change       -0.2191431E-05 Eh
 * total energy  :  -157.6853764 Eh     change       -0.2129444E-05 Eh
 * total energy  :  -157.6853773 Eh     change       -0.9009047E-06 Eh
 * total energy  :  -157.6853778 Eh     change       -0.4230445E-06 Eh
 * total energy  :  -157.6853781 Eh     change       -0.3571054E-06 Eh
 * total energy  :  -157.6853784 Eh     change       -0.2917627E-06 Eh
 * total energy  :  -157.6853787 Eh     change       -0.2840637E-06 Eh
 * total energy  :  -157.6853790 Eh     change       -0.2918060E-06 Eh
 * total energy  :  -157.6853792 Eh     change       -0.2122401E-06 Eh
 * total energy  :  -157.6853794 Eh     change       -0.1696251E-06 Eh
 * total energy  :  -157.6853794 Eh     change       -0.8832481E-07 Eh
   *** GEOMETRY OPTIMIZATION CONVERGED AFTER 17 ITERATIONS ***

 final structure:
================
94
 xtb: 6.7.1 (edcfbbe)
C            9.90712437295170        2.91994602954495       -0.59331211366691
C            9.70246746354312        1.75791138100410       -1.31893600546819
C            8.53716408240520        1.03298029689972       -1.15878843513494
C            7.55567569529108        1.46126387448137       -0.26783526022072
C            6.30577877892857        0.70268489134896       -0.10116333989972
C            5.09534530887370        1.37888522476001       -0.18610709536514
C            3.87421804855641        0.72071530202236       -0.09502741384636
N            2.70451787475722        1.35438268630057       -0.18787758989276
C            1.54909607077309        0.71142029017872       -0.09640465258905
C            0.30896548157520        1.40220367241681       -0.17090465522111
C            0.24629625856824        2.79921886421837       -0.34706610265750
C           -0.96536494635647        3.42775641917271       -0.38270451547930
C           -2.14024366951248        2.64991197370028       -0.22050201376506
N           -3.38461744837976        3.27257190298065       -0.23789501867085
C           -3.54705410669028        4.52748783554632        0.36465286188942
C           -2.73164685554608        4.95980356975142        1.40589082402460
C           -2.89746507793811        6.21848049298704        1.95705668497056
C           -3.89427400764683        7.05811619536085        1.49369706316605
C           -4.75589362598313        6.61902726798998        0.50279337976135
C           -4.59392780954262        5.35938746317862       -0.05050656854983
O           -5.49376386966046        4.95904478807409       -0.99831673394182
C           -5.53922970208754        3.61132206469984       -1.26305759318412
C           -6.65779749232062        3.14552206948720       -1.93313684873514
C           -6.77030788911109        1.80234076853298       -2.24934477523141
C           -5.75986043868213        0.93128866912441       -1.88763847126043
C           -4.64001223198011        1.39010923658084       -1.21483877485604
C           -4.51004088161420        2.73498292526502       -0.89136900807051
N           -2.09762649012049        1.34510416343671       -0.08046924877517
C           -0.92184820354658        0.71224329405414       -0.07069250747486
C           -0.92002098605793       -0.71514553670450        0.06458929159488
N           -2.09392924196238       -1.35114248714504        0.06989231428216
C           -2.13507853265192       -2.65536238791890        0.21751851681902
N           -3.37751932041007       -3.27965737083606        0.23220543825723
C           -4.51497686728056       -2.72961331054166        0.85530863123246
C           -4.66365803348188       -1.37503492560041        1.12585603839811
C           -5.79528409082881       -0.90474311198054        1.77055896004142
C           -6.79897191784181       -1.77347241798834        2.15583138930657
C           -6.66825965274363       -3.12609595736760        1.89116015539686
C           -5.53805036502927       -3.60328525144832        1.24919052743947
O           -5.47526366524130       -4.95919937427280        1.03311833206703
C           -4.57107695405416       -5.37951385831343        0.09824193008461
C           -4.72263499060984       -6.65497988143751       -0.42086466556313
C           -3.85610886893116       -7.11393679972260       -1.39830670895693
C           -2.86537136200611       -6.27933180125082       -1.88345633059826
C           -2.70998022281913       -5.00498862934828       -1.36636607558953
C           -3.52978981674665       -4.55149608571901       -0.33772117859118
C           -0.95854020587037       -3.42849984179469        0.39290298132851
C            0.25162102000924       -2.79725663911565        0.35772008483715
C            0.31205786886341       -1.40122535680818        0.17261697192365
C            1.55071861588775       -0.70770804518946        0.09850016803443
N            2.70748671507250       -1.34780621346248        0.19097806083851
C            3.87580530524313       -0.71154656845016        0.09742820223125
C            5.09831346476148       -1.36725078664319        0.18675686479281
C            6.30730073838116       -0.68871249841683        0.09957676411755
C            7.55877739055433       -1.44523916579982        0.26357004208440
C            7.76721746975819       -2.62237990010309       -0.45062171016216
C            8.93781707258221       -3.34128147909581       -0.29478107379539
C            9.91269867474147       -2.90095298658081        0.58432318100262
C            9.70798407257616       -1.73922111679602        1.31041766490024
C            8.54146838524162       -1.01572370651467        1.15258769551955
C            7.76392001902529        2.63881839806123        0.44570921679577
C            8.93331109094924        3.35919205145440        0.28751437154234
H           10.82090222054626        3.48253000562905       -0.71606465984538
H           10.45487703795203        1.41531161855656       -2.01431303925069
H            8.37735136786958        0.13374198073129       -1.73530374666754
H            5.08338400825203        2.44537636760784       -0.35286680168225
H            1.17054156718581        3.34471273786493       -0.46765722051743
H           -1.03937079680688        4.49013709253228       -0.55530758453203
H           -1.96210292769835        4.30374926609607        1.78245288884352
H           -2.24337592069515        6.53779374946016        2.75354144116375
H           -4.01708044474843        8.04442457251239        1.91251668517007
H           -5.56126892199189        7.23788203198853        0.14101522082406
H           -7.42257671503331        3.85597939917976       -2.20403499527892
H           -7.64364844834311        1.44679322103077       -2.77351879291810
H           -5.83451466282841       -0.11876157643968       -2.12414580670654
H           -3.85057466289687        0.71025176829701       -0.94447134044854
H           -3.87872295247667       -0.69679746907819        0.83917647281756
H           -5.88432507297698        0.15261162086904        1.96615241937025
H           -7.68127389517273       -1.40886437095374        2.65837705455556
H           -7.42758353048846       -3.83483619625837        2.18125273764662
H           -5.52365764980537       -7.27011396304651       -0.04340845587907
H           -3.97044087466826       -8.11226700039438       -1.79020991233160
H           -2.20785945448795       -6.61513924967189       -2.67028453165245
H           -1.94490579865286       -4.35324714455624       -1.75926735297110
H           -1.02990741955854       -4.48937353623281        0.57541806308624
H            1.17650855320825       -3.33974450618271        0.48673359318420
H            5.08873358490345       -2.43376761935591        0.35348461009650
H            7.01306105432900       -2.96070076765431       -1.14704983978721
H            9.09085957455063       -4.24796628765543       -0.86233271012803
H           10.82737059439513       -3.46245556843424        0.70534838033936
H           10.46131613551892       -1.39573552317085        2.00435549679917
H            8.38165829484801       -0.11669674054122        1.72943607287994
H            7.01066803457708        2.97630414532305        1.14351996680057
H            9.08630140080880        4.26614510309907        0.85465209475256

 projected vibrational frequencies (cm⁻¹)
eigval :       -0.00    -0.00    -0.00    -0.00     0.00     0.00
eigval :        8.92    10.14    13.06    17.39    23.30    28.85
eigval :       36.83    43.17    44.83    45.16    58.54    60.86
eigval :       64.17    64.33    80.37    92.15    96.58    96.84
eigval :      106.31   118.48   121.34   132.79   139.58   149.38
eigval :      157.52   188.63   196.79   203.31   214.23   227.53
eigval :      228.21   241.46   251.86   252.22   262.25   263.14
eigval :      281.60   293.56   298.68   304.20   311.89   319.55
eigval :      338.57   359.00   372.78   375.59   376.07   379.07
eigval :      389.69   394.25   397.82   413.38   415.53   420.56
eigval :      428.24   428.69   437.41   445.69   447.53   451.81
eigval :      463.04   473.81   484.66   489.45   503.15   505.42
eigval :      510.98   523.39   526.63   527.39   535.94   540.77
eigval :      559.38   561.90   571.49   581.91   585.18   585.91
eigval :      589.27   591.17   598.95   615.99   617.32   622.95
eigval :      630.60   641.43   647.88   649.99   658.57   667.17
eigval :      668.85   670.06   675.91   679.48   683.05   687.96
eigval :      695.23   701.33   707.20   721.53   729.70   732.07
eigval :      760.74   761.49   773.32   781.73   783.12   783.31
eigval :      789.85   807.16   819.10   827.68   827.78   829.41
eigval :      831.74   856.56   856.79   857.99   872.57   874.00
eigval :      874.40   877.92   878.51   880.87   901.24   902.43
eigval :      903.32   904.02   905.17   906.68   911.09   914.58
eigval :      916.74   916.88   918.54   919.39   923.27   925.95
eigval :      926.69   929.41   929.47   930.69   931.25   935.62
eigval :      960.58   973.22   998.20  1006.44  1065.58  1074.72
eigval :     1078.19  1084.92  1086.41  1086.59  1087.36  1088.45
eigval :     1088.58  1104.65  1105.84  1120.93  1121.65  1122.22
eigval :     1123.08  1139.92  1140.38  1167.77  1168.15  1173.37
eigval :     1173.85  1181.19  1181.28  1181.30  1184.57  1197.15
eigval :     1199.54  1199.80  1201.19  1202.02  1211.89  1222.54
eigval :     1228.91  1235.77  1236.86  1239.23  1240.63  1248.39
eigval :     1249.08  1249.35  1257.95  1271.42  1280.91  1281.58
eigval :     1282.94  1292.25  1299.54  1305.72  1308.19  1315.17
eigval :     1318.12  1320.03  1320.66  1326.04  1334.73  1338.62
eigval :     1347.26  1356.76  1367.74  1385.52  1388.99  1397.07
eigval :     1403.52  1423.12  1424.71  1430.33  1432.06  1440.38
eigval :     1442.05  1449.32  1458.75  1463.17  1465.20  1475.70
eigval :     1476.13  1481.90  1482.23  1488.08  1492.68  1507.69
eigval :     1512.66  1537.19  1549.59  1557.59  1568.29  1568.51
eigval :     1574.22  1574.36  1580.69  1581.00  1583.39  1586.24
eigval :     1594.10  1594.67  1598.43  1599.56  3068.81  3068.81
eigval :     3072.83  3073.27  3079.31  3079.48  3081.85  3081.88
eigval :     3085.58  3086.17  3089.17  3089.26  3089.80  3090.01
eigval :     3090.16  3090.25  3092.27  3092.67  3095.04  3095.36
eigval :     3097.45  3097.64  3099.39  3099.87  3104.43  3104.66
eigval :     3109.73  3110.03  3113.25  3113.57  3128.36  3135.18

   temp. (K)  partition function   enthalpy   heat capacity  entropy
                                   cal/mol     cal/K/mol   cal/K/mol   J/K/mol
 298.15  VIB  0.387E+22            27778.466    177.473    172.298
         ROT  0.211E+09              888.752      2.981     41.073
         INT  0.817E+30            28667.218    180.454    213.371
         TR   0.218E+29             1481.254      4.968     45.884
         TOT                       30148.4721   185.4224   259.2551  1084.7234

       T/K    H(0)-H(T)+PV         H(T)/Eh          T*S/Eh         G(T)/Eh
   ------------------------------------------------------------------------
    298.15    0.480446E-01    0.743629E+00    0.123180E+00    0.620449E+00
   ------------------------------------------------------------------------

         :::::::::::::::::::::::::::::::::::::::::::::::::::::
         ::                  THERMODYNAMIC                  ::
         :::::::::::::::::::::::::::::::::::::::::::::::::::::
         :: total free energy        -157.064930958722 Eh   ::
         ::.................................................::
         :: total energy             -157.685379523424 Eh   ::
         :: zero point energy           0.695584392190 Eh   ::
         :: G(RRHO) w/o ZPVE           -0.075135827488 Eh   ::
         :: G(RRHO) contrib.            0.620448564702 Eh   ::
         :::::::::::::::::::::::::::::::::::::::::::::::::::::

           -------------------------------------------------
          | TOTAL ENERGY             -157.685379523424 Eh   |
          | TOTAL ENTHALPY           -156.941750482778 Eh   |
          | TOTAL FREE ENERGY        -157.064930958722 Eh   |
          | GRADIENT NORM               0.000092233998 Eh/α |
           -------------------------------------------------

 * finished run on 2025/09/11 at 10:30:48.373
