   * xtb version 6.7.1 (edcfbbe) compiled by 'albert@albert-system' on 2024-07-22

   ID    Z sym.   atoms
    1    6 C      1-20, 22-25, 27-48, 50, 51, 53, 55, 56
    2    7 N      21, 26, 52, 54
    3    8 O      49
    4    1 H      57-110

          program call               : xtb data2507/gas/25tCzBPym/25tCzBPym_gas_T1_crest.xyz --gfn 2 --spinpol --tblite --uhf 2 --ohess vtight --parallel 40 --molden --ceasefiles --namespace data2507/gas/25tCzBPym/25tCzBPym_gas_T1_finalOpt
 * total energy  :  -152.5765857 Eh     change        0.2607149E-07 Eh
 * total energy  :  -152.5766068 Eh     change       -0.2117618E-04 Eh
 * total energy  :  -152.5766154 Eh     change       -0.8530254E-05 Eh
 * total energy  :  -152.5766179 Eh     change       -0.2493106E-05 Eh
 * total energy  :  -152.5766203 Eh     change       -0.2422396E-05 Eh
 * total energy  :  -152.5766216 Eh     change       -0.1304144E-05 Eh
 * total energy  :  -152.5766225 Eh     change       -0.8858576E-06 Eh
 * total energy  :  -152.5766237 Eh     change       -0.1197498E-05 Eh
 * total energy  :  -152.5766248 Eh     change       -0.1171557E-05 Eh
 * total energy  :  -152.5766256 Eh     change       -0.7238495E-06 Eh
 * total energy  :  -152.5766284 Eh     change       -0.5861631E-06 Eh
 * total energy  :  -152.5766289 Eh     change       -0.5574658E-06 Eh
 * total energy  :  -152.5766294 Eh     change       -0.5208253E-06 Eh
 * total energy  :  -152.5766299 Eh     change       -0.4482459E-06 Eh
 * total energy  :  -152.5766302 Eh     change       -0.3019811E-06 Eh
 * total energy  :  -152.5766304 Eh     change       -0.2107822E-06 Eh
 * total energy  :  -152.5766306 Eh     change       -0.1577535E-06 Eh
 * total energy  :  -152.5766305 Eh     change        0.3058346E-07 Eh
 * total energy  :  -152.5766306 Eh     change       -0.8332120E-07 Eh
   *** GEOMETRY OPTIMIZATION CONVERGED AFTER 23 ITERATIONS ***

 final structure:
================
110
 xtb: 6.7.1 (edcfbbe)
C            8.44777341618309        3.60205582637031        0.01215611392977
C            7.00689584178226        4.10520771788128       -0.11202860772988
C            6.70796159481692        4.99896683898351        1.10004989219698
C            6.89876722787541        4.92709706671742       -1.40445361180017
C            5.99305552762437        2.97243661905825       -0.15474148910783
C            4.63221856848080        3.28612978105505       -0.26767776520667
C            3.64040324500559        2.32705993231669       -0.30609650723917
C            4.02128988745853        0.99628968146395       -0.21695129312445
C            5.38640994903310        0.65185473461681       -0.12786436018433
C            6.36255744043716        1.63612819550082       -0.09406830344529
C            5.44381993892269       -0.78647073698620       -0.10186149672653
C            6.49191465101061       -1.68848486270863       -0.00242902436078
C            6.22749515373470       -3.05060603013286        0.02622764914702
C            7.32702864949009       -4.09651842935924        0.12842751822473
C            7.25252066215873       -5.02485591222588       -1.09232612207316
C            8.72673972723916       -3.47719426723214        0.16883423171893
C            7.12878599333710       -4.91096067850633        1.41483765197097
C            4.89337620039160       -3.47412269714272       -0.02749286933342
C            3.83139844907212       -2.59773784951996       -0.12617921956018
C            4.11031924828693       -1.24055022317673       -0.18496206243643
N            3.25827409775294       -0.15598933169640       -0.25863246305351
C            1.86919248830420       -0.20858396710329       -0.35544683036043
C            1.25535337203478       -1.07856057958500       -1.26336853471348
C           -0.12090198930208       -1.09890563014732       -1.36181960822959
C           -0.91765882533630       -0.27964174767627       -0.56903176637209
N           -2.29993823619179       -0.28787268444149       -0.76102199702409
C           -3.11513834995277       -1.39955675649073       -0.66399298016107
C           -2.78662392925785       -2.73590547682099       -0.49519642130525
C           -3.81834341304734       -3.64476271288370       -0.37166944875020
C           -5.16711845254113       -3.27146709006497       -0.39907097779323
C           -6.23001861097470       -4.34605138500129       -0.23536521767583
C           -7.65186165483010       -3.78088029204808       -0.28981753750349
C           -6.08449157960085       -5.37857720151940       -1.36254740968050
C           -6.03945030677374       -5.02835269595102        1.12690349208664
C           -5.48194758677209       -1.92714298681637       -0.55337394391743
C           -4.46665330472988       -0.99555706841517       -0.68601861539108
C           -4.46015866101116        0.44041605531267       -0.80148250624076
C           -5.46522660126591        1.39396437377716       -0.80626621071334
C           -5.13250357743415        2.73990316117948       -0.88364585446537
C           -6.17364090869941        3.84395191676436       -0.80160494201701
C           -6.10710537053973        4.71429957048832       -2.06437300763615
C           -5.87215389741310        4.69472227249528        0.44106799082732
C           -7.59923455884194        3.30085106123293       -0.67229043292393
C           -3.78301138976007        3.09215198687205       -1.01696435645983
C           -2.76301112616772        2.16326918640176       -1.01984056575730
C           -3.10677725906043        0.82919917450861       -0.86048599416791
C           -0.30643676713012        0.55914734008045        0.39470008372578
C           -1.07183947964239        1.46531182266223        1.28180163728195
O           -0.61941541769234        2.61939262839871        1.47994802866575
C           -2.29992563205234        0.99504385799656        1.84018528993928
C           -2.66544409872149       -0.36255080674535        2.03780422454048
N           -3.83134007942345       -0.72393091998183        2.50223198082491
C           -4.70857117646518        0.22029781948141        2.82228971193297
N           -4.42061290222742        1.51975434836935        2.78875268540386
C           -3.26385941306692        1.90890303824475        2.34659059927808
C            1.08336935337719        0.59986685640784        0.45326865241351
H            9.12613998811356        4.45221986192225        0.04479074407293
H            8.72316396463146        2.98673695301589       -0.84138119966305
H            8.58493988229772        3.02897331541703        0.92625624144856
H            7.43268461109028        5.80849686345294        1.15577621263590
H            5.71520212508457        5.43514667488852        1.03742724703065
H            6.76719426111310        4.41844244650872        2.01837350995325
H            5.91363159325139        5.37193112151725       -1.51155723320423
H            7.63485386779676        5.72821073573928       -1.40058095581831
H            7.08264641736851        4.29324788634215       -2.26962130452947
H            4.33111276785966        4.32017870205470       -0.33048530650186
H            2.60548663565990        2.61390691829452       -0.40733562612404
H            7.39533460855090        1.33833042192885       -0.02452669894402
H            7.49764803867638       -1.30779707060698        0.05690017767574
H            7.37053635950815       -4.45036295614529       -2.00883742421233
H            8.04586648779107       -5.76784648419271       -1.04611004966412
H            6.30103722903158       -5.54709112388099       -1.13789585848575
H            8.92595690649498       -2.90073832480022       -0.73164369408189
H            9.47083200932624       -4.26862364217683        0.23192589016030
H            8.84631943196535       -2.83565095000483        1.03877832118233
H            7.15613959918402       -4.25506586304799        2.28252078566394
H            6.17586162797983       -5.43256632536774        1.41281167486488
H            7.92076901207199       -5.65004222318366        1.51536067557473
H            4.67131511078948       -4.52930363843460        0.01544470312263
H            2.81670611179808       -2.96540171076088       -0.14015275763962
H            1.85876757055901       -1.68330030418481       -1.92163748210382
H           -0.59697357258874       -1.71346797344070       -2.11170261307532
H           -1.75853116025917       -3.06146329658951       -0.44284020488694
H           -3.55917718314294       -4.68362866172746       -0.23783584884679
H           -8.36831333716848       -4.59207107252560       -0.17667649925018
H           -7.82041996076818       -3.07036326241413        0.51579135430240
H           -7.84427623492521       -3.29449217073114       -1.24345237984319
H           -6.20173462744177       -4.89672399741429       -2.33110483891210
H           -5.11155290899046       -5.86113181623549       -1.33788835782386
H           -6.84759633496133       -6.14784006167360       -1.26520309585037
H           -6.81950068680187       -5.76980703032344        1.28668468414567
H           -5.07721271298578       -5.52843369661609        1.18977083032445
H           -6.09155942323491       -4.29080199278294        1.92471550500845
H           -6.50261634756090       -1.58400981035795       -0.56005807841271
H           -6.48902124477205        1.06844633332651       -0.73213621010394
H           -6.29142267608279        4.10820887458210       -2.94918136745626
H           -6.86214028587197        5.49620910120844       -2.01811783860959
H           -5.13574834944010        5.18808777361551       -2.17218344471692
H           -5.88046338377595        4.06963852452480        1.33163391064821
H           -6.62390503181689        5.47305685044355        0.55429909842903
H           -4.89772652636324        5.16934569401659        0.36842793330363
H           -7.86833709047699        2.69504443239174       -1.53481560272812
H           -7.70913822919851        2.70763492010427        0.23233672742790
H           -8.29897171266926        4.13220771819741       -0.61508438190449
H           -3.51339646045620        4.13232806954714       -1.10966988210213
H           -1.73518779628690        2.47393739802787       -1.12082643833349
H           -1.95843908631364       -1.16073473079379        1.84281894825638
H           -5.68588536124732       -0.08018298463097        3.16120480486008
H           -3.03305927352826        2.96588701987540        2.35220734602723
H            1.54322213235022        1.24168773395351        1.18891235733993

 projected vibrational frequencies (cm⁻¹)
eigval :       -0.00    -0.00     0.00     0.00     0.00     0.00
eigval :       10.12    10.54    14.36    18.22    24.91    30.21
eigval :       30.90    33.08    34.18    41.89    43.81    56.59
eigval :       60.42    62.29    76.84    80.37    84.56    94.21
eigval :      101.63   112.23   117.54   136.17   136.88   142.41
eigval :      157.92   160.23   163.17   173.60   177.37   188.01
eigval :      193.25   199.35   202.46   204.78   214.35   217.53
eigval :      218.92   222.79   225.06   227.81   229.68   242.90
eigval :      258.00   260.79   268.86   274.35   280.45   289.83
eigval :      307.81   318.15   319.25   322.44   324.14   325.83
eigval :      328.28   332.47   338.60   343.83   348.30   358.63
eigval :      359.32   359.72   371.33   382.70   386.97   398.01
eigval :      401.48   407.99   408.59   410.73   424.79   429.64
eigval :      437.29   441.03   442.69   443.92   445.97   460.60
eigval :      465.28   465.95   466.49   481.10   493.36   499.34
eigval :      515.86   522.28   549.09   574.36   578.14   579.42
eigval :      585.95   587.13   590.82   601.25   603.99   619.17
eigval :      627.52   638.46   641.75   642.04   652.88   664.10
eigval :      682.04   688.44   690.63   705.82   706.62   710.52
eigval :      718.26   721.26   723.15   757.93   776.80   814.02
eigval :      821.05   823.61   824.73   827.93   831.02   831.78
eigval :      832.96   866.46   866.62   868.34   872.36   872.69
eigval :      873.42   876.22   883.40   888.76   902.16   914.28
eigval :      914.49   917.72   919.27   922.08   926.20   926.73
eigval :      933.41   941.84   958.73   960.25   960.38   960.39
eigval :      960.94   962.69   962.74   963.06   963.10   963.13
eigval :      963.28   963.61   965.16  1010.95  1030.73  1031.26
eigval :     1034.93  1035.02  1035.12  1035.26  1035.68  1035.95
eigval :     1041.18  1041.92  1087.41  1103.78  1112.35  1123.90
eigval :     1129.40  1129.77  1138.78  1145.84  1148.94  1164.23
eigval :     1166.55  1171.98  1198.65  1209.86  1212.40  1219.50
eigval :     1226.59  1226.77  1227.01  1227.07  1228.69  1230.16
eigval :     1230.75  1230.98  1232.62  1233.32  1234.46  1240.83
eigval :     1242.70  1254.88  1256.14  1259.63  1280.05  1282.23
eigval :     1287.36  1295.30  1297.97  1299.02  1303.51  1320.57
eigval :     1339.98  1342.90  1345.97  1347.51  1349.71  1353.22
eigval :     1384.81  1391.36  1401.51  1402.69  1403.84  1404.32
eigval :     1405.09  1405.46  1405.54  1405.68  1410.53  1412.48
eigval :     1427.37  1427.51  1427.89  1427.98  1431.56  1435.00
eigval :     1444.21  1454.23  1463.62  1467.01  1470.54  1479.08
eigval :     1480.32  1489.96  1490.15  1490.77  1491.08  1493.43
eigval :     1493.51  1493.70  1493.78  1494.00  1499.86  1499.88
eigval :     1499.93  1499.96  1503.33  1503.40  1504.06  1504.37
eigval :     1514.16  1514.34  1514.43  1514.57  1518.58  1518.68
eigval :     1519.24  1519.46  1525.88  1561.03  1564.89  1568.13
eigval :     1577.32  1578.85  1585.01  1588.89  1601.96  1608.70
eigval :     3022.17  3022.56  3022.65  3022.83  3023.76  3024.20
eigval :     3024.29  3024.55  3024.59  3026.79  3026.85  3027.26
eigval :     3027.84  3030.28  3030.59  3030.88  3030.91  3030.99
eigval :     3031.32  3032.22  3033.73  3035.37  3035.55  3035.99
eigval :     3036.99  3038.12  3038.45  3039.17  3039.87  3047.45
eigval :     3047.94  3049.04  3049.80  3050.94  3051.52  3052.92
eigval :     3053.42  3054.22  3080.50  3083.49  3084.46  3092.38
eigval :     3095.43  3095.71  3096.31  3102.76  3103.16  3103.78
eigval :     3104.69  3106.26  3117.13  3119.93  3120.91  3123.36

   temp. (K)  partition function   enthalpy   heat capacity  entropy
                                   cal/mol     cal/K/mol   cal/K/mol   J/K/mol
 298.15  VIB  0.438E+25            32171.840    197.133    199.184
         ROT  0.152E+09              888.752      2.981     40.416
         INT  0.665E+33            33060.592    200.114    239.600
         TR   0.194E+29             1481.254      4.968     45.659
         TOT                       34541.8463   205.0824   285.2589  1193.5231

       T/K    H(0)-H(T)+PV         H(T)/Eh          T*S/Eh         G(T)/Eh
   ------------------------------------------------------------------------
    298.15    0.550459E-01    0.961622E+00    0.135536E+00    0.826086E+00
   ------------------------------------------------------------------------

         :::::::::::::::::::::::::::::::::::::::::::::::::::::
         ::                  THERMODYNAMIC                  ::
         :::::::::::::::::::::::::::::::::::::::::::::::::::::
         :: total free energy        -151.750544328809 Eh   ::
         ::.................................................::
         :: total energy             -152.576630612518 Eh   ::
         :: zero point energy           0.906576041574 Eh   ::
         :: G(RRHO) w/o ZPVE           -0.080489757864 Eh   ::
         :: G(RRHO) contrib.            0.826086283710 Eh   ::
         :::::::::::::::::::::::::::::::::::::::::::::::::::::

           -------------------------------------------------
          | TOTAL ENERGY             -152.576630612518 Eh   |
          | TOTAL ENTHALPY           -151.615008635071 Eh   |
          | TOTAL FREE ENERGY        -151.750544328809 Eh   |
          | GRADIENT NORM               0.000043905900 Eh/α |
           -------------------------------------------------

 * finished run on 2025/09/04 at 04:14:16.830
