   * xtb version 6.7.1 (edcfbbe) compiled by 'albert@albert-system' on 2024-07-22

   ID    Z sym.   atoms
    1    6 C      1-20, 22-25, 27-48, 50, 51, 53, 55, 56
    2    7 N      21, 26, 52, 54
    3    8 O      49
    4    1 H      57-110

          program call               : xtb data2507/gas/25tCzBPym/25tCzBPym.xyz --gfn 2 --ohess vtight --parallel 40 --molden --ceasefiles --namespace data2507/gas/25tCzBPym/25tCzBPym_gas_S0_preOpt
          :  Hamiltonian                  GFN2-xTB          :
 * total energy  :  -152.6039655 Eh     change       -0.8888946E-08 Eh
 * total energy  :  -152.6231252 Eh     change       -0.1915967E-01 Eh
 * total energy  :  -152.6287625 Eh     change       -0.5637373E-02 Eh
 * total energy  :  -152.6304490 Eh     change       -0.1686444E-02 Eh
 * total energy  :  -152.6315690 Eh     change       -0.1120060E-02 Eh
 * total energy  :  -152.6320465 Eh     change       -0.4774443E-03 Eh
 * total energy  :  -152.6322938 Eh     change       -0.2472887E-03 Eh
 * total energy  :  -152.6324523 Eh     change       -0.1584812E-03 Eh
 * total energy  :  -152.6325554 Eh     change       -0.1031619E-03 Eh
 * total energy  :  -152.6326596 Eh     change       -0.1041804E-03 Eh
 * total energy  :  -152.6334118 Eh     change       -0.4808587E-06 Eh
 * total energy  :  -152.6334123 Eh     change       -0.4974873E-06 Eh
 * total energy  :  -152.6334128 Eh     change       -0.5303532E-06 Eh
 * total energy  :  -152.6334133 Eh     change       -0.4768101E-06 Eh
 * total energy  :  -152.6334137 Eh     change       -0.3795245E-06 Eh
 * total energy  :  -152.6334141 Eh     change       -0.4419711E-06 Eh
 * total energy  :  -152.6334146 Eh     change       -0.5090378E-06 Eh
 * total energy  :  -152.6334149 Eh     change       -0.2684179E-06 Eh
 * total energy  :  -152.6334150 Eh     change       -0.3594297E-07 Eh
   *** GEOMETRY OPTIMIZATION CONVERGED AFTER 81 ITERATIONS ***

 final structure:
================
110
 xtb: 6.7.1 (edcfbbe)
C            6.45923580641143        2.85981539935476       -4.84664500652772
C            6.93574630848601        2.07341108210879       -3.62244073882762
C            7.81082855427911        0.91198574548941       -4.11505336700402
C            7.77101083057148        3.01765190860354       -2.74605183636382
C            5.78834657422617        1.51263408679686       -2.79405570977603
C            4.44820246029894        1.72402932301791       -3.12795893244497
C            3.40285078852719        1.21129228981407       -2.38074368022553
C            3.70597136998432        0.45196185234270       -1.26411375384261
C            5.05078743447587        0.24628069809182       -0.88912622519381
C            6.07815276105019        0.77185005987776       -1.65557100955434
C            5.02428723939952       -0.52328136764123        0.32516354754028
C            6.02438852355094       -1.04106919112259        1.13705295091223
C            5.68593077056417       -1.78424660671473        2.25601183092145
C            6.72710239301522       -2.37654012136197        3.19440046339109
C            8.15964055770458       -2.04352619493806        2.76844805515701
C            6.50798894900570       -1.81527446758316        4.60647858063799
C            6.57906306512280       -3.90450101047654        3.21261597418870
C            4.32915823296829       -2.00705301528819        2.52456587596320
C            3.31490869485652       -1.50480099521101        1.73438959335087
C            3.66603385608374       -0.73928692700491        0.63387034107731
N            2.87346202761796       -0.14702875601609       -0.33446198441273
C            1.47940800015294       -0.15466841824022       -0.36730331047368
C            0.79757589983689       -0.48963623336922       -1.53798379129821
C           -0.58061298496217       -0.49231921839609       -1.56296808394575
C           -1.31880323161871       -0.19312749647168       -0.41863967335204
N           -2.71044729588062       -0.20181905233504       -0.47159257061699
C           -3.49012280702009       -1.25332857282011       -0.92150353711289
C           -3.12101530335439       -2.49502025437324       -1.40644324287428
C           -4.12146993907248       -3.37973799754570       -1.76827591320693
C           -5.47871435405027       -3.06966238502026       -1.65413122850617
C           -6.57660430749081       -4.04381236538517       -2.05828143840182
C           -6.03015736584235       -5.36236424609155       -2.61249376662133
C           -7.43749640884430       -4.36534297304728       -0.82846060638971
C           -7.44529168321748       -3.39575902366385       -3.14593043375186
C           -5.83425569648401       -1.82841071842686       -1.14138750933744
C           -4.85335438172991       -0.92283258118314       -0.77279600635024
C           -4.89473075102089        0.39921751476382       -0.20763894910613
C           -5.92919075145032        1.25031717268354        0.14357679325211
C           -5.65142847085348        2.51005864274209        0.65920813810121
C           -6.80730123752444        3.41901873356060        1.05306892138128
C           -6.34256109900111        4.76517609594895        1.61532169802749
C           -7.64743172475368        2.71909601820541        2.13073155628358
C           -7.67340635954743        3.69364412464499       -0.18464595048128
C           -4.31567781839919        2.89839563508621        0.78511830312455
C           -3.26410834271238        2.06943394451063        0.43788073788878
C           -3.55436607869730        0.80310917641135       -0.03626165957945
C           -0.63884332075402        0.13743076315624        0.76485927269659
C           -1.38123911083958        0.33964924717818        2.03710350980028
O           -2.30603884549834       -0.36602992845890        2.37448956326166
C           -0.89773792652483        1.43888886520337        2.91511161817802
C           -1.18880257471104        1.41673537342579        4.28214810116340
N           -0.81734068775905        2.38341845952264        5.09952527232461
C           -0.14045749798939        3.38522181855380        4.56576947568016
N            0.18330270238446        3.52136297470847        3.29216514950567
C           -0.20167301928662        2.56290889091571        2.46880929804197
C            0.75078225876445        0.16912707787318        0.77260295051657
H            7.32242781443383        3.22524576672886       -5.39951563251051
H            5.86202628216723        3.71982498111571       -4.55253312766063
H            5.87583002378027        2.23023353363689       -5.51460406736951
H            8.63264401164709        1.29102884080142       -4.71901668399356
H            8.22999478929368        0.35093150587272       -3.28458803230652
H            7.22119984097206        0.22943606254141       -4.72371115880380
H            8.19589847352161        2.49547473549597       -1.89341620629513
H            8.58731908982012        3.44382808882825       -3.32556969374884
H            7.15104556055623        3.83027708229938       -2.37297331906470
H            4.19610601374584        2.31068917392645       -3.99566259349945
H            2.38091961344290        1.41592250131705       -2.66353065323763
H            7.09802588003783        0.59954308815397       -1.34841665480058
H            7.05151410164701       -0.85560727142680        0.87107803016822
H            8.32464300593719       -0.96858816303897        2.75795712800417
H            8.85942056313476       -2.48363102467439        3.47610875290829
H            8.37958985167446       -2.44924654769016        1.78363518703742
H            5.52577087517997       -2.07645164818181        4.99026206082296
H            6.59226522929666       -0.73045848129339        4.59635495643361
H            7.25634191051151       -2.21346228229349        5.28852133111974
H            7.33167606346325       -4.34622618037863        3.86241692680668
H            5.59975461056416       -4.20485351306537        3.57442465394889
H            6.70949501247198       -4.30624300165361        2.20982879074300
H            4.04957079680773       -2.60000399372911        3.38192193369949
H            2.28283844038794       -1.72173004183969        1.96703126858054
H            1.35781895650423       -0.75541214912020       -2.42122535028851
H           -1.10622992529006       -0.73135954455802       -2.47501172216422
H           -2.08314278155571       -2.78130064792611       -1.49165013699557
H           -3.81922322316182       -4.34225958086305       -2.14644127339499
H           -6.86016910523238       -6.00939649894677       -2.88984186141901
H           -5.42543606034930       -5.19388215635921       -3.50070792584190
H           -5.43410409205719       -5.88384613770271       -1.86722369019025
H           -6.82263858582139       -4.80152128472694       -0.04399707206055
H           -7.91046554166063       -3.47174470802366       -0.43117065238679
H           -8.21836548916777       -5.07604304652678       -1.09159039666079
H           -8.23116594711248       -4.08107514936525       -3.45696172850603
H           -7.91259375456092       -2.48252362131260       -2.78853724726547
H           -6.83793292175304       -3.14968504145919       -4.01464065225919
H           -6.87043729020210       -1.55412939820246       -1.01717170838310
H           -6.94671578792066        0.91772160644583        0.00805284546482
H           -5.77245164008186        5.32392812940490        0.87657291413719
H           -7.21081538342815        5.36157458650111        1.88900475559937
H           -5.73531389978859        4.62837164720395        2.50719079237067
H           -8.06175685045308        1.78372187876186        1.76550455835100
H           -8.47138457243148        3.35928107916228        2.43950226972548
H           -7.03319050347518        2.50127067594837        3.00188701907689
H           -7.07864651318982        4.17077241560723       -0.96094692186529
H           -8.08748694990258        2.77488284717597       -0.59032533796665
H           -8.49848715085563        4.35430179241119        0.07363224822133
H           -4.07089578875675        3.87824942722406        1.16081810686733
H           -2.24616045617120        2.41975182685924        0.52812984773645
H           -1.73340989348025        0.58630225258648        4.71281683404459
H            0.17542717240413        4.17427064573626        5.23575646331001
H            0.04737103785601        2.70919172048860        1.42441619711000
H            1.27820340422524        0.42200836573770        1.68062897189936

          :  Hamiltonian                  GFN2-xTB          :
         :: gradient norm              0.000144197206 Eh/a0 ::
         :: HOMO-LUMO gap              1.214770930304 eV    ::
         :: SCC energy              -155.206303575613 Eh    ::
         :: -> dispersion             -0.141561726236 Eh    ::
         :: repulsion energy           2.572888623348 Eh    ::

    * Orbital Energies and Occupations

         #    Occupation            Energy/Eh            Energy/eV
      -------------------------------------------------------------
         1        2.0000           -0.7230104             -19.6741
       ...           ...                  ...                  ...
       130        2.0000           -0.4141339             -11.2692
       131        2.0000           -0.4107018             -11.1758
       132        2.0000           -0.4091003             -11.1322
       133        2.0000           -0.4064236             -11.0593
       134        2.0000           -0.4053272             -11.0295
       135        2.0000           -0.4016183             -10.9286
       136        2.0000           -0.3978953             -10.8273
       137        2.0000           -0.3923810             -10.6772
       138        2.0000           -0.3829270             -10.4200
       139        2.0000           -0.3762885             -10.2393
       140        2.0000           -0.3719953             -10.1225
       141        2.0000           -0.3630828              -9.8800
       142        2.0000           -0.3541685              -9.6374 (HOMO)
       143                         -0.3095265              -8.4226 (LUMO)
       144                         -0.2843262              -7.7369
       145                         -0.2621362              -7.1331
       146                         -0.2520829              -6.8595
       147                         -0.2418012              -6.5797
       148                         -0.2376904              -6.4679
       149                         -0.2202281              -5.9927
       150                         -0.2178250              -5.9273
       151                         -0.2151999              -5.8559
       152                         -0.1940984              -5.2817
       153                         -0.1852391              -5.0406
       ...                                ...                  ...
       278                          0.7519287              20.4610
      -------------------------------------------------------------
                  HL-Gap            0.0446420 Eh            1.2148 eV

     #   Z          covCN         q      C6AA      α(0)
     1   6 C        3.761    -0.107    22.593     6.776
     2   6 C        3.903     0.026    20.086     6.371
     3   6 C        3.762    -0.105    22.559     6.771
     4   6 C        3.762    -0.105    22.559     6.771
     5   6 C        2.972    -0.001    28.040     8.686
     6   6 C        2.929    -0.043    29.073     8.843
     7   6 C        2.909    -0.055    29.356     8.884
     8   6 C        3.074     0.042    26.986     8.517
     9   6 C        3.066    -0.018    28.391     8.737
    10   6 C        2.920    -0.039    28.965     8.826
    11   6 C        3.066    -0.019    28.405     8.739
    12   6 C        2.918    -0.043    29.066     8.841
    13   6 C        2.973    -0.001    28.038     8.686
    14   6 C        3.903     0.026    20.086     6.370
    15   6 C        3.761    -0.107    22.592     6.776
    16   6 C        3.762    -0.105    22.558     6.771
    17   6 C        3.762    -0.105    22.559     6.771
    18   6 C        2.931    -0.039    28.958     8.825
    19   6 C        2.909    -0.054    29.335     8.881
    20   6 C        3.075     0.042    26.984     8.517
    21   7 N        2.802    -0.045    22.117     6.985
    22   6 C        2.909     0.065    26.549     8.449
    23   6 C        2.921    -0.039    28.980     8.828
    24   6 C        2.921    -0.042    29.052     8.839
    25   6 C        2.912     0.072    26.381     8.422
    26   7 N        2.802    -0.038    21.971     6.962
    27   6 C        3.076     0.047    26.857     8.497
    28   6 C        2.909    -0.053    29.307     8.877
    29   6 C        2.929    -0.043    29.061     8.841
    30   6 C        2.972    -0.001    28.040     8.686
    31   6 C        3.903     0.026    20.085     6.370
    32   6 C        3.761    -0.107    22.589     6.775
    33   6 C        3.762    -0.105    22.557     6.770
    34   6 C        3.762    -0.105    22.556     6.770
    35   6 C        2.920    -0.038    28.939     8.822
    36   6 C        3.066    -0.015    28.316     8.726
    37   6 C        3.065    -0.014    28.298     8.723
    38   6 C        2.921    -0.037    28.925     8.820
    39   6 C        2.973    -0.000    28.027     8.684
    40   6 C        3.903     0.026    20.082     6.370
    41   6 C        3.761    -0.106    22.580     6.774
    42   6 C        3.762    -0.105    22.558     6.770
    43   6 C        3.762    -0.105    22.557     6.770
    44   6 C        2.929    -0.042    29.052     8.839
    45   6 C        2.910    -0.054    29.345     8.883
    46   6 C        3.076     0.048    26.834     8.493
    47   6 C        2.972    -0.028    28.686     8.785
    48   6 C        2.825     0.234    23.104     7.876
    49   8 O        0.858    -0.352    20.751     6.107
    50   6 C        2.959    -0.029    28.723     8.791
    51   6 C        2.939     0.091    25.978     8.359
    52   7 N        1.833    -0.218    26.587     7.641
    53   6 C        2.926     0.155    24.645     8.141
    54   7 N        1.834    -0.222    26.691     7.656
    55   6 C        2.932     0.084    26.124     8.382
    56   6 C        2.926    -0.044    29.100     8.847
    57   1 H        0.925     0.036     2.506     2.476
    58   1 H        0.925     0.035     2.513     2.479
    59   1 H        0.925     0.035     2.516     2.481
    60   1 H        0.925     0.036     2.499     2.472
    61   1 H        0.925     0.036     2.500     2.473
    62   1 H        0.925     0.033     2.544     2.494
    63   1 H        0.925     0.036     2.500     2.473
    64   1 H        0.925     0.036     2.498     2.471
    65   1 H        0.925     0.033     2.539     2.492
    66   1 H        0.926     0.037     2.488     2.467
    67   1 H        0.926     0.023     2.681     2.560
    68   1 H        0.926     0.032     2.560     2.502
    69   1 H        0.926     0.038     2.471     2.458
    70   1 H        0.925     0.036     2.509     2.477
    71   1 H        0.925     0.036     2.507     2.476
    72   1 H        0.925     0.035     2.511     2.478
    73   1 H        0.925     0.036     2.508     2.477
    74   1 H        0.925     0.033     2.540     2.492
    75   1 H        0.925     0.037     2.493     2.469
    76   1 H        0.925     0.037     2.493     2.469
    77   1 H        0.925     0.036     2.505     2.475
    78   1 H        0.925     0.033     2.539     2.492
    79   1 H        0.926     0.030     2.579     2.511
    80   1 H        0.926     0.022     2.699     2.569
    81   1 H        0.926     0.053     2.277     2.360
    82   1 H        0.926     0.054     2.274     2.358
    83   1 H        0.926     0.024     2.678     2.559
    84   1 H        0.926     0.037     2.493     2.469
    85   1 H        0.925     0.035     2.514     2.480
    86   1 H        0.925     0.034     2.524     2.484
    87   1 H        0.925     0.036     2.509     2.477
    88   1 H        0.925     0.034     2.525     2.485
    89   1 H        0.925     0.036     2.498     2.471
    90   1 H        0.925     0.036     2.509     2.477
    91   1 H        0.925     0.036     2.507     2.476
    92   1 H        0.925     0.036     2.504     2.475
    93   1 H        0.925     0.032     2.552     2.498
    94   1 H        0.926     0.031     2.566     2.505
    95   1 H        0.926     0.033     2.549     2.496
    96   1 H        0.925     0.034     2.526     2.486
    97   1 H        0.925     0.036     2.506     2.476
    98   1 H        0.925     0.035     2.521     2.483
    99   1 H        0.925     0.037     2.491     2.468
   100   1 H        0.925     0.036     2.504     2.475
   101   1 H        0.925     0.035     2.522     2.484
   102   1 H        0.925     0.033     2.549     2.497
   103   1 H        0.925     0.036     2.501     2.473
   104   1 H        0.925     0.036     2.498     2.472
   105   1 H        0.926     0.034     2.527     2.486
   106   1 H        0.926     0.009     2.912     2.669
   107   1 H        0.925     0.070     2.081     2.256
   108   1 H        0.925     0.059     2.210     2.324
   109   1 H        0.925     0.050     2.319     2.381
   110   1 H        0.926     0.044     2.391     2.418

molecular dipole:
                 x           y           z       tot (Debye)
 q only:        0.684       0.120      -0.786
   full:        0.711      -0.058      -0.978       3.077

 projected vibrational frequencies (cm⁻¹)
eigval :       -0.00    -0.00    -0.00     0.00     0.00     0.00
eigval :        7.94    10.60    11.77    15.75    18.53    30.27
eigval :       30.53    30.98    32.29    37.62    42.08    57.33
eigval :       59.14    61.45    70.45    73.25    77.45    81.72
eigval :       87.89   116.35   119.61   124.75   132.40   139.39
eigval :      153.59   158.04   158.84   168.85   179.26   181.03
eigval :      183.82   186.76   193.92   197.85   213.93   216.41
eigval :      217.49   220.54   220.94   240.39   242.92   256.41
eigval :      263.82   268.55   274.25   276.63   292.86   296.27
eigval :      306.13   311.32   318.51   319.11   321.73   322.06
eigval :      325.98   328.68   329.19   342.90   347.16   353.08
eigval :      355.86   357.29   364.26   368.28   375.48   386.77
eigval :      398.45   403.56   411.01   411.81   416.56   424.27
eigval :      441.06   443.81   445.56   446.49   447.22   460.96
eigval :      464.83   468.28   469.50   475.45   481.04   507.87
eigval :      517.37   523.23   557.80   573.55   577.18   581.71
eigval :      583.84   587.55   596.17   609.40   621.91   633.72
eigval :      639.43   640.08   650.05   665.73   685.59   687.71
eigval :      688.77   702.88   706.64   707.57   713.56   717.92
eigval :      720.67   730.08   734.54   790.73   815.84   816.60
eigval :      818.69   822.61   832.87   834.39   840.35   843.54
eigval :      871.70   873.24   874.75   879.28   881.13   882.16
eigval :      896.76   903.22   905.45   905.89   909.19   917.81
eigval :      922.86   924.38   927.78   929.18   931.78   933.06
eigval :      936.33   945.53   960.09   960.12   960.14   960.51
eigval :      962.50   962.62   962.68   962.71   962.80   963.01
eigval :      963.22   963.31  1005.55  1029.02  1033.12  1035.63
eigval :     1035.69  1035.87  1035.90  1035.93  1036.01  1036.09
eigval :     1036.64  1040.21  1100.76  1116.88  1129.08  1131.52
eigval :     1131.70  1135.61  1143.68  1155.14  1174.20  1177.21
eigval :     1180.76  1182.28  1205.62  1215.37  1227.85  1227.99
eigval :     1228.03  1228.19  1228.41  1229.01  1229.39  1232.10
eigval :     1232.54  1234.78  1235.24  1240.41  1242.47  1250.51
eigval :     1251.55  1253.50  1258.00  1265.31  1285.32  1286.39
eigval :     1298.41  1302.64  1305.99  1307.63  1311.63  1342.76
eigval :     1348.29  1356.10  1362.13  1366.46  1391.96  1397.09
eigval :     1400.79  1401.62  1402.25  1404.57  1405.10  1405.90
eigval :     1406.05  1406.24  1406.42  1408.10  1413.65  1418.32
eigval :     1429.47  1429.53  1429.81  1429.85  1436.99  1453.00
eigval :     1474.96  1475.30  1475.35  1477.51  1483.76  1492.12
eigval :     1492.30  1492.38  1492.41  1494.77  1494.98  1495.02
eigval :     1495.29  1501.65  1502.22  1502.61  1502.97  1505.63
eigval :     1505.76  1506.00  1506.07  1515.15  1515.68  1515.71
eigval :     1515.72  1520.60  1520.64  1520.75  1520.96  1537.83
eigval :     1547.84  1551.88  1572.02  1574.52  1584.86  1587.07
eigval :     1589.26  1605.77  1606.59  1618.77  1621.10  1705.61
eigval :     3020.38  3020.47  3021.40  3021.94  3022.02  3022.36
eigval :     3023.17  3023.51  3026.81  3026.87  3026.88  3026.96
eigval :     3029.14  3029.63  3030.15  3030.56  3031.06  3031.27
eigval :     3031.59  3031.77  3035.52  3035.55  3035.68  3035.73
eigval :     3037.88  3038.16  3038.38  3038.51  3039.62  3047.19
eigval :     3047.56  3047.82  3047.94  3050.68  3051.24  3051.47
eigval :     3051.69  3062.33  3064.85  3076.37  3076.75  3078.65
eigval :     3079.62  3088.45  3088.55  3091.21  3092.07  3093.23
eigval :     3093.63  3103.97  3116.69  3118.51  3118.70  3119.89

   temp. (K)  partition function   enthalpy   heat capacity  entropy
                                   cal/mol     cal/K/mol   cal/K/mol   J/K/mol
 298.15  VIB  0.244E+26            32198.584    195.394    200.928
         ROT  0.161E+09              888.752      2.981     40.530
         INT  0.392E+34            33087.336    198.375    241.458
         TR   0.194E+29             1481.254      4.968     45.659
         TOT                       34568.5903   203.3433   287.1174  1201.2990

       T/K    H(0)-H(T)+PV         H(T)/Eh          T*S/Eh         G(T)/Eh
   ------------------------------------------------------------------------
    298.15    0.550886E-01    0.965013E+00    0.136419E+00    0.828594E+00
   ------------------------------------------------------------------------

         :::::::::::::::::::::::::::::::::::::::::::::::::::::
         ::                  THERMODYNAMIC                  ::
         :::::::::::::::::::::::::::::::::::::::::::::::::::::
         :: total free energy        -151.804820797600 Eh   ::
         ::.................................................::
         :: total energy             -152.633414952269 Eh   ::
         :: zero point energy           0.909924319960 Eh   ::
         :: G(RRHO) w/o ZPVE           -0.081330165291 Eh   ::
         :: G(RRHO) contrib.            0.828594154669 Eh   ::
         :::::::::::::::::::::::::::::::::::::::::::::::::::::

           -------------------------------------------------
          | TOTAL ENERGY             -152.633414952269 Eh   |
          | TOTAL ENTHALPY           -151.668402077186 Eh   |
          | TOTAL FREE ENERGY        -151.804820797600 Eh   |
          | GRADIENT NORM               0.000144113994 Eh/α |
          | HOMO-LUMO GAP               1.214769913873 eV   |
           -------------------------------------------------

 * finished run on 2025/09/04 at 03:40:30.479
