   * xtb version 6.7.1 (edcfbbe) compiled by 'albert@albert-system' on 2024-07-22

   ID    Z sym.   atoms
    1    6 C      1-20, 22-25, 27-48, 50, 51, 53, 55, 56
    2    7 N      21, 26, 52, 54
    3    8 O      49
    4    1 H      57-110

          program call               : xtb data2507/gas/25tCzBPym/25tCzBPym_gas_S0_crest.xyz --gfn 2 --ohess vtight --parallel 40 --molden --ceasefiles --namespace data2507/gas/25tCzBPym/25tCzBPym_gas_S0_finalOpt
          :  Hamiltonian                  GFN2-xTB          :
 * total energy  :  -152.6442109 Eh     change       -0.2110937E-08 Eh
 * total energy  :  -152.6442122 Eh     change       -0.1287765E-05 Eh
 * total energy  :  -152.6442148 Eh     change       -0.2625013E-05 Eh
 * total energy  :  -152.6442199 Eh     change       -0.5120224E-05 Eh
 * total energy  :  -152.6442264 Eh     change       -0.6460818E-05 Eh
 * total energy  :  -152.6442306 Eh     change       -0.4182681E-05 Eh
 * total energy  :  -152.6442330 Eh     change       -0.2410545E-05 Eh
 * total energy  :  -152.6442352 Eh     change       -0.2226575E-05 Eh
 * total energy  :  -152.6442382 Eh     change       -0.3009591E-05 Eh
 * total energy  :  -152.6442420 Eh     change       -0.3799475E-05 Eh
 * total energy  :  -152.6443504 Eh     change       -0.1386573E-05 Eh
 * total energy  :  -152.6443518 Eh     change       -0.1372901E-05 Eh
 * total energy  :  -152.6443532 Eh     change       -0.1349432E-05 Eh
 * total energy  :  -152.6443545 Eh     change       -0.1362058E-05 Eh
 * total energy  :  -152.6443559 Eh     change       -0.1422602E-05 Eh
 * total energy  :  -152.6443574 Eh     change       -0.1452347E-05 Eh
 * total energy  :  -152.6443588 Eh     change       -0.1361315E-05 Eh
 * total energy  :  -152.6443600 Eh     change       -0.1217853E-05 Eh
 * total energy  :  -152.6443600 Eh     change       -0.8540212E-08 Eh
   *** GEOMETRY OPTIMIZATION CONVERGED AFTER 68 ITERATIONS ***

 final structure:
================
110
 xtb: 6.7.1 (edcfbbe)
C            6.69260612680755        4.98768984717105        1.25654419626058
C            6.98435047151024        4.13597861892057        0.01309628091163
C            6.86194623211697        4.99990269811784       -1.25017416383831
C            8.42866712955828        3.63640397855360        0.10757451823801
C            5.97597191044436        2.99864529774316       -0.05893033471655
C            4.61321607444435        3.30933426582943       -0.15729680996317
C            3.62638427765788        2.34688906605320       -0.22472813828688
C            4.01279492988198        1.01689046595713       -0.18305317171288
C            5.37808259111422        0.67586550595698       -0.10566270600200
C            6.35038824685141        1.66530497629493       -0.04039793212602
C            5.44416860826552       -0.76008703509086       -0.13070583391970
C            6.49956770425304       -1.65909802723639       -0.05450469686060
C            6.24607920113613       -3.02080955486667       -0.07325832769836
C            7.35186657404567       -4.06327807547495        0.00519868700770
C            8.74679195375241       -3.43633854088141        0.07944387661157
C            7.14762023711343       -4.92023975454585        1.26259237557983
C            7.29628106177659       -4.95212707591880       -1.24532836387973
C            4.91553142964641       -3.45196550082061       -0.15341703087214
C            3.84785802026072       -2.58065606451541       -0.23096925401528
C            4.11619594094160       -1.22116511410027       -0.23754043461192
N            3.25431005191897       -0.13895000139898       -0.26803394587555
C            1.86731799596855       -0.19636736603788       -0.38618443863464
C            1.27175642916595       -1.01236393515445       -1.34974355324810
C           -0.10075675222499       -1.04026367282710       -1.49016762815428
C           -0.91306839453636       -0.27328617590639       -0.66141673171442
N           -2.29824394978553       -0.25242924580036       -0.84632890956886
C           -3.14603648960241       -1.33711614898759       -0.70083487796077
C           -2.85344201585929       -2.67860827215899       -0.53619668025861
C           -3.90362345129186       -3.55441382647013       -0.33181530056227
C           -5.23488116350672       -3.13421081554034       -0.28292686930262
C           -6.38436542428196       -4.09543067915013       -0.01772430724807
C           -7.06703184442948       -3.68725078319911        1.29569487297045
C           -7.38928381878637       -4.01940002292517       -1.17574811186463
C           -5.92648125063056       -5.55008447665736        0.11668637504660
C           -5.51348847694929       -1.78435637904443       -0.45373616559080
C           -4.48177257286689       -0.88469225231423       -0.66262130034150
C           -4.43541847051864        0.54628586639764       -0.79759178664303
C           -5.41379196969768        1.53128551492967       -0.80448045291472
C           -5.04572886870560        2.86212826358540       -0.91345084485804
C           -6.05760487732409        3.99743576716260       -0.87402924829481
C           -5.75258641511789        4.88484559895306        0.34135819414232
C           -7.49830269757198        3.49575678525288       -0.74517486839074
C           -5.95361870630613        4.82247010476512       -2.16432424919942
C           -3.68606559874454        3.17477165280110       -1.04911157367217
C           -2.69303217376169        2.21665413140829       -1.04984114835188
C           -3.07400271276350        0.89351124404169       -0.89598884037236
C           -0.32475762333848        0.50981237275593        0.34324991064286
C           -1.13661963516917        1.25992801171751        1.33932723021506
O           -0.81418540041585        2.34866357752549        1.76127329851207
C           -2.34279368912901        0.55349983904884        1.84448304636502
C           -2.37279076173575       -0.81477557771465        2.11606475251385
N           -3.45730015004690       -1.41784796078315        2.56887521406877
C           -4.52231139483559       -0.66383293520975        2.76551033111037
N           -4.60192854158036        0.64303030175648        2.58379830582144
C           -3.52317579370824        1.24708690274911        2.12543927460590
C            1.05821025212652        0.56274596996347        0.45348701530804
H            7.41207317216542        5.80046702487506        1.33183982716861
H            6.76521713863402        4.37769513619356        2.15464282587086
H            5.69602291493852        5.41828143861478        1.21807003423180
H            7.59602076877960        5.80271451450707       -1.22771439468269
H            7.03851127337836        4.39506890768854       -2.13735479896893
H            5.87468109477839        5.44537760160697       -1.33320006286811
H            8.69758936331256        3.04916679760080       -0.76749696623874
H            9.10389521386445        4.48819416704055        0.16035164809161
H            8.57713084085689        3.03507229653036        1.00151674469524
H            4.30689449155643        4.34367648089343       -0.18590653939640
H            2.58959867163476        2.63262431575961       -0.31684792729519
H            7.38420736712120        1.36862114100968        0.01793391027503
H            7.50134708054209       -1.27164850016688        0.02552866894284
H            8.85290929027250       -2.82208132771599        0.97058619507577
H            9.49616829757657       -4.22416673694834        0.12438543313416
H            8.95013977978271       -2.82939229583784       -0.79981192582373
H            6.19799719637720       -5.44723555039599        1.23462369688966
H            7.16229404155546       -4.29226216820282        2.15105952716784
H            7.94333593075723       -5.65746603563187        1.34736569394276
H            8.09350784213327       -5.69195831087247       -1.21519972917555
H            6.34831177758933       -5.47781567565854       -1.31783558314763
H            7.42008513211922       -4.34733974920915       -2.14138600680068
H            4.70076103390628       -4.50970713077957       -0.14984584266233
H            2.83637091583860       -2.95704864739707       -0.26914609936530
H            1.89522567094476       -1.59224142314360       -2.01287277766840
H           -0.55680375180782       -1.63777123370843       -2.26500960907122
H           -1.83460496894809       -3.03661700636674       -0.54568290031186
H           -3.66266471699073       -4.59523172230111       -0.19606086030610
H           -7.88150158587394       -4.37141644595133        1.52489271819027
H           -6.34847170117436       -3.71570686145181        2.11223638116131
H           -7.47334163523089       -2.68142981167315        1.23367520215360
H           -7.80477618945434       -3.02101432974229       -1.27791319704160
H           -6.90313066189680       -4.28343658727781       -2.11274209932059
H           -8.21028817518945       -4.71280779664839       -1.00562206692756
H           -6.79168157696580       -6.18611763911292        0.29345149406639
H           -5.43856223711760       -5.89298237758677       -0.79293183169157
H           -5.24595438460528       -5.67024923028592        0.95613863754787
H           -6.52565741726164       -1.41348560949188       -0.41021031554016
H           -6.44479542314526        1.23434425873745       -0.71494105588992
H           -4.75313084817833        5.30726196337170        0.28398987166828
H           -6.46622607332526        5.70432725751894        0.39614130867327
H           -5.82554640304306        4.30164557532977        1.25717227354387
H           -7.77324632696211        2.87337470971044       -1.59378433260222
H           -8.17661056063186        4.34629115180759       -0.71862384774657
H           -7.63361455631583        2.92999092019265        0.17355456417116
H           -4.97232561266297        5.27615862439671       -2.27012018682175
H           -6.13154918872554        4.18863400007251       -3.03072769971021
H           -6.69586813992373        5.61797490792721       -2.16026666091175
H           -3.38697517424847        4.20619505550273       -1.15314274755854
H           -1.65590858469569        2.49654668473102       -1.15961104506399
H           -1.49620183914816       -1.43860355533901        1.98882068940657
H           -5.41366851914534       -1.16272651796493        3.12188127106059
H           -3.58961699649708        2.31381317945571        1.95654148751719
H            1.49593671224692        1.17249969378292        1.22942599554731

          :  Hamiltonian                  GFN2-xTB          :
         :: gradient norm              0.000070874978 Eh/a0 ::
         :: HOMO-LUMO gap              1.499182461390 eV    ::
         :: SCC energy              -155.218708415983 Eh    ::
         :: -> dispersion             -0.152301657532 Eh    ::
         :: repulsion energy           2.574348435645 Eh    ::

    * Orbital Energies and Occupations

         #    Occupation            Energy/Eh            Energy/eV
      -------------------------------------------------------------
         1        2.0000           -0.7204376             -19.6041
       ...           ...                  ...                  ...
       130        2.0000           -0.4144773             -11.2785
       131        2.0000           -0.4105679             -11.1721
       132        2.0000           -0.4094862             -11.1427
       133        2.0000           -0.4089663             -11.1285
       134        2.0000           -0.4068151             -11.0700
       135        2.0000           -0.3992110             -10.8631
       136        2.0000           -0.3981121             -10.8332
       137        2.0000           -0.3967830             -10.7970
       138        2.0000           -0.3784629             -10.2985
       139        2.0000           -0.3765758             -10.2471
       140        2.0000           -0.3736838             -10.1685
       141        2.0000           -0.3656416              -9.9496
       142        2.0000           -0.3566349              -9.7045 (HOMO)
       143                         -0.3015410              -8.2053 (LUMO)
       144                         -0.2776349              -7.5548
       145                         -0.2630006              -7.1566
       146                         -0.2522854              -6.8650
       147                         -0.2428323              -6.6078
       148                         -0.2393945              -6.5143
       149                         -0.2208532              -6.0097
       150                         -0.2178313              -5.9275
       151                         -0.2153053              -5.8588
       152                         -0.1964260              -5.3450
       153                         -0.1868743              -5.0851
       ...                                ...                  ...
       278                          0.7430999              20.2208
      -------------------------------------------------------------
                  HL-Gap            0.0550939 Eh            1.4992 eV

     #   Z          covCN         q      C6AA      α(0)
     1   6 C        3.762    -0.106    22.562     6.771
     2   6 C        3.903     0.026    20.086     6.371
     3   6 C        3.762    -0.105    22.560     6.771
     4   6 C        3.761    -0.107    22.590     6.775
     5   6 C        2.973    -0.000    28.036     8.685
     6   6 C        2.931    -0.038    28.941     8.823
     7   6 C        2.908    -0.053    29.309     8.877
     8   6 C        3.076     0.042    26.985     8.517
     9   6 C        3.067    -0.019    28.411     8.740
    10   6 C        2.918    -0.043    29.078     8.843
    11   6 C        3.067    -0.019    28.402     8.739
    12   6 C        2.918    -0.043    29.074     8.842
    13   6 C        2.973    -0.001    28.049     8.687
    14   6 C        3.903     0.026    20.086     6.371
    15   6 C        3.761    -0.107    22.593     6.776
    16   6 C        3.762    -0.105    22.557     6.770
    17   6 C        3.762    -0.105    22.557     6.770
    18   6 C        2.931    -0.039    28.975     8.828
    19   6 C        2.909    -0.054    29.344     8.883
    20   6 C        3.075     0.041    26.997     8.519
    21   7 N        2.802    -0.044    22.083     6.979
    22   6 C        2.910     0.066    26.527     8.445
    23   6 C        2.922    -0.040    28.989     8.829
    24   6 C        2.920    -0.041    29.022     8.834
    25   6 C        2.913     0.062    26.605     8.458
    26   7 N        2.801    -0.061    22.410     7.031
    27   6 C        3.076     0.042    26.982     8.516
    28   6 C        2.909    -0.053    29.315     8.878
    29   6 C        2.929    -0.040    29.001     8.832
    30   6 C        2.973     0.002    27.981     8.677
    31   6 C        3.903     0.026    20.080     6.370
    32   6 C        3.762    -0.106    22.570     6.772
    33   6 C        3.761    -0.106    22.566     6.772
    34   6 C        3.761    -0.108    22.612     6.779
    35   6 C        2.921    -0.039    28.978     8.828
    36   6 C        3.067    -0.021    28.451     8.746
    37   6 C        3.065    -0.022    28.486     8.752
    38   6 C        2.918    -0.042    29.051     8.839
    39   6 C        2.974     0.001    28.008     8.681
    40   6 C        3.903     0.026    20.077     6.369
    41   6 C        3.762    -0.106    22.566     6.772
    42   6 C        3.761    -0.108    22.610     6.778
    43   6 C        3.761    -0.106    22.564     6.771
    44   6 C        2.932    -0.038    28.934     8.822
    45   6 C        2.908    -0.053    29.327     8.880
    46   6 C        3.080     0.039    27.036     8.524
    47   6 C        2.974    -0.027    28.682     8.785
    48   6 C        2.825     0.232    23.134     7.881
    49   8 O        0.858    -0.356    20.820     6.118
    50   6 C        2.960    -0.027    28.676     8.783
    51   6 C        2.935     0.084    26.128     8.383
    52   7 N        1.834    -0.224    26.732     7.662
    53   6 C        2.928     0.155    24.640     8.141
    54   7 N        1.833    -0.220    26.644     7.649
    55   6 C        2.937     0.092    25.947     8.354
    56   6 C        2.927    -0.036    28.890     8.815
    57   1 H        0.925     0.036     2.502     2.473
    58   1 H        0.925     0.034     2.536     2.490
    59   1 H        0.925     0.037     2.492     2.468
    60   1 H        0.925     0.036     2.500     2.473
    61   1 H        0.925     0.033     2.546     2.495
    62   1 H        0.925     0.036     2.501     2.473
    63   1 H        0.925     0.035     2.515     2.480
    64   1 H        0.925     0.035     2.514     2.479
    65   1 H        0.925     0.035     2.510     2.478
    66   1 H        0.926     0.032     2.555     2.499
    67   1 H        0.926     0.030     2.593     2.518
    68   1 H        0.926     0.038     2.475     2.460
    69   1 H        0.926     0.039     2.468     2.457
    70   1 H        0.925     0.036     2.507     2.476
    71   1 H        0.925     0.035     2.513     2.479
    72   1 H        0.925     0.036     2.508     2.477
    73   1 H        0.925     0.035     2.511     2.478
    74   1 H        0.925     0.033     2.538     2.491
    75   1 H        0.925     0.036     2.499     2.472
    76   1 H        0.925     0.036     2.501     2.473
    77   1 H        0.925     0.035     2.512     2.478
    78   1 H        0.925     0.033     2.541     2.493
    79   1 H        0.926     0.029     2.593     2.518
    80   1 H        0.926     0.022     2.699     2.569
    81   1 H        0.926     0.054     2.274     2.358
    82   1 H        0.926     0.052     2.289     2.366
    83   1 H        0.926     0.023     2.684     2.562
    84   1 H        0.926     0.041     2.435     2.440
    85   1 H        0.925     0.038     2.481     2.463
    86   1 H        0.925     0.036     2.507     2.476
    87   1 H        0.925     0.035     2.512     2.479
    88   1 H        0.925     0.036     2.498     2.472
    89   1 H        0.925     0.033     2.540     2.492
    90   1 H        0.925     0.037     2.489     2.467
    91   1 H        0.925     0.036     2.497     2.471
    92   1 H        0.925     0.035     2.516     2.480
    93   1 H        0.925     0.038     2.482     2.464
    94   1 H        0.926     0.033     2.543     2.494
    95   1 H        0.926     0.041     2.438     2.442
    96   1 H        0.925     0.036     2.499     2.472
    97   1 H        0.925     0.037     2.486     2.466
    98   1 H        0.925     0.036     2.501     2.473
    99   1 H        0.925     0.035     2.520     2.482
   100   1 H        0.925     0.036     2.499     2.472
   101   1 H        0.925     0.038     2.471     2.458
   102   1 H        0.925     0.036     2.502     2.473
   103   1 H        0.925     0.033     2.543     2.494
   104   1 H        0.925     0.037     2.488     2.467
   105   1 H        0.926     0.035     2.518     2.482
   106   1 H        0.926     0.025     2.665     2.553
   107   1 H        0.925     0.044     2.399     2.422
   108   1 H        0.925     0.057     2.236     2.338
   109   1 H        0.925     0.063     2.162     2.299
   110   1 H        0.926     0.064     2.148     2.292

molecular dipole:
                 x           y           z       tot (Debye)
 q only:        0.145      -0.800      -0.658
   full:        0.408      -0.772      -0.815       3.035

 projected vibrational frequencies (cm⁻¹)
eigval :       -0.00    -0.00    -0.00    -0.00    -0.00     0.00
eigval :       10.03    10.32    14.55    18.55    27.06    30.90
eigval :       31.98    33.54    33.82    40.74    44.09    58.46
eigval :       61.16    62.69    75.86    81.05    84.24    86.90
eigval :       95.35   106.89   116.36   131.34   136.48   139.91
eigval :      158.55   160.48   162.76   172.82   178.91   184.76
eigval :      186.01   195.80   198.99   204.07   205.05   218.38
eigval :      220.80   223.44   225.08   229.02   233.56   242.11
eigval :      258.80   263.01   270.80   273.11   281.31   295.42
eigval :      305.22   314.50   317.75   320.53   321.98   323.44
eigval :      327.05   329.14   338.96   341.35   349.79   356.74
eigval :      357.61   360.04   360.21   373.70   381.57   388.22
eigval :      398.18   399.87   410.82   412.61   418.62   435.13
eigval :      440.02   441.38   443.76   444.69   445.95   461.66
eigval :      464.52   465.81   466.06   483.67   491.18   500.16
eigval :      517.69   524.14   556.71   574.42   578.49   583.78
eigval :      584.43   592.34   605.14   609.66   628.04   634.54
eigval :      638.69   640.48   640.63   668.01   675.75   685.85
eigval :      687.82   703.85   705.25   707.18   712.53   717.35
eigval :      720.90   732.82   733.71   784.52   815.80   819.70
eigval :      821.37   823.25   831.19   833.51   834.94   841.20
eigval :      870.11   870.58   873.30   873.90   875.16   879.90
eigval :      894.45   900.99   904.78   912.54   914.15   917.93
eigval :      921.94   923.55   925.16   926.29   927.34   930.51
eigval :      936.51   949.13   960.38   960.49   960.52   961.08
eigval :      962.67   963.01   963.09   963.16   963.17   963.46
eigval :      964.15   964.74  1006.79  1030.81  1032.00  1033.18
eigval :     1035.66  1035.82  1035.92  1036.22  1036.26  1036.85
eigval :     1039.89  1042.19  1094.08  1114.34  1126.66  1130.26
eigval :     1130.96  1137.51  1140.07  1153.00  1173.22  1177.04
eigval :     1178.79  1179.93  1202.27  1215.66  1226.62  1228.28
eigval :     1228.34  1228.42  1228.54  1228.97  1230.58  1231.77
eigval :     1232.87  1233.74  1235.72  1237.56  1239.87  1246.91
eigval :     1250.35  1252.83  1257.47  1263.75  1284.58  1285.07
eigval :     1298.65  1305.45  1308.95  1309.93  1313.96  1345.18
eigval :     1347.40  1350.00  1358.92  1364.19  1391.95  1394.12
eigval :     1399.71  1401.35  1402.46  1404.38  1405.00  1405.79
eigval :     1406.18  1406.25  1406.38  1407.57  1413.66  1417.31
eigval :     1429.09  1429.59  1429.71  1429.83  1435.79  1451.35
eigval :     1475.31  1478.51  1482.94  1483.66  1484.72  1491.56
eigval :     1492.39  1492.54  1492.61  1494.95  1495.05  1495.10
eigval :     1495.14  1501.56  1501.64  1501.96  1502.60  1505.19
eigval :     1505.83  1505.98  1506.19  1514.86  1515.04  1515.26
eigval :     1515.30  1520.29  1520.63  1520.73  1521.11  1541.81
eigval :     1544.72  1546.02  1571.21  1572.52  1583.05  1584.76
eigval :     1586.69  1605.28  1606.48  1616.89  1619.45  1706.56
eigval :     3021.43  3021.57  3021.67  3022.12  3022.85  3023.09
eigval :     3023.28  3023.57  3026.86  3027.08  3027.13  3027.58
eigval :     3029.89  3030.18  3030.31  3030.48  3031.08  3031.20
eigval :     3031.30  3031.60  3035.58  3035.93  3036.02  3036.19
eigval :     3038.20  3038.76  3038.94  3039.67  3042.89  3046.15
eigval :     3046.40  3046.76  3048.08  3050.20  3050.82  3051.37
eigval :     3051.60  3064.97  3067.64  3076.47  3078.60  3081.35
eigval :     3084.01  3092.19  3092.70  3093.19  3096.70  3098.19
eigval :     3100.10  3103.52  3116.56  3120.01  3124.00  3124.12

   temp. (K)  partition function   enthalpy   heat capacity  entropy
                                   cal/mol     cal/K/mol   cal/K/mol   J/K/mol
 298.15  VIB  0.469E+25            32103.968    195.900    199.283
         ROT  0.150E+09              888.752      2.981     40.394
         INT  0.703E+33            32992.720    198.881    239.677
         TR   0.194E+29             1481.254      4.968     45.659
         TOT                       34473.9740   203.8490   285.3363  1193.8471

       T/K    H(0)-H(T)+PV         H(T)/Eh          T*S/Eh         G(T)/Eh
   ------------------------------------------------------------------------
    298.15    0.549378E-01    0.965031E+00    0.135572E+00    0.829459E+00
   ------------------------------------------------------------------------

         :::::::::::::::::::::::::::::::::::::::::::::::::::::
         ::                  THERMODYNAMIC                  ::
         :::::::::::::::::::::::::::::::::::::::::::::::::::::
         :: total free energy        -151.814900971284 Eh   ::
         ::.................................................::
         :: total energy             -152.644359980334 Eh   ::
         :: zero point energy           0.910093717164 Eh   ::
         :: G(RRHO) w/o ZPVE           -0.080634708115 Eh   ::
         :: G(RRHO) contrib.            0.829459009050 Eh   ::
         :::::::::::::::::::::::::::::::::::::::::::::::::::::

           -------------------------------------------------
          | TOTAL ENERGY             -152.644359980334 Eh   |
          | TOTAL ENTHALPY           -151.679328488647 Eh   |
          | TOTAL FREE ENERGY        -151.814900971284 Eh   |
          | GRADIENT NORM               0.000070873628 Eh/α |
          | HOMO-LUMO GAP               1.499181939476 eV   |
           -------------------------------------------------

 * finished run on 2025/09/04 at 03:56:22.922
