   * xtb version 6.7.1 (edcfbbe) compiled by 'albert@albert-system' on 2024-07-22

   ID    Z sym.   atoms
    1    6 C      1-20, 22-25, 27-48, 50, 51, 53, 55, 56
    2    7 N      21, 26, 52, 54
    3    8 O      49
    4    1 H      57-110

          program call               : xtb data2507/gas/25tCzBPym/25tCzBPym_gas_S0_finalOpt.xtbopt.xyz --gfn 2 --spinpol --tblite --uhf 2 --ohess vtight --parallel 40 --molden --ceasefiles --namespace data2507/gas/25tCzBPym/25tCzBPym_gas_T1_preOpt
 * total energy  :  -152.5677269 Eh     change        0.1042432E-07 Eh
 * total energy  :  -152.5719819 Eh     change       -0.4254959E-02 Eh
 * total energy  :  -152.5736223 Eh     change       -0.1640359E-02 Eh
 * total energy  :  -152.5741946 Eh     change       -0.5723442E-03 Eh
 * total energy  :  -152.5748349 Eh     change       -0.6402545E-03 Eh
 * total energy  :  -152.5753187 Eh     change       -0.4838222E-03 Eh
 * total energy  :  -152.5756899 Eh     change       -0.3712036E-03 Eh
 * total energy  :  -152.5758512 Eh     change       -0.1613091E-03 Eh
 * total energy  :  -152.5759466 Eh     change       -0.9539439E-04 Eh
 * total energy  :  -152.5760120 Eh     change       -0.6541556E-04 Eh
 * total energy  :  -152.5765258 Eh     change       -0.2175719E-06 Eh
 * total energy  :  -152.5765264 Eh     change       -0.5370950E-06 Eh
 * total energy  :  -152.5765269 Eh     change       -0.5386985E-06 Eh
 * total energy  :  -152.5765273 Eh     change       -0.4205426E-06 Eh
 * total energy  :  -152.5765279 Eh     change       -0.5897777E-06 Eh
 * total energy  :  -152.5765275 Eh     change        0.3719685E-06 Eh
 * total energy  :  -152.5765280 Eh     change       -0.4761952E-06 Eh
 * total energy  :  -152.5765284 Eh     change       -0.3686878E-06 Eh
 * total energy  :  -152.5765284 Eh     change       -0.9044015E-08 Eh
   *** GEOMETRY OPTIMIZATION CONVERGED AFTER 55 ITERATIONS ***

 final structure:
================
110
 xtb: 6.7.1 (edcfbbe)
C            6.70286595005820        4.95662003362235        1.22597767715033
C            6.99712598160168        4.09751950575720       -0.01204300354989
C            6.87704136602709        4.95398851876985       -1.28072441806487
C            8.44070280415610        3.59698231269736        0.08894832648259
C            5.98741366275834        2.96226861236860       -0.07917145294524
C            4.62463484378468        3.27362562654843       -0.17277156965281
C            3.63603787089318        2.31220479138213       -0.23007879417842
C            4.02215387747905        0.98086786898503       -0.18014919406257
C            5.38924398232501        0.63957784500365       -0.11290216075517
C            6.36217951321425        1.62625486230828       -0.05974745084896
C            5.45239560566752       -0.79860523051424       -0.12808445495128
C            6.50542519228369       -1.69828356336700       -0.06680030075823
C            6.24728099861125       -3.06182494200048       -0.07524646862350
C            7.35261135071178       -4.10516709302500       -0.01952528197809
C            8.75001370114210       -3.48072093054410        0.02240651306259
C            7.17477005729724       -4.96076842247913        1.24288556193104
C            7.26639226866174       -4.99489392116488       -1.26797750364780
C            4.91434394822652       -3.48953704044564       -0.12454828590356
C            3.84757346043235       -2.61548775755672       -0.18569878533451
C            4.11990559218328       -1.25587362579049       -0.21016339916173
N            3.26284796322878       -0.17315539483607       -0.24576258978970
C            1.87362568526800       -0.22596890731589       -0.33766414035914
C            1.25633728172372       -1.07817165230130       -1.26005770401810
C           -0.12021154717865       -1.09359054760324       -1.35760194917626
C           -0.91307050628970       -0.28391166481846       -0.55170254442272
N           -2.29528392634985       -0.27538151847799       -0.74574729426396
C           -3.12565442744308       -1.37592653358304       -0.65154244683826
C           -2.81611048941359       -2.71621540258112       -0.49314792215771
C           -3.85848624446786       -3.61636920413076       -0.35894957336449
C           -5.19743376330592       -3.22234891021079       -0.36809442665797
C           -6.34100535907015       -4.20809683256439       -0.18854835121899
C           -7.12341134985833       -3.82499121834818        1.07612182198691
C           -7.26326179134137       -4.14034874812655       -1.41437320715369
C           -5.86347925114524       -5.65432747709201       -0.03298966980716
C           -5.49359246325431       -1.86965592232177       -0.52151449930228
C           -4.47244731455119       -0.95080758436790       -0.66364695863564
C           -4.44500262437540        0.48559772713947       -0.77393067015306
C           -5.43569017464667        1.45384690485121       -0.77610579074141
C           -5.08322699469160        2.79490873717025       -0.85157634209588
C           -6.10867683597460        3.91402742965947       -0.77533541718861
C           -5.80047537640108        4.76441459999322        0.46585342156287
C           -7.54249208500902        3.39190036030887       -0.65051916801467
C           -6.02446121321282        4.77960219938272       -2.04042713277264
C           -3.72832574309117        3.12756738587896       -0.98054578678013
C           -2.72227058851386        2.18370039082857       -0.98546596156140
C           -3.08606470160675        0.85408525492781       -0.83386599731595
C           -0.29904763365160        0.53388623946610        0.42783656197239
C           -1.06578774255215        1.42611262780478        1.32815074161334
O           -0.61582591107598        2.57786503001803        1.54344749058187
C           -2.29297958364710        0.94338684229483        1.87782381815755
C           -2.65087275410771       -0.41896310757466        2.05648417991556
N           -3.81314618147554       -0.79399746964305        2.51894326932899
C           -4.69573000014497        0.14046743095904        2.85315774172634
N           -4.41621885634863        1.44212996133448        2.83467589380374
C           -3.26251810588325        1.84452003231682        2.39634294888724
C            1.09053879908539        0.56778768852577        0.48857588068402
H            7.42554836548441        5.76653932414135        1.29972946241903
H            6.76929118512669        4.35120550463552        2.12758572890398
H            5.70851370133548        5.39136584778471        1.18130522282533
H            7.60900265949092        5.75859483660847       -1.25923563429408
H            7.05886651036596        4.34506378053819       -2.16403589265133
H            5.88895893552153        5.39628730939480       -1.36970428754720
H            8.71309545710481        3.00708012870952       -0.78328572579694
H            9.11596860604301        4.44862931651359        0.14134471187580
H            8.58576632051808        2.99888105155676        0.98563871013322
H            4.31910487121804        4.30779554374269       -0.20442772896847
H            2.59963794856935        2.59853382612276       -0.31600065237586
H            7.39657518819158        1.33051786447423       -0.00753069636740
H            7.51012914515703       -1.31477244885587       -0.00818042801217
H            8.87778370583947       -2.86557884914367        0.91007449068833
H            9.49830883405014       -4.27016365130267        0.05181709807015
H            8.93532094591882       -2.87598713586783       -0.86236053958909
H            6.22470077707865       -5.48750882415584        1.23617388116082
H            7.20957436316330       -4.33238098606776        2.13042826656163
H            7.97184602628453       -5.69815302669781        1.31021771777712
H            8.06295968428861       -5.73576714005172       -1.25503644600129
H            6.31628017262580       -5.51919638235111       -1.31829891921551
H            7.37090946620022       -4.39130809596781       -2.16727445053635
H            4.69715945379334       -4.54649910780070       -0.10896701542439
H            2.83447505418833       -2.98755763617184       -0.19759577906259
H            1.85730543830231       -1.67197453900724       -1.93036137405560
H           -0.59882057852872       -1.69449576289773       -2.11690116365857
H           -1.79212385228806       -3.05647959175410       -0.45426696635888
H           -3.60426094473375       -4.65533997385751       -0.23193536136773
H           -7.92247138651562       -4.54164786781915        1.25416914513436
H           -6.46062435484398       -3.82058191772360        1.93861921946720
H           -7.56607273762847       -2.83732809100661        0.98444048260655
H           -7.68167277912773       -3.14621853274510       -1.54329256719124
H           -6.71018221081134       -4.39659750386702       -2.31576234533443
H           -8.08582990154397       -4.84355620174102       -1.30264506098630
H           -6.72526226399159       -6.30835890990121        0.08421617684394
H           -5.31150451960850       -5.98244249502753       -0.91090085386836
H           -5.23625571882827       -5.76638917868393        0.84808640942805
H           -6.51415000694447       -1.52051061115729       -0.51557606200002
H           -6.46428674530150        1.14352354321393       -0.70306182821015
H           -4.81768381691613        5.22214568990551        0.39782119734922
H           -6.53959422623270        5.55585269781286        0.57121575554034
H           -5.82547367184656        4.14317068158199        1.35877364113419
H           -7.81683854210194        2.78806817376782       -1.51278970729199
H           -8.23035808052301        4.23342402558872       -0.59813446890180
H           -7.66466375813361        2.80247760362351        0.25504327810743
H           -5.04581649667628        5.23871932559123       -2.14575488360859
H           -6.21414744859290        4.17362604085057       -2.92418279057161
H           -6.76814670570698        5.57260792917778       -1.99949222185747
H           -3.44319421336231        4.16396175396348       -1.06917894307385
H           -1.68967718775923        2.47926080549478       -1.08327001820044
H           -1.93957256237265       -1.20991640602771        1.84766579305991
H           -5.67023680218002       -0.17100964011261        3.19011429181319
H           -3.03890373798809        2.90291756242834        2.41463363735051
H            1.55247764643783        1.19248230550149        1.23747351429605

 projected vibrational frequencies (cm⁻¹)
eigval :       -0.00    -0.00    -0.00    -0.00     0.00     0.00
eigval :       10.32    10.46    13.39    18.24    24.78    30.66
eigval :       31.54    33.30    33.77    42.28    44.04    57.84
eigval :       60.51    62.77    76.73    79.08    86.16    92.43
eigval :      102.11   112.50   117.86   134.45   136.56   142.57
eigval :      157.44   160.08   162.71   173.11   177.29   184.44
eigval :      191.94   193.44   199.50   205.19   214.33   215.28
eigval :      218.40   222.78   224.24   228.96   237.37   243.56
eigval :      258.02   265.23   272.83   274.35   283.46   296.82
eigval :      305.24   317.57   319.50   321.08   322.60   326.29
eigval :      327.14   328.86   339.26   344.32   349.98   356.61
eigval :      358.61   359.29   371.65   381.87   387.05   398.31
eigval :      401.28   408.14   408.83   411.02   424.83   429.54
eigval :      438.19   441.41   443.64   444.21   446.35   461.50
eigval :      465.48   466.03   466.52   481.42   493.36   499.09
eigval :      516.07   521.88   549.49   573.77   578.34   579.46
eigval :      585.38   587.12   590.71   601.23   603.44   619.14
eigval :      626.85   638.40   641.77   641.78   652.89   664.25
eigval :      682.29   688.48   690.67   706.05   707.09   710.87
eigval :      717.86   721.44   722.79   758.20   775.98   813.30
eigval :      818.17   823.58   824.86   827.74   831.24   831.72
eigval :      833.29   866.63   866.97   871.81   872.74   873.47
eigval :      875.90   876.63   883.89   889.05   900.04   910.14
eigval :      914.86   917.35   919.05   921.48   925.61   926.68
eigval :      933.66   941.11   958.87   960.40   960.45   960.59
eigval :      961.17   962.92   963.02   963.14   963.42   963.45
eigval :      963.61   963.88   965.36  1010.46  1031.28  1032.14
eigval :     1035.25  1035.36  1035.45  1035.59  1035.94  1036.15
eigval :     1040.02  1041.82  1087.48  1103.24  1112.78  1123.81
eigval :     1129.78  1130.14  1139.55  1145.94  1149.52  1164.66
eigval :     1168.06  1172.49  1199.90  1210.14  1212.80  1219.80
eigval :     1226.37  1226.89  1226.97  1227.25  1227.31  1229.82
eigval :     1231.01  1231.50  1232.15  1233.81  1235.24  1242.64
eigval :     1245.61  1254.88  1256.25  1259.53  1281.31  1283.09
eigval :     1286.39  1292.98  1298.52  1298.96  1302.94  1320.55
eigval :     1338.83  1343.15  1346.90  1347.76  1349.56  1356.75
eigval :     1384.47  1391.88  1401.65  1403.22  1404.14  1405.00
eigval :     1405.88  1406.10  1406.13  1406.29  1411.08  1413.01
eigval :     1429.00  1429.22  1429.61  1429.70  1431.74  1434.61
eigval :     1444.56  1453.85  1462.75  1464.20  1470.96  1475.99
eigval :     1480.52  1490.73  1490.92  1491.69  1492.00  1493.71
eigval :     1494.07  1494.24  1494.39  1494.54  1500.75  1500.82
eigval :     1500.93  1501.34  1504.20  1504.38  1505.05  1505.38
eigval :     1515.01  1515.10  1515.24  1515.25  1519.83  1519.86
eigval :     1520.17  1520.63  1526.27  1561.60  1565.67  1568.43
eigval :     1577.83  1580.11  1586.31  1589.17  1604.61  1609.62
eigval :     3022.41  3022.63  3022.75  3022.80  3023.11  3024.55
eigval :     3024.66  3024.83  3024.86  3027.40  3027.50  3027.79
eigval :     3028.21  3030.69  3030.87  3031.16  3031.35  3031.95
eigval :     3032.15  3032.90  3034.38  3035.81  3035.97  3036.32
eigval :     3037.19  3038.98  3039.44  3039.86  3040.58  3048.15
eigval :     3049.46  3049.85  3050.18  3051.33  3052.72  3053.31
eigval :     3053.64  3054.17  3081.85  3084.12  3084.99  3093.04
eigval :     3095.72  3095.83  3096.60  3103.52  3104.39  3104.59
eigval :     3105.39  3106.77  3117.70  3121.29  3121.81  3122.69

   temp. (K)  partition function   enthalpy   heat capacity  entropy
                                   cal/mol     cal/K/mol   cal/K/mol   J/K/mol
 298.15  VIB  0.449E+25            32170.978    197.150    199.273
         ROT  0.151E+09              888.752      2.981     40.411
         INT  0.680E+33            33059.731    200.131    239.685
         TR   0.194E+29             1481.254      4.968     45.659
         TOT                       34540.9844   205.0993   285.3439  1193.8788

       T/K    H(0)-H(T)+PV         H(T)/Eh          T*S/Eh         G(T)/Eh
   ------------------------------------------------------------------------
    298.15    0.550446E-01    0.961806E+00    0.135576E+00    0.826230E+00
   ------------------------------------------------------------------------

         :::::::::::::::::::::::::::::::::::::::::::::::::::::
         ::                  THERMODYNAMIC                  ::
         :::::::::::::::::::::::::::::::::::::::::::::::::::::
         :: total free energy        -151.750298615667 Eh   ::
         ::.................................................::
         :: total energy             -152.576528396504 Eh   ::
         :: zero point energy           0.906761298954 Eh   ::
         :: G(RRHO) w/o ZPVE           -0.080531518118 Eh   ::
         :: G(RRHO) contrib.            0.826229780837 Eh   ::
         :::::::::::::::::::::::::::::::::::::::::::::::::::::

           -------------------------------------------------
          | TOTAL ENERGY             -152.576528396504 Eh   |
          | TOTAL ENTHALPY           -151.614722535100 Eh   |
          | TOTAL FREE ENERGY        -151.750298615667 Eh   |
          | GRADIENT NORM               0.000090951455 Eh/α |
           -------------------------------------------------

 * finished run on 2025/09/04 at 03:56:44.566
