   * xtb version 6.7.1 (edcfbbe) compiled by 'albert@albert-system' on 2024-07-22

   ID    Z sym.   atoms
    1    6 C      1-18, 20-24, 26-32, 34-40, 42-44, 46-48
    2    7 N      19, 25, 33, 41, 45
    3    1 H      49-77

          program call               : xtb data2507/toluene/ICBNTrz4/ICBNTrz4_toluene_T1_crest.xyz --gfn 2 --uhf 2 --gbsa toluene --ohess vtight --parallel 40 --molden --ceasefiles --namespace data2507/toluene/ICBNTrz4/ICBNTrz4_toluene_T1_finalOpt
      * Solvation model:               GBSA
        Solvent                        toluene
        Solvent mass                       9.2140E+01 g/mol
          :  Hamiltonian                  GFN2-xTB          :
 * total energy  :  -121.5047622 Eh     change       -0.5075549E-09 Eh
 * total energy  :  -121.5049218 Eh     change       -0.1595739E-03 Eh
 * total energy  :  -121.5049379 Eh     change       -0.1619226E-04 Eh
 * total energy  :  -121.5050150 Eh     change       -0.7703727E-04 Eh
 * total energy  :  -121.5050327 Eh     change       -0.1767257E-04 Eh
 * total energy  :  -121.5050717 Eh     change       -0.3906445E-04 Eh
 * total energy  :  -121.5050906 Eh     change       -0.1891962E-04 Eh
 * total energy  :  -121.5051090 Eh     change       -0.1836860E-04 Eh
 * total energy  :  -121.5051149 Eh     change       -0.5912358E-05 Eh
 * total energy  :  -121.5051240 Eh     change       -0.9085857E-05 Eh
 * total energy  :  -121.5053104 Eh     change       -0.5310651E-06 Eh
 * total energy  :  -121.5053109 Eh     change       -0.5700110E-06 Eh
 * total energy  :  -121.5053115 Eh     change       -0.5913915E-06 Eh
 * total energy  :  -121.5053121 Eh     change       -0.5518802E-06 Eh
 * total energy  :  -121.5053125 Eh     change       -0.4814149E-06 Eh
 * total energy  :  -121.5053130 Eh     change       -0.4375791E-06 Eh
 * total energy  :  -121.5053134 Eh     change       -0.4171418E-06 Eh
 * total energy  :  -121.5053134 Eh     change        0.1548170E-07 Eh
 * total energy  :  -121.5053134 Eh     change       -0.1990541E-07 Eh
   *** GEOMETRY OPTIMIZATION CONVERGED AFTER 69 ITERATIONS ***

 final structure:
================
77
 xtb: 6.7.1 (edcfbbe)
C            4.21580755026982        3.35131948181738        0.66744096155149
C            4.79558047267931        2.15055060604018        1.42333012392635
C            4.29138031577401        2.13775557069114        2.87160713950727
C            6.30601538902836        2.15220657219711        1.37564745153923
C            7.18656485776227        3.09500857601825        1.85910316488269
C            8.55081319097189        2.88131720745707        1.70145981678887
C            9.02714938031214        1.73898743755406        1.06851864512268
C            8.15316779982284        0.78527472865399        0.58028385169184
C            6.78672299189668        0.99412056816703        0.73547944662877
C            5.66075806564656        0.18583579786954        0.33259529619643
C            5.63374111946472       -1.04896993331763       -0.30865178812210
C            4.39432539065126       -1.59848079140932       -0.57363106092398
C            3.97175765164685       -2.83191987199172       -1.18917424656268
C            4.64832373405503       -3.90354492620916       -1.74844329410968
C            3.90780344568562       -4.94706482146144       -2.28357584451154
C            2.51722899069379       -4.92286148534810       -2.27219489066946
C            1.81959825051185       -3.86150109912493       -1.71853463144529
C            2.55817817207254       -2.82493292517173       -1.16890432561079
N            2.11776937514258       -1.65415167445770       -0.57591300249263
C            0.77565357152455       -1.27851856410947       -0.43267724002419
C           -0.12922892074960       -2.09528342818830        0.25519711294248
C           -1.44292550701042       -1.73320709433183        0.39074081623235
C           -1.92772207627658       -0.51879371101432       -0.16532532059702
C           -3.28814330496080       -0.13891089451082       -0.03623323820066
N           -3.71640697638637        1.02159466136916       -0.59240805631731
C           -4.97961375592813        1.33999099487387       -0.46090553641420
C           -5.45302399964154        2.58957314816835       -1.05122202451090
C           -4.57046514051093        3.42680095458348       -1.73525388406432
C           -5.02316125009673        4.60446282790794       -2.29581774094163
C           -6.35874158237800        4.96252968055036       -2.18230744431085
C           -7.24119318605770        4.13646548547388       -1.50277807168120
C           -6.79418596983199        2.95727836689577       -0.93910668501419
N           -5.87548913372708        0.57007976478934        0.18645868680515
C           -5.40182158900503       -0.57110996993447        0.72073178296046
C           -6.34449399230869       -1.43362579128671        1.43010064417891
C           -5.90425222540858       -2.60261876827066        2.05213294150779
C           -6.79998280712200       -3.41421855851253        2.71950653094297
C           -8.14342004899175       -3.07248732548460        2.77488930351800
C           -8.58829147240865       -1.91283611672245        2.15849862152752
C           -7.69674514237760       -1.09606845024700        1.49049089917745
N           -4.14849472957224       -0.94211723675524        0.63833609579525
C           -1.02133667204360        0.29744999362368       -0.86468962164944
C            0.30347357568207       -0.06802245981172       -1.00466381333764
C            1.16095340171717        0.73833927209493       -1.77827235881844
N            1.84446323132263        1.39193219078196       -2.43195858031424
C            3.20287173897069       -0.90838703117777       -0.20974751650080
C            3.23330606478814        0.31759651770891        0.46154106645510
C            4.46988799419231        0.85127307640087        0.72042764635279
H            4.56235147351383        3.35401736100704       -0.36379592588876
H            3.12949447228811        3.30654589568159        0.66419254040351
H            4.52454815862029        4.27897776689140        1.14259176358785
H            3.20655865161608        2.06830326957342        2.89138063276391
H            4.59011079771612        3.05092935660747        3.37986569243361
H            4.70591031600006        1.28772651507288        3.40973571995572
H            6.83102085056009        3.98742284312066        2.35204570376925
H            9.25143295750608        3.61320451703678        2.07588365659380
H           10.09228737323325        1.59752452579281        0.95797660122775
H            8.52338158628228       -0.10136262831708        0.08858599350707
H            6.54276939625024       -1.55870647183561       -0.58520638178552
H            5.72675521880461       -3.92270539259111       -1.77111898800589
H            4.41734353982701       -5.79078929396360       -2.72381908633955
H            1.96804402253097       -5.74434352285281       -2.70669726391342
H            0.74059776685363       -3.83876423602469       -1.72222383542451
H            0.23415581060410       -3.01142601693888        0.69742618915820
H           -2.13874332734213       -2.35846709194419        0.92650638090341
H           -3.53447971362317        3.13463819473772       -1.81690435819073
H           -4.33397970970218        5.24689707827254       -2.82424164939669
H           -6.71036081537033        5.88377578218013       -2.62260365805113
H           -8.28119651875485        4.41417573565207       -1.41304136719121
H           -7.46785541020698        2.30355715183493       -0.40658851676514
H           -4.85609652516389       -2.85472293308803        2.00143780192862
H           -6.45211918605354       -4.31729688919036        3.19944397280647
H           -8.84192951650264       -3.70924736532938        3.29724540123065
H           -9.63405872924658       -1.64549796992522        2.19967733799698
H           -8.02684298566098       -0.19027076222093        1.00538193901663
H           -1.38169938164948        1.21369612387171       -1.30775656439615
H            2.32160047521362        0.81096959452885        0.76148516325163

          :  Hamiltonian                  GFN2-xTB          :
         :: gradient norm              0.000081459084 Eh/a0 ::
         :: HOMO-LUMO gap              0.275926899588 eV    ::
         :: SCC energy              -123.740138269994 Eh    ::
         :: -> dispersion             -0.105690913767 Eh    ::
         :: -> Gsolv                  -0.061577884763 Eh    ::
         :: repulsion energy           2.234824864695 Eh    ::

    * Orbital Energies and Occupations

         #    Occupation            Energy/Eh            Energy/eV
      -------------------------------------------------------------
         1        2.0000           -0.6972734             -18.9738
       ...           ...                  ...                  ...
       102        2.0000           -0.4215208             -11.4702
       103        2.0000           -0.4132136             -11.2441
       104        2.0000           -0.4127220             -11.2307
       105        2.0000           -0.4125433             -11.2259
       106        2.0000           -0.4099007             -11.1540
       107        2.0000           -0.4078440             -11.0980
       108        2.0000           -0.4071106             -11.0780
       109        2.0000           -0.4035558             -10.9813
       110        2.0000           -0.3922963             -10.6749
       111        1.8484           -0.3764616             -10.2440
       112        1.7751           -0.3760010             -10.2315
       113        1.3765           -0.3743463             -10.1865
       114        0.9952           -0.2937020              -7.9920 (HOMO)
       115        0.0048           -0.2835619              -7.7161 (LUMO)
       116                         -0.2700327              -7.3480
       117                         -0.2628321              -7.1520
       118                         -0.2602227              -7.0810
       119                         -0.2479655              -6.7475
       120                         -0.2302164              -6.2645
       121                         -0.2298500              -6.2545
       122                         -0.2296799              -6.2499
       123                         -0.2275206              -6.1912
       124                         -0.2133970              -5.8068
       125                         -0.2107484              -5.7348
       ...                                ...                  ...
       221                          1.1549878              31.4288
      -------------------------------------------------------------
                  HL-Gap            0.0101401 Eh            0.2759 eV

     #   Z          covCN         q      C6AA      α(0)
     1   6 C        3.758    -0.101    22.483     6.760
     2   6 C        3.933     0.021    20.152     6.380
     3   6 C        3.758    -0.102    22.505     6.763
     4   6 C        3.054     0.008    27.794     8.646
     5   6 C        2.913    -0.030    28.754     8.793
     6   6 C        2.922    -0.024    28.600     8.770
     7   6 C        2.919    -0.029    28.724     8.789
     8   6 C        2.913    -0.029    28.732     8.790
     9   6 C        3.034     0.008    27.799     8.648
    10   6 C        3.036     0.008    27.811     8.650
    11   6 C        2.906    -0.030    28.744     8.791
    12   6 C        3.067    -0.009    28.181     8.705
    13   6 C        3.062    -0.010    28.208     8.709
    14   6 C        2.912    -0.026    28.647     8.777
    15   6 C        2.920    -0.031    28.772     8.796
    16   6 C        2.923    -0.029    28.723     8.789
    17   6 C        2.909    -0.039    28.969     8.826
    18   6 C        3.077     0.046    26.896     8.503
    19   7 N        2.801    -0.008    21.418     6.874
    20   6 C        2.915     0.034    27.247     8.560
    21   6 C        2.913    -0.040    28.983     8.828
    22   6 C        2.918    -0.042    29.035     8.836
    23   6 C        2.975    -0.019    28.466     8.752
    24   6 C        2.940     0.171    24.331     8.090
    25   7 N        1.845    -0.300    28.637     7.931
    26   6 C        2.936     0.210    23.560     7.961
    27   6 C        2.983    -0.009    28.232     8.716
    28   6 C        2.923    -0.029    28.720     8.788
    29   6 C        2.918    -0.029    28.723     8.788
    30   6 C        2.920    -0.027    28.672     8.781
    31   6 C        2.918    -0.029    28.721     8.788
    32   6 C        2.924    -0.029    28.714     8.788
    33   7 N        1.844    -0.334    29.506     8.050
    34   6 C        2.936     0.210    23.562     7.961
    35   6 C        2.983    -0.008    28.223     8.714
    36   6 C        2.923    -0.029    28.726     8.789
    37   6 C        2.918    -0.029    28.724     8.789
    38   6 C        2.920    -0.027    28.671     8.781
    39   6 C        2.918    -0.029    28.720     8.788
    40   6 C        2.924    -0.028    28.708     8.787
    41   7 N        1.845    -0.297    28.555     7.920
    42   6 C        2.933    -0.027    28.665     8.781
    43   6 C        2.967    -0.001    28.056     8.688
    44   6 C        1.914     0.119    28.167     8.571
    45   7 N        0.911    -0.286    27.373     7.567
    46   6 C        3.076     0.051    26.780     8.485
    47   6 C        2.905    -0.041    29.022     8.833
    48   6 C        3.055     0.005    27.847     8.654
    49   1 H        0.925     0.040     2.445     2.445
    50   1 H        0.925     0.043     2.408     2.427
    51   1 H        0.925     0.051     2.303     2.373
    52   1 H        0.925     0.045     2.384     2.415
    53   1 H        0.925     0.052     2.299     2.371
    54   1 H        0.925     0.040     2.445     2.445
    55   1 H        0.926     0.043     2.415     2.430
    56   1 H        0.926     0.043     2.406     2.425
    57   1 H        0.926     0.042     2.424     2.434
    58   1 H        0.926     0.044     2.397     2.421
    59   1 H        0.926     0.057     2.239     2.340
    60   1 H        0.926     0.051     2.309     2.376
    61   1 H        0.926     0.048     2.347     2.396
    62   1 H        0.926     0.046     2.366     2.405
    63   1 H        0.926     0.042     2.421     2.433
    64   1 H        0.926     0.047     2.359     2.402
    65   1 H        0.926     0.045     2.387     2.416
    66   1 H        0.926     0.041     2.438     2.442
    67   1 H        0.926     0.043     2.412     2.429
    68   1 H        0.926     0.045     2.380     2.413
    69   1 H        0.926     0.043     2.405     2.425
    70   1 H        0.926     0.045     2.382     2.413
    71   1 H        0.926     0.044     2.398     2.422
    72   1 H        0.926     0.043     2.404     2.424
    73   1 H        0.926     0.045     2.383     2.414
    74   1 H        0.926     0.043     2.411     2.428
    75   1 H        0.926     0.045     2.388     2.417
    76   1 H        0.926     0.042     2.423     2.434
    77   1 H        0.926     0.036     2.496     2.471

molecular dipole:
                 x           y           z       tot (Debye)
 q only:        3.543      -0.747       1.095
   full:        3.084      -0.925       1.250       8.779

 projected vibrational frequencies (cm⁻¹)
eigval :       -0.00    -0.00     0.00     0.00     0.00     0.00
eigval :       11.31    13.22    17.24    33.57    34.74    40.39
eigval :       45.30    50.50    52.93    55.45    61.21    80.57
eigval :       94.71    99.92   106.85   109.07   123.12   131.53
eigval :      133.79   144.16   151.68   156.44   187.78   195.06
eigval :      201.50   211.19   215.56   219.95   229.09   238.77
eigval :      248.12   252.32   276.68   289.04   302.78   318.13
eigval :      332.25   350.72   363.49   364.08   368.33   369.30
eigval :      372.41   387.88   394.51   402.57   409.49   414.26
eigval :      436.23   444.91   462.17   486.34   490.16   509.23
eigval :      531.81   536.67   538.65   541.96   548.88   558.39
eigval :      561.86   566.93   578.94   587.34   588.43   596.21
eigval :      603.20   609.88   610.52   636.57   648.79   653.23
eigval :      659.34   666.19   667.00   688.71   697.97   707.85
eigval :      713.71   722.71   727.91   734.07   764.93   766.05
eigval :      772.10   773.16   798.68   802.29   807.85   828.31
eigval :      845.83   859.64   860.30   867.77   870.96   873.53
eigval :      876.09   888.50   900.10   901.94   902.32   905.07
eigval :      907.67   912.37   916.46   921.52   925.58   925.75
eigval :      927.17   928.86   929.33   946.34   962.24   965.93
eigval :      970.12   986.01   992.54  1007.14  1011.09  1057.46
eigval :     1064.69  1068.78  1072.54  1073.73  1075.74  1092.39
eigval :     1096.54  1108.59  1109.55  1124.08  1143.05  1145.61
eigval :     1160.01  1169.61  1170.57  1174.34  1177.01  1177.55
eigval :     1177.72  1182.95  1189.02  1194.89  1200.24  1204.54
eigval :     1215.32  1226.06  1232.69  1248.09  1260.93  1265.63
eigval :     1267.11  1270.10  1270.65  1281.15  1288.81  1328.14
eigval :     1328.59  1332.20  1335.31  1339.57  1353.49  1357.30
eigval :     1376.26  1387.66  1392.62  1403.98  1408.23  1409.67
eigval :     1418.53  1425.82  1434.04  1436.88  1443.08  1450.50
eigval :     1458.82  1464.42  1465.08  1477.47  1480.11  1483.63
eigval :     1489.77  1491.96  1492.55  1503.38  1530.32  1545.19
eigval :     1566.03  1571.19  1573.45  1574.52  1577.71  1585.27
eigval :     1586.40  1591.05  1598.42  2336.97  3029.35  3034.21
eigval :     3035.77  3037.12  3042.09  3044.48  3074.28  3074.58
eigval :     3076.24  3077.66  3078.13  3080.80  3081.62  3085.60
eigval :     3087.91  3088.68  3088.91  3090.14  3090.71  3092.93
eigval :     3094.55  3095.40  3096.15  3097.35  3098.41  3099.94
eigval :     3101.55  3103.16  3108.40

   temp. (K)  partition function   enthalpy   heat capacity  entropy
                                   cal/mol     cal/K/mol   cal/K/mol   J/K/mol
 298.15  VIB  0.501E+18            23145.295    144.467    144.221
         ROT  0.106E+09              888.752      2.981     39.706
         INT  0.531E+26            24034.047    147.448    183.927
         TR   0.148E+29             1481.254      4.968     45.115
         TOT                       25515.3010   152.4164   229.0426   958.3143

       T/K    H(0)-H(T)+PV         H(T)/Eh          T*S/Eh         G(T)/Eh
   ------------------------------------------------------------------------
    298.15    0.406612E-01    0.622293E+00    0.108826E+00    0.513467E+00
   ------------------------------------------------------------------------

         :::::::::::::::::::::::::::::::::::::::::::::::::::::
         ::                  THERMODYNAMIC                  ::
         :::::::::::::::::::::::::::::::::::::::::::::::::::::
         :: total free energy        -120.991846276999 Eh   ::
         ::.................................................::
         :: total energy             -121.505313400855 Eh   ::
         :: zero point energy           0.581631438388 Eh   ::
         :: G(RRHO) w/o ZPVE           -0.068164314532 Eh   ::
         :: G(RRHO) contrib.            0.513467123856 Eh   ::
         :::::::::::::::::::::::::::::::::::::::::::::::::::::

           -------------------------------------------------
          | TOTAL ENERGY             -121.505313400855 Eh   |
          | TOTAL ENTHALPY           -120.883020742124 Eh   |
          | TOTAL FREE ENERGY        -120.991846276999 Eh   |
          | GRADIENT NORM               0.000083658643 Eh/α |
          | HOMO-LUMO GAP               0.275926652578 eV   |
           -------------------------------------------------

 * finished run on 2025/09/13 at 07:32:21.435
