   * xtb version 6.7.1 (edcfbbe) compiled by 'albert@albert-system' on 2024-07-22

   ID    Z sym.   atoms
    1    6 C      1-18, 20-24, 26-32, 34-40, 42-44, 46-48
    2    7 N      19, 25, 33, 41, 45
    3    1 H      49-77

          program call               : xtb data2507/toluene/ICBNTrz4/ICBNTrz4.xyz --gfn 2 --gbsa toluene --ohess vtight --parallel 40 --molden --ceasefiles --namespace data2507/toluene/ICBNTrz4/ICBNTrz4_toluene_S0_preOpt
      * Solvation model:               GBSA
        Solvent                        toluene
        Solvent mass                       9.2140E+01 g/mol
          :  Hamiltonian                  GFN2-xTB          :
 * total energy  :  -121.5638742 Eh     change       -0.2327738E-08 Eh
 * total energy  :  -121.5749513 Eh     change       -0.1107704E-01 Eh
 * total energy  :  -121.5760779 Eh     change       -0.1126659E-02 Eh
 * total energy  :  -121.5781185 Eh     change       -0.2040619E-02 Eh
 * total energy  :  -121.5788566 Eh     change       -0.7380257E-03 Eh
 * total energy  :  -121.5791732 Eh     change       -0.3166752E-03 Eh
 * total energy  :  -121.5793589 Eh     change       -0.1856628E-03 Eh
 * total energy  :  -121.5794465 Eh     change       -0.8761778E-04 Eh
 * total energy  :  -121.5795009 Eh     change       -0.5442264E-04 Eh
 * total energy  :  -121.5795362 Eh     change       -0.3521433E-04 Eh
 * total energy  :  -121.5796602 Eh     change       -0.1068529E-05 Eh
 * total energy  :  -121.5796611 Eh     change       -0.8815441E-06 Eh
 * total energy  :  -121.5796618 Eh     change       -0.7262523E-06 Eh
 * total energy  :  -121.5796623 Eh     change       -0.5025478E-06 Eh
 * total energy  :  -121.5796627 Eh     change       -0.3638059E-06 Eh
 * total energy  :  -121.5796630 Eh     change       -0.3453311E-06 Eh
 * total energy  :  -121.5796634 Eh     change       -0.3273860E-06 Eh
 * total energy  :  -121.5796637 Eh     change       -0.3480456E-06 Eh
 * total energy  :  -121.5796637 Eh     change       -0.8738326E-08 Eh
   *** GEOMETRY OPTIMIZATION CONVERGED AFTER 44 ITERATIONS ***

 final structure:
================
77
 xtb: 6.7.1 (edcfbbe)
C            4.21400513156146        3.16748279362077        0.37453920377276
C            4.71580386247275        1.95704026077120        1.16949463116177
C            4.16230695902031        1.99136008798034        2.59872354112771
C            6.22704757747068        1.89613436227246        1.17170609855454
C            7.12797147729680        2.80903742658655        1.67686842791354
C            8.48668872404690        2.54239037516430        1.56679020240529
C            8.93402584102341        1.37965652777666        0.95827334810446
C            8.03510811293927        0.45659416368237        0.44828226895873
C            6.67895125440130        0.71936290666740        0.55779349002057
C            5.52485921799832       -0.05308212033118        0.12636920294746
C            5.45927516512680       -1.28655734601605       -0.49389335992302
C            4.19729731107419       -1.79017430794368       -0.78222772494908
C            3.74966130425957       -3.02633264829493       -1.36684666253751
C            4.41360287082184       -4.12432063880576       -1.89745556479608
C            3.66512833895869       -5.16387823707646       -2.41524588926005
C            2.27381777902792       -5.11115973817306       -2.42159392879097
C            1.59068348622466       -4.02765869130759       -1.89908300870422
C            2.33847151227998       -2.99411408002922       -1.35688284629044
N            1.91604029483434       -1.78916937489757       -0.81343489610367
C            0.59412968942597       -1.39313974297836       -0.66030822235759
C           -0.32493420770557       -2.23118111347321       -0.02664991271241
C           -1.63538594856770       -1.84082486521200        0.14215233526988
C           -2.07208636225873       -0.59610164219925       -0.31907364065526
C           -3.46552620376007       -0.18393700131321       -0.13959641899006
N           -3.83937081110151        0.98299860127528       -0.65443712951543
C           -5.12049298121126        1.30857305763546       -0.48495221570738
C           -5.58808532529074        2.57463060235205       -1.04655720655439
C           -4.71199224368738        3.39544568742482       -1.75665242544428
C           -5.15935521586812        4.58863210809303       -2.29037085580335
C           -6.48078817610129        4.97392728565376       -2.12149802082297
C           -7.35671612001283        4.16274274428353       -1.41564802278539
C           -6.91557110126332        2.96861195519645       -0.87909825587287
N           -5.99862865884093        0.54708855452188        0.16251893346374
C           -5.53430637826972       -0.59737486793554        0.65670173057191
C           -6.46159633748924       -1.46118018720589        1.38541133708826
C           -5.99657062171097       -2.61155215975203        2.02244310836876
C           -6.87540607851995       -3.42603386554382        2.71009022273782
C           -8.22284572501404       -3.10303196580938        2.76763578179775
C           -8.69146674920429       -1.96070343885035        2.13610650727010
C           -7.81742342703261       -1.14066460804060        1.44882041835235
N           -4.27256295262453       -1.00533859327949        0.52389775059114
C           -1.17359299238001        0.24384746277133       -0.96483833995539
C            0.15021497176016       -0.14570766446067       -1.14406970952434
C            1.00598456879847        0.69581827615070       -1.89035662509788
N            1.65647216280279        1.38171763719390       -2.54077228979507
C            3.03650949643053       -1.05096484419545       -0.46028239629357
C            3.10277619081832        0.17329295043797        0.19456330167054
C            4.35929713505214        0.66141666532248        0.47451033503013
H            4.60127965544644        3.13809248328925       -0.64177385134880
H            3.12751784402077        3.16630964011185        0.32838680069477
H            4.54262785063016        4.09017321343259        0.84674058491610
H            3.07501790646152        1.97128328823961        2.58323801215616
H            4.48596497916044        2.89778473837255        3.10441844149158
H            4.51969196917497        1.13190808369904        3.16262544166532
H            6.79115867855312        3.71909877484084        2.15189913210033
H            9.20326500869013        3.24969145900328        1.95912600466784
H            9.99559598566331        1.19181801592643        0.88183893679817
H            8.38668429406461       -0.44829327975430       -0.02508970559646
H            6.34898244720881       -1.84549614916976       -0.73829671250627
H            5.49227857590876       -4.15715453936100       -1.90940861435834
H            4.16237735270434       -6.02739872758141       -2.83143956421576
H            1.71416783901744       -5.93072959935379       -2.84735285112447
H            0.51215152621966       -3.98939969731033       -1.92697413205019
H            0.01362647712712       -3.18370822287006        0.35136534838417
H           -2.34268124898913       -2.48396687341534        0.64094232483112
H           -3.68757994708867        3.08054690344271       -1.88080534761837
H           -4.47719617857818        5.22013710775772       -2.83996707565254
H           -6.82824823480904        5.90659015113685       -2.54047036277103
H           -8.38542947137081        4.46357689361422       -1.28439056358894
H           -7.58227084045825        2.32581249103719       -0.32586817101204
H           -4.94495361781695       -2.84612834076748        1.97009906482642
H           -6.51082017145546       -4.31488695756266        3.20322595001932
H           -8.90801389878103       -3.74177366424727        3.30494151754132
H           -9.74088646204367       -1.71018498912886        2.18040753916878
H           -8.16456635144421       -0.24897558550549        0.95067055266160
H           -1.51322716869898        1.19765916259675       -1.33802756467444
H            2.21206038348144        0.71399546982425        0.47806825666024

          :  Hamiltonian                  GFN2-xTB          :
         :: gradient norm              0.000074084892 Eh/a0 ::
         :: HOMO-LUMO gap              1.673894531238 eV    ::
         :: SCC energy              -123.824874863030 Eh    ::
         :: -> dispersion             -0.105963172647 Eh    ::
         :: -> Gsolv                  -0.056780490147 Eh    ::
         :: repulsion energy           2.245211134880 Eh    ::

    * Orbital Energies and Occupations

         #    Occupation            Energy/Eh            Energy/eV
      -------------------------------------------------------------
         1        2.0000           -0.6978222             -18.9887
       ...           ...                  ...                  ...
       101        2.0000           -0.4194933             -11.4150
       102        2.0000           -0.4193490             -11.4111
       103        2.0000           -0.4190421             -11.4027
       104        2.0000           -0.4168761             -11.3438
       105        2.0000           -0.4164418             -11.3320
       106        2.0000           -0.4145579             -11.2807
       107        2.0000           -0.4117482             -11.2042
       108        2.0000           -0.3987031             -10.8493
       109        2.0000           -0.3942721             -10.7287
       110        2.0000           -0.3880529             -10.5595
       111        2.0000           -0.3867689             -10.5245
       112        2.0000           -0.3811092             -10.3705
       113        2.0000           -0.3665282              -9.9737 (HOMO)
       114                         -0.3050137              -8.2998 (LUMO)
       115                         -0.2988450              -8.1320
       116                         -0.2859977              -7.7824
       117                         -0.2605870              -7.0909
       118                         -0.2502467              -6.8096
       119                         -0.2470150              -6.7216
       120                         -0.2366187              -6.4387
       121                         -0.2364743              -6.4348
       122                         -0.2268389              -6.1726
       123                         -0.2225650              -6.0563
       124                         -0.2185802              -5.9479
       ...                                ...                  ...
       221                          1.1491635              31.2703
      -------------------------------------------------------------
                  HL-Gap            0.0615145 Eh            1.6739 eV

     #   Z          covCN         q      C6AA      α(0)
     1   6 C        3.758    -0.098    22.428     6.752
     2   6 C        3.935     0.019    20.193     6.386
     3   6 C        3.758    -0.099    22.442     6.754
     4   6 C        3.053    -0.002    28.020     8.681
     5   6 C        2.915    -0.035    28.862     8.810
     6   6 C        2.921    -0.035    28.863     8.810
     7   6 C        2.921    -0.035    28.861     8.810
     8   6 C        2.914    -0.036    28.898     8.815
     9   6 C        3.035    -0.001    28.011     8.681
    10   6 C        3.035    -0.008    28.173     8.706
    11   6 C        2.909    -0.038    28.949     8.823
    12   6 C        3.067    -0.018    28.382     8.736
    13   6 C        3.065    -0.013    28.273     8.719
    14   6 C        2.913    -0.032    28.807     8.801
    15   6 C        2.920    -0.039    28.962     8.825
    16   6 C        2.924    -0.033    28.823     8.804
    17   6 C        2.910    -0.051    29.269     8.871
    18   6 C        3.064     0.045    26.934     8.510
    19   7 N        2.801    -0.043    22.063     6.976
    20   6 C        2.915     0.079    26.243     8.400
    21   6 C        2.919    -0.039    28.976     8.827
    22   6 C        2.921    -0.019    28.482     8.752
    23   6 C        2.981    -0.009    28.230     8.715
    24   6 C        2.983     0.214    23.483     7.949
    25   7 N        1.844    -0.322    29.207     8.009
    26   6 C        2.979     0.216    23.442     7.942
    27   6 C        2.983    -0.010    28.252     8.719
    28   6 C        2.923    -0.025    28.628     8.774
    29   6 C        2.918    -0.027    28.664     8.780
    30   6 C        2.920    -0.021    28.525     8.758
    31   6 C        2.918    -0.026    28.662     8.779
    32   6 C        2.923    -0.025    28.632     8.775
    33   7 N        1.844    -0.317    29.055     7.988
    34   6 C        2.979     0.216    23.456     7.944
    35   6 C        2.983    -0.009    28.244     8.718
    36   6 C        2.923    -0.025    28.639     8.776
    37   6 C        2.918    -0.027    28.667     8.780
    38   6 C        2.920    -0.021    28.531     8.759
    39   6 C        2.918    -0.026    28.662     8.779
    40   6 C        2.923    -0.025    28.628     8.774
    41   7 N        1.844    -0.319    29.123     7.998
    42   6 C        2.933    -0.017    28.435     8.745
    43   6 C        2.972     0.004    27.934     8.669
    44   6 C        1.912     0.125    28.043     8.552
    45   7 N        0.911    -0.257    26.682     7.471
    46   6 C        3.067     0.043    26.962     8.514
    47   6 C        2.907    -0.051    29.270     8.871
    48   6 C        3.057    -0.001    27.987     8.676
    49   1 H        0.925     0.037     2.488     2.466
    50   1 H        0.925     0.039     2.458     2.452
    51   1 H        0.925     0.046     2.369     2.407
    52   1 H        0.925     0.040     2.447     2.446
    53   1 H        0.925     0.046     2.367     2.406
    54   1 H        0.925     0.036     2.501     2.473
    55   1 H        0.926     0.031     2.575     2.509
    56   1 H        0.926     0.030     2.582     2.513
    57   1 H        0.926     0.030     2.591     2.517
    58   1 H        0.926     0.030     2.580     2.512
    59   1 H        0.926     0.040     2.452     2.449
    60   1 H        0.926     0.039     2.468     2.457
    61   1 H        0.926     0.036     2.500     2.473
    62   1 H        0.926     0.037     2.487     2.466
    63   1 H        0.926     0.031     2.566     2.505
    64   1 H        0.926     0.067     2.118     2.276
    65   1 H        0.926     0.070     2.083     2.257
    66   1 H        0.926     0.049     2.338     2.391
    67   1 H        0.926     0.049     2.338     2.391
    68   1 H        0.926     0.052     2.299     2.371
    69   1 H        0.926     0.050     2.325     2.384
    70   1 H        0.926     0.052     2.289     2.366
    71   1 H        0.926     0.051     2.306     2.375
    72   1 H        0.926     0.049     2.332     2.388
    73   1 H        0.926     0.051     2.304     2.374
    74   1 H        0.926     0.049     2.333     2.389
    75   1 H        0.926     0.051     2.302     2.373
    76   1 H        0.926     0.062     2.171     2.304
    77   1 H        0.926     0.021     2.711     2.575

molecular dipole:
                 x           y           z       tot (Debye)
 q only:       -1.119      -0.553       0.954
   full:       -1.470      -0.751       1.131       5.088

 projected vibrational frequencies (cm⁻¹)
eigval :       -0.00    -0.00    -0.00    -0.00     0.00     0.00
eigval :        5.31    12.68    14.67    19.15    33.33    37.83
eigval :       41.90    46.87    52.75    57.83    61.30    82.10
eigval :       91.94    96.34   105.57   110.43   124.59   134.08
eigval :      134.99   145.15   152.49   160.84   180.88   187.97
eigval :      202.03   205.16   211.77   219.87   230.84   243.39
eigval :      251.30   261.90   285.89   293.19   305.66   327.00
eigval :      333.85   356.66   357.40   360.69   367.22   372.09
eigval :      375.25   402.18   406.64   415.08   422.72   433.51
eigval :      442.80   461.78   466.85   489.06   499.76   512.50
eigval :      535.33   542.66   543.96   550.35   557.34   562.78
eigval :      578.05   586.29   586.80   592.31   610.12   613.14
eigval :      622.13   628.50   643.80   646.63   651.13   669.50
eigval :      672.64   675.12   687.07   698.35   707.15   716.97
eigval :      722.65   733.93   750.87   767.48   773.40   775.16
eigval :      780.15   795.84   801.04   829.06   843.85   845.90
eigval :      846.70   868.19   870.91   872.95   875.55   880.13
eigval :      885.99   901.31   905.75   909.36   910.40   911.79
eigval :      919.86   927.86   928.41   928.89   930.59   931.80
eigval :      933.77   935.44   948.69   964.48   973.08   983.14
eigval :      989.06  1011.81  1012.45  1048.16  1066.85  1072.65
eigval :     1073.99  1074.79  1077.97  1086.47  1099.16  1103.91
eigval :     1108.55  1112.12  1132.37  1147.61  1153.31  1166.42
eigval :     1171.56  1171.75  1176.18  1178.42  1178.92  1180.56
eigval :     1187.55  1200.93  1202.26  1207.63  1211.58  1214.22
eigval :     1228.73  1233.39  1238.02  1261.59  1267.04  1267.57
eigval :     1269.95  1274.85  1311.07  1321.10  1326.15  1327.91
eigval :     1339.90  1345.28  1353.63  1361.57  1368.38  1369.44
eigval :     1386.53  1392.23  1406.59  1409.13  1421.28  1427.61
eigval :     1428.41  1429.92  1443.76  1461.94  1462.37  1469.19
eigval :     1473.92  1475.92  1482.10  1485.62  1492.94  1495.34
eigval :     1500.87  1505.28  1510.85  1543.16  1568.36  1572.87
eigval :     1580.31  1582.56  1584.77  1591.54  1591.57  1592.45
eigval :     1599.51  1602.57  1610.54  2361.98  3026.20  3029.47
eigval :     3031.11  3032.27  3037.79  3039.78  3066.61  3071.35
eigval :     3076.69  3077.66  3078.60  3078.87  3079.65  3082.37
eigval :     3083.62  3084.55  3086.97  3089.06  3092.54  3093.67
eigval :     3094.70  3097.46  3098.98  3103.19  3104.96  3105.81
eigval :     3106.81  3107.33  3115.61

   temp. (K)  partition function   enthalpy   heat capacity  entropy
                                   cal/mol     cal/K/mol   cal/K/mol   J/K/mol
 298.15  VIB  0.208E+19            22897.110    141.914    144.024
         ROT  0.106E+09              888.752      2.981     39.705
         INT  0.221E+27            23785.862    144.895    183.728
         TR   0.148E+29             1481.254      4.968     45.115
         TOT                       25267.1163   149.8632   228.8438   957.4826

       T/K    H(0)-H(T)+PV         H(T)/Eh          T*S/Eh         G(T)/Eh
   ------------------------------------------------------------------------
    298.15    0.402657E-01    0.626552E+00    0.108731E+00    0.517821E+00
   ------------------------------------------------------------------------

         :::::::::::::::::::::::::::::::::::::::::::::::::::::
         ::                  THERMODYNAMIC                  ::
         :::::::::::::::::::::::::::::::::::::::::::::::::::::
         :: total free energy        -121.061842799251 Eh   ::
         ::.................................................::
         :: total energy             -121.579663725777 Eh   ::
         :: zero point energy           0.586286303554 Eh   ::
         :: G(RRHO) w/o ZPVE           -0.068465377028 Eh   ::
         :: G(RRHO) contrib.            0.517820926527 Eh   ::
         :::::::::::::::::::::::::::::::::::::::::::::::::::::

           -------------------------------------------------
          | TOTAL ENERGY             -121.579663725777 Eh   |
          | TOTAL ENTHALPY           -120.953111709337 Eh   |
          | TOTAL FREE ENERGY        -121.061842799251 Eh   |
          | GRADIENT NORM               0.000074033666 Eh/α |
          | HOMO-LUMO GAP               1.673894850514 eV   |
           -------------------------------------------------

 * finished run on 2025/09/13 at 07:21:25.275
