   * xtb version 6.7.1 (edcfbbe) compiled by 'albert@albert-system' on 2024-07-22

   ID    Z sym.   atoms
    1    6 C      1-18, 20-24, 26-32, 34-40, 42-44, 46-48
    2    7 N      19, 25, 33, 41, 45
    3    1 H      49-77

          program call               : xtb data2507/toluene/ICBNTrz4/ICBNTrz4_toluene_S0_finalOpt.xtbopt.xyz --gfn 2 --uhf 2 --gbsa toluene --ohess vtight --parallel 40 --molden --ceasefiles --namespace data2507/toluene/ICBNTrz4/ICBNTrz4_toluene_T1_preOpt
      * Solvation model:               GBSA
        Solvent                        toluene
        Solvent mass                       9.2140E+01 g/mol
          :  Hamiltonian                  GFN2-xTB          :
 * total energy  :  -121.5005658 Eh     change       -0.1229719E-06 Eh
 * total energy  :  -121.5032971 Eh     change       -0.2731326E-02 Eh
 * total energy  :  -121.5047594 Eh     change       -0.1462310E-02 Eh
 * total energy  :  -121.5048957 Eh     change       -0.1363208E-03 Eh
 * total energy  :  -121.5049884 Eh     change       -0.9268857E-04 Eh
 * total energy  :  -121.5050341 Eh     change       -0.4568694E-04 Eh
 * total energy  :  -121.5050447 Eh     change       -0.1065041E-04 Eh
 * total energy  :  -121.5050591 Eh     change       -0.1439482E-04 Eh
 * total energy  :  -121.5050668 Eh     change       -0.7679198E-05 Eh
 * total energy  :  -121.5050781 Eh     change       -0.1123417E-04 Eh
 * total energy  :  -121.5051463 Eh     change       -0.7848719E-06 Eh
 * total energy  :  -121.5051471 Eh     change       -0.8694708E-06 Eh
 * total energy  :  -121.5051482 Eh     change       -0.1079260E-05 Eh
 * total energy  :  -121.5051493 Eh     change       -0.1049403E-05 Eh
 * total energy  :  -121.5051502 Eh     change       -0.9694989E-06 Eh
 * total energy  :  -121.5051512 Eh     change       -0.9366590E-06 Eh
 * total energy  :  -121.5051521 Eh     change       -0.9416227E-06 Eh
 * total energy  :  -121.5051531 Eh     change       -0.1012621E-05 Eh
 * total energy  :  -121.5051532 Eh     change       -0.2755472E-07 Eh
   *** GEOMETRY OPTIMIZATION CONVERGED AFTER 44 ITERATIONS ***

 final structure:
================
77
 xtb: 6.7.1 (edcfbbe)
C            4.20372142453060        3.36207033631112        0.49363015123181
C            4.76230301227097        2.19855421607908        1.32062327528447
C            4.22404021998723        2.25621432235242        2.75531679074461
C            6.27344995516567        2.19702193604419        1.30622643277993
C            7.14477159979331        3.16035350713181        1.76525236880391
C            8.51183433620707        2.93959100050254        1.64596543768013
C            8.99996266043660        1.77059020460500        1.07356349321549
C            8.13531338517123        0.79624125754686        0.61010759383733
C            6.76614067620736        1.01179072337841        0.72781578161503
C            5.64800745270688        0.18643782208789        0.33841087391328
C            5.63259137106968       -1.07636785856694       -0.24596190657846
C            4.39823066156464       -1.63671929563454       -0.51149440510154
C            3.98881806393384       -2.89775394207979       -1.07764351930984
C            4.67806078912773       -3.99551523909519       -1.56626136753078
C            3.95003003046541       -5.06330079247180       -2.06955760219344
C            2.55977781174760       -5.03595346339881       -2.09886549572045
C            1.84983908851094       -3.94894366018182       -1.61499120225488
C            2.57516616495477       -2.88909212106758       -1.09236842343482
N            2.12201235724284       -1.69273317079338       -0.56251506804055
C            0.77711075955697       -1.32015609791620       -0.44786061435775
C           -0.13549060376236       -2.13276872526121        0.23586634294104
C           -1.45075173346457       -1.77126821450025        0.35428108946353
C           -1.92848353610758       -0.55633468480859       -0.20688610346200
C           -3.28606645186646       -0.16719999435026       -0.07552361095465
N           -3.69350496291579        1.02788942858374       -0.57038573357708
C           -4.94878883338735        1.36532498776871       -0.41270277106301
C           -5.39506109706882        2.66363516564364       -0.91240167334938
C           -4.47689921853751        3.57170209350976       -1.44164231391358
C           -4.90287510321000        4.80140640405130       -1.90287199967030
C           -6.24682576603313        5.14067402738105       -1.84456592662753
C           -7.16523417066787        4.24241200984033       -1.32259491816694
C           -6.74513440635022        3.01124449810155       -0.85800448761886
N           -5.85960007154888        0.57723285409904        0.19087066127977
C           -5.40902184431068       -0.60430008824051        0.65150488075877
C           -6.36970592867858       -1.49345233220114        1.30144362008616
C           -5.99902744419795       -2.78834986307084        1.66577799508985
C           -6.91265538318271       -3.62768311850726        2.27184442299910
C           -8.20356009118479       -3.18685322514017        2.52451847014582
C           -8.57802013285281       -1.90035200634734        2.16757726879987
C           -7.66930074458326       -1.05678210380849        1.55846112674173
N           -4.16252369631892       -0.99272463243827        0.54991363414784
C           -1.01627401969547        0.25319594981705       -0.90636474828024
C            0.30850376543115       -0.11636381154040       -1.03709035055533
C            1.16688661857772        0.67858811402490       -1.82143815137869
N            1.84818356583558        1.32312550542212       -2.48632922577413
C            3.19962992959771       -0.93095228283059       -0.20516979159025
C            3.21839570868012        0.32277496067317        0.41360466277489
C            4.45000161726521        0.86803333542660        0.67222459877321
H            4.57615624640677        3.31454723055906       -0.52741681382562
H            3.11781615777352        3.31771047803088        0.46490805703235
H            4.50223209830513        4.31134358431052        0.93114174664703
H            3.13884275140080        2.18967201489896        2.75258079598018
H            4.51321986335304        3.19217891416702        3.22628042501680
H            4.62310991912158        1.43209303160223        3.34313154266841
H            6.78001089932373        4.07371274655440        2.21081413603822
H            9.20526046581967        3.68735259740799        2.00196343253649
H           10.06701355803430        1.62448105587394        0.99112559882102
H            8.51454653616310       -0.11108680447155        0.16524878655828
H            6.54635002766061       -1.59888701878715       -0.47981043715687
H            5.75667008507586       -4.01666953286834       -1.55836677648317
H            4.46913652341596       -5.92838019760510       -2.45352420745869
H            2.02054274968158       -5.87597333688996       -2.50975475993101
H            0.77154239065706       -3.92525806412496       -1.65150031132984
H            0.22375434303080       -3.04393156295060        0.69145747927967
H           -2.15124408268984       -2.39250595098994        0.88867128426556
H           -3.43402573298061        3.29532532373633       -1.47875034722469
H           -4.18595681696644        5.49966752067720       -2.30948643471548
H           -6.57709651138375        6.10329422604894       -2.20573257414757
H           -8.21224284604637        4.50429766078044       -1.27822843304702
H           -7.44717748066884        2.30022837251092       -0.45005456356187
H           -4.99168374892930       -3.11718738122702        1.46052503199956
H           -6.62015844690900       -4.62997506416195        2.54887262542054
H           -8.91638412793737       -3.84529546307427        2.99846015894266
H           -9.58240315942944       -1.55517776512112        2.36486455279785
H           -7.94414535251234       -0.05232939550725        1.27488923128004
H           -1.37275296938659        1.16558609520322       -1.36045533210025
H            2.30222268977760        0.82899102312253        0.67590291484285

          :  Hamiltonian                  GFN2-xTB          :
         :: gradient norm              0.000072894866 Eh/a0 ::
         :: HOMO-LUMO gap              0.278625811112 eV    ::
         :: SCC energy              -123.739839055266 Eh    ::
         :: -> dispersion             -0.105720369322 Eh    ::
         :: -> Gsolv                  -0.061489304025 Eh    ::
         :: repulsion energy           2.234685911649 Eh    ::

    * Orbital Energies and Occupations

         #    Occupation            Energy/Eh            Energy/eV
      -------------------------------------------------------------
         1        2.0000           -0.6973199             -18.9750
       ...           ...                  ...                  ...
       102        2.0000           -0.4214580             -11.4685
       103        2.0000           -0.4133518             -11.2479
       104        2.0000           -0.4127752             -11.2322
       105        2.0000           -0.4125568             -11.2262
       106        2.0000           -0.4098927             -11.1537
       107        2.0000           -0.4079096             -11.0998
       108        2.0000           -0.4071555             -11.0793
       109        2.0000           -0.4034625             -10.9788
       110        2.0000           -0.3922393             -10.6734
       111        1.8385           -0.3763966             -10.2423
       112        1.7781           -0.3760235             -10.2321
       113        1.3834           -0.3743802             -10.1874
       114        0.9955           -0.2936024              -7.9893 (HOMO)
       115        0.0045           -0.2833627              -7.7107 (LUMO)
       116                         -0.2700074              -7.3473
       117                         -0.2628274              -7.1519
       118                         -0.2602141              -7.0808
       119                         -0.2478441              -6.7442
       120                         -0.2302128              -6.2644
       121                         -0.2299165              -6.2563
       122                         -0.2296863              -6.2501
       123                         -0.2275752              -6.1926
       124                         -0.2134520              -5.8083
       125                         -0.2108184              -5.7367
       ...                                ...                  ...
       221                          1.1549296              31.4272
      -------------------------------------------------------------
                  HL-Gap            0.0102397 Eh            0.2786 eV

     #   Z          covCN         q      C6AA      α(0)
     1   6 C        3.758    -0.101    22.481     6.760
     2   6 C        3.933     0.021    20.152     6.380
     3   6 C        3.758    -0.102    22.504     6.763
     4   6 C        3.054     0.008    27.794     8.646
     5   6 C        2.913    -0.030    28.754     8.793
     6   6 C        2.921    -0.024    28.600     8.770
     7   6 C        2.919    -0.029    28.724     8.789
     8   6 C        2.913    -0.029    28.732     8.790
     9   6 C        3.034     0.008    27.800     8.648
    10   6 C        3.036     0.008    27.811     8.650
    11   6 C        2.906    -0.030    28.746     8.791
    12   6 C        3.067    -0.009    28.181     8.705
    13   6 C        3.062    -0.010    28.208     8.709
    14   6 C        2.912    -0.026    28.647     8.777
    15   6 C        2.920    -0.031    28.771     8.796
    16   6 C        2.923    -0.029    28.724     8.789
    17   6 C        2.909    -0.039    28.968     8.825
    18   6 C        3.076     0.045    26.902     8.504
    19   7 N        2.801    -0.008    21.404     6.871
    20   6 C        2.915     0.034    27.245     8.559
    21   6 C        2.913    -0.040    28.987     8.829
    22   6 C        2.918    -0.042    29.035     8.836
    23   6 C        2.975    -0.018    28.465     8.751
    24   6 C        2.940     0.171    24.329     8.090
    25   7 N        1.845    -0.301    28.638     7.931
    26   6 C        2.937     0.210    23.560     7.961
    27   6 C        2.983    -0.009    28.230     8.716
    28   6 C        2.923    -0.029    28.721     8.789
    29   6 C        2.918    -0.029    28.723     8.789
    30   6 C        2.920    -0.027    28.673     8.781
    31   6 C        2.918    -0.029    28.721     8.788
    32   6 C        2.924    -0.029    28.715     8.788
    33   7 N        1.844    -0.334    29.515     8.052
    34   6 C        2.937     0.211    23.556     7.960
    35   6 C        2.983    -0.008    28.220     8.714
    36   6 C        2.923    -0.029    28.725     8.789
    37   6 C        2.918    -0.029    28.723     8.789
    38   6 C        2.920    -0.027    28.671     8.781
    39   6 C        2.918    -0.029    28.719     8.788
    40   6 C        2.924    -0.028    28.707     8.787
    41   7 N        1.845    -0.298    28.564     7.921
    42   6 C        2.933    -0.027    28.667     8.781
    43   6 C        2.967    -0.001    28.057     8.688
    44   6 C        1.914     0.119    28.167     8.571
    45   7 N        0.911    -0.286    27.374     7.567
    46   6 C        3.075     0.051    26.790     8.486
    47   6 C        2.905    -0.041    29.018     8.833
    48   6 C        3.055     0.005    27.849     8.655
    49   1 H        0.925     0.040     2.443     2.444
    50   1 H        0.925     0.043     2.408     2.427
    51   1 H        0.925     0.051     2.303     2.373
    52   1 H        0.925     0.045     2.386     2.416
    53   1 H        0.925     0.052     2.299     2.371
    54   1 H        0.925     0.040     2.446     2.446
    55   1 H        0.926     0.043     2.415     2.430
    56   1 H        0.926     0.043     2.406     2.425
    57   1 H        0.926     0.042     2.424     2.435
    58   1 H        0.926     0.044     2.397     2.421
    59   1 H        0.926     0.057     2.239     2.340
    60   1 H        0.926     0.051     2.310     2.377
    61   1 H        0.926     0.048     2.347     2.396
    62   1 H        0.926     0.046     2.365     2.405
    63   1 H        0.926     0.043     2.416     2.430
    64   1 H        0.926     0.047     2.357     2.401
    65   1 H        0.926     0.045     2.386     2.415
    66   1 H        0.926     0.041     2.439     2.442
    67   1 H        0.926     0.043     2.411     2.428
    68   1 H        0.926     0.045     2.380     2.413
    69   1 H        0.926     0.043     2.405     2.425
    70   1 H        0.926     0.045     2.382     2.414
    71   1 H        0.926     0.044     2.401     2.423
    72   1 H        0.926     0.043     2.403     2.424
    73   1 H        0.926     0.045     2.382     2.414
    74   1 H        0.926     0.043     2.410     2.428
    75   1 H        0.926     0.045     2.389     2.417
    76   1 H        0.926     0.042     2.424     2.435
    77   1 H        0.926     0.036     2.498     2.472

molecular dipole:
                 x           y           z       tot (Debye)
 q only:        3.540      -0.722       1.139
   full:        3.081      -0.899       1.294       8.797

 projected vibrational frequencies (cm⁻¹)
eigval :       -0.00    -0.00    -0.00     0.00     0.00     0.00
eigval :        5.98    12.08    12.84    29.28    32.13    38.58
eigval :       41.49    43.15    48.43    54.43    56.61    80.12
eigval :       90.66    99.08   106.28   109.79   119.83   132.86
eigval :      133.90   144.59   149.09   156.21   187.45   196.53
eigval :      202.14   212.15   214.69   219.98   229.12   240.15
eigval :      246.19   251.90   276.04   288.30   301.83   316.43
eigval :      332.18   350.21   363.29   365.23   366.11   367.62
eigval :      372.63   383.22   392.43   401.94   412.65   414.35
eigval :      435.36   443.33   461.77   486.15   489.83   509.10
eigval :      530.70   535.35   538.85   541.75   547.57   558.47
eigval :      563.24   567.14   578.80   587.32   588.24   596.11
eigval :      602.62   610.05   610.33   636.39   648.22   653.09
eigval :      659.51   665.70   666.28   687.53   698.36   706.48
eigval :      713.49   722.56   727.56   733.79   764.03   765.28
eigval :      769.14   770.28   799.19   803.08   806.44   828.32
eigval :      846.07   858.28   861.59   866.65   872.26   873.69
eigval :      874.17   888.70   898.58   901.15   904.09   906.55
eigval :      907.80   909.93   916.24   917.91   922.21   925.83
eigval :      928.04   928.61   929.63   946.16   961.91   967.07
eigval :      970.52   986.32   992.28  1006.93  1012.50  1057.46
eigval :     1064.75  1068.50  1071.91  1073.52  1075.29  1092.65
eigval :     1096.79  1108.78  1109.16  1123.59  1143.00  1145.10
eigval :     1160.19  1169.77  1170.01  1172.62  1176.28  1176.51
eigval :     1176.71  1182.35  1188.33  1194.41  1200.21  1204.29
eigval :     1214.00  1225.44  1232.51  1247.66  1260.29  1265.16
eigval :     1266.82  1269.58  1270.32  1280.74  1289.56  1327.95
eigval :     1328.38  1332.10  1335.39  1339.48  1353.48  1356.76
eigval :     1376.05  1387.96  1393.54  1404.12  1408.12  1410.18
eigval :     1418.38  1425.74  1433.42  1436.60  1442.69  1450.17
eigval :     1458.10  1464.31  1464.65  1476.78  1480.26  1484.51
eigval :     1490.07  1491.91  1493.01  1503.52  1529.82  1545.15
eigval :     1565.56  1570.98  1573.52  1574.63  1576.82  1585.33
eigval :     1586.08  1591.06  1598.34  2336.93  3029.90  3034.46
eigval :     3036.03  3037.31  3042.30  3044.55  3074.77  3075.02
eigval :     3075.73  3077.87  3078.02  3080.78  3081.19  3085.37
eigval :     3087.58  3088.42  3089.11  3090.21  3090.85  3092.61
eigval :     3093.83  3094.31  3095.80  3096.33  3098.27  3099.34
eigval :     3101.51  3103.15  3108.46

   temp. (K)  partition function   enthalpy   heat capacity  entropy
                                   cal/mol     cal/K/mol   cal/K/mol   J/K/mol
 298.15  VIB  0.274E+19            23225.845    143.980    145.603
         ROT  0.106E+09              888.752      2.981     39.702
         INT  0.290E+27            24114.597    146.961    185.305
         TR   0.148E+29             1481.254      4.968     45.115
         TOT                       25595.8508   151.9288   230.4205   964.0793

       T/K    H(0)-H(T)+PV         H(T)/Eh          T*S/Eh         G(T)/Eh
   ------------------------------------------------------------------------
    298.15    0.407896E-01    0.622178E+00    0.109480E+00    0.512698E+00
   ------------------------------------------------------------------------

         :::::::::::::::::::::::::::::::::::::::::::::::::::::
         ::                  THERMODYNAMIC                  ::
         :::::::::::::::::::::::::::::::::::::::::::::::::::::
         :: total free energy        -120.992455632054 Eh   ::
         ::.................................................::
         :: total energy             -121.505153152359 Eh   ::
         :: zero point energy           0.581388146163 Eh   ::
         :: G(RRHO) w/o ZPVE           -0.068690625857 Eh   ::
         :: G(RRHO) contrib.            0.512697520306 Eh   ::
         :::::::::::::::::::::::::::::::::::::::::::::::::::::

           -------------------------------------------------
          | TOTAL ENERGY             -121.505153152359 Eh   |
          | TOTAL ENTHALPY           -120.882975421533 Eh   |
          | TOTAL FREE ENERGY        -120.992455632054 Eh   |
          | GRADIENT NORM               0.000087336885 Eh/α |
          | HOMO-LUMO GAP               0.278636982955 eV   |
           -------------------------------------------------

 * finished run on 2025/09/13 at 07:26:14.025
