   * xtb version 6.7.1 (edcfbbe) compiled by 'albert@albert-system' on 2024-07-22

   ID    Z sym.   atoms
    1    6 C      1-18, 20-24, 26-32, 34-40, 42-44, 46-48
    2    7 N      19, 25, 33, 41, 45
    3    1 H      49-77

          program call               : xtb data2507/toluene/ICBNTrz4/ICBNTrz4_toluene_S0_crest.xyz --gfn 2 --gbsa toluene --ohess vtight --parallel 40 --molden --ceasefiles --namespace data2507/toluene/ICBNTrz4/ICBNTrz4_toluene_S0_finalOpt
      * Solvation model:               GBSA
        Solvent                        toluene
        Solvent mass                       9.2140E+01 g/mol
          :  Hamiltonian                  GFN2-xTB          :
 * total energy  :  -121.5795105 Eh     change       -0.2044871E-08 Eh
 * total energy  :  -121.5795633 Eh     change       -0.5282811E-04 Eh
 * total energy  :  -121.5795809 Eh     change       -0.1760339E-04 Eh
 * total energy  :  -121.5796116 Eh     change       -0.3072195E-04 Eh
 * total energy  :  -121.5796292 Eh     change       -0.1754995E-04 Eh
 * total energy  :  -121.5796459 Eh     change       -0.1673196E-04 Eh
 * total energy  :  -121.5796576 Eh     change       -0.1172036E-04 Eh
 * total energy  :  -121.5796653 Eh     change       -0.7627038E-05 Eh
 * total energy  :  -121.5796721 Eh     change       -0.6854940E-05 Eh
 * total energy  :  -121.5796777 Eh     change       -0.5585012E-05 Eh
 * total energy  :  -121.5797781 Eh     change       -0.5019269E-06 Eh
 * total energy  :  -121.5797786 Eh     change       -0.5440242E-06 Eh
 * total energy  :  -121.5797790 Eh     change       -0.4297707E-06 Eh
 * total energy  :  -121.5797794 Eh     change       -0.3219416E-06 Eh
 * total energy  :  -121.5797796 Eh     change       -0.2383571E-06 Eh
 * total energy  :  -121.5797798 Eh     change       -0.1987559E-06 Eh
 * total energy  :  -121.5797800 Eh     change       -0.2171002E-06 Eh
 * total energy  :  -121.5797802 Eh     change       -0.2344430E-06 Eh
 * total energy  :  -121.5797802 Eh     change       -0.1240366E-08 Eh
   *** GEOMETRY OPTIMIZATION CONVERGED AFTER 68 ITERATIONS ***

 final structure:
================
77
 xtb: 6.7.1 (edcfbbe)
C            4.26414548896926        3.38074219261226        0.34621232121975
C            4.76843369177520        2.23149997775249        1.22556226985369
C            4.17518651632124        2.33763007069947        2.63533163499592
C            6.27997005141468        2.20292342950766        1.27227028445824
C            7.14852762465860        3.16604327195212        1.73959774548525
C            8.51462156793961        2.92121552494252        1.68418494222596
C            9.00103291212916        1.72931709867982        1.16918477697051
C            8.13487545351805        0.75581319656188        0.69761140684143
C            6.77150095827857        0.99776342934744        0.75068816515730
C            5.64521225870859        0.17656267126277        0.33618109684571
C            5.62039990030236       -1.09457104772680       -0.20604043312278
C            4.37696326642737       -1.63950321198816       -0.49945381297599
C            3.97020096750159       -2.92095684053818       -1.01185442876339
C            4.67042251420913       -4.04090369687495       -1.43993568423097
C            3.95754230069591       -5.13012174084908       -1.90303129077219
C            2.56659742915859       -5.10478921313525       -1.95883619787248
C            1.84792021952577       -3.99972406565988       -1.53908934038302
C            2.55915676040942       -2.91621858622107       -1.04747406198969
N            2.09807193363665       -1.68600844282280       -0.60000292158641
C            0.76505418198794       -1.31262862933332       -0.49773609190601
C           -0.15008859969147       -2.13509237511371        0.16192356862103
C           -1.47065455674188       -1.76287983613397        0.28595835121731
C           -1.92137598443903       -0.55081977950791       -0.24385729557975
C           -3.32107495521806       -0.14911626985775       -0.09331994329785
N           -3.67009886149640        1.05950986804938       -0.52255174290766
C           -4.95187883921052        1.38537235394458       -0.35899911046458
C           -5.39015898890956        2.70421547070570       -0.81260004471905
C           -4.46569648388514        3.61912187470480       -1.31624723927041
C           -4.88495282379105        4.86590087081065       -1.73892402563393
C           -6.22621454559372        5.21060144877682       -1.66583611576942
C           -7.15063920513002        4.30469321066294       -1.16769104840504
C           -6.73778577418579        3.05693755201498       -0.74212523654388
N           -5.85514541619459        0.58240919770023        0.19730631781241
C           -5.41789818122011       -0.60849947299018        0.59730574289120
C           -6.37617843788841       -1.52312665430001        1.21544027684745
C           -5.99390163620442       -2.82289344739304        1.54678646299354
C           -6.90242644842791       -3.68472698571006        2.13020371650755
C           -8.19621165824529       -3.25899133672000        2.39105777174206
C           -8.58219676105983       -1.96748801474337        2.06486932483874
C           -7.67916962169279       -1.10142683118736        1.47907012523954
N           -4.15602336814107       -1.01720465898043        0.46844554012789
C           -1.02757333762296        0.27120213613067       -0.91858135713912
C            0.30569191914277       -0.10272040124999       -1.05680280579985
C            1.15817512831425        0.71288361071091       -1.83481170781698
N            1.80651079232050        1.37498259830939       -2.51151898927493
C            3.19371813368432       -0.90408238604787       -0.26164148079582
C            3.21845078225440        0.35986917900273        0.31616181230367
C            4.45696872937800        0.88859239503519        0.60265680801242
H            4.67728629332732        3.29700331871538       -0.65680147210704
H            3.17938330633401        3.35466291156828        0.27432833517845
H            4.56335713364286        4.33692955748870        0.76866670167711
H            3.08933049263464        2.29396456113893        2.59227236308299
H            4.46741999545341        3.27818173225126        3.09583041355207
H            4.53305848694570        1.51927544825422        3.25713031462026
H            6.78089129992010        4.09829126417518        2.14335111221667
H            9.20615731695445        3.66821096530946        2.04682847610781
H           10.06772304956880        1.55870710193663        1.13526687283666
H            8.51723308028503       -0.17109510389705        0.29615710670089
H            6.52652929662997       -1.65102342356098       -0.38740508239978
H            5.74929576463995       -4.05352871295274       -1.41479847577829
H            4.48330751258348       -6.01207507241821       -2.23737833739258
H            2.03577578696430       -5.96371842461983       -2.34180209496357
H            0.77051373707492       -3.98430858511804       -1.60490407162741
H            0.19948719733253       -3.05848274427745        0.59766689028722
H           -2.17387841661601       -2.39122924752835        0.80877814148360
H           -3.42551828567965        3.33669440136057       -1.36475399277195
H           -4.16524633840848        5.57121616567768       -2.12710471114272
H           -6.55112391149240        6.18582405743070       -1.99674172871808
H           -8.19503588935883        4.57325570393121       -1.11199351388690
H           -7.44282292606133        2.33885805272660       -0.35347689709207
H           -4.98413693617554       -3.13820316159170        1.33545760618790
H           -6.60282333546640       -4.69085109570861        2.38342841431956
H           -8.90424113514376       -3.93406342609487        2.84839520611049
H           -9.58963952911843       -1.63642724384400        2.26865118142791
H           -7.96135720268430       -0.09284239488298        1.22034303217032
H           -1.37846419479386        1.19697103285254       -1.34785581886023
H            2.31057992944779        0.90053956388744        0.53853584600170

          :  Hamiltonian                  GFN2-xTB          :
         :: gradient norm              0.000034467388 Eh/a0 ::
         :: HOMO-LUMO gap              1.681184572829 eV    ::
         :: SCC energy              -123.824980337111 Eh    ::
         :: -> dispersion             -0.105964450915 Eh    ::
         :: -> Gsolv                  -0.056870650611 Eh    ::
         :: repulsion energy           2.245200090957 Eh    ::

    * Orbital Energies and Occupations

         #    Occupation            Energy/Eh            Energy/eV
      -------------------------------------------------------------
         1        2.0000           -0.6977795             -18.9875
       ...           ...                  ...                  ...
       101        2.0000           -0.4194816             -11.4147
       102        2.0000           -0.4193396             -11.4108
       103        2.0000           -0.4190952             -11.4042
       104        2.0000           -0.4168509             -11.3431
       105        2.0000           -0.4164315             -11.3317
       106        2.0000           -0.4145906             -11.2816
       107        2.0000           -0.4117972             -11.2056
       108        2.0000           -0.3987421             -10.8503
       109        2.0000           -0.3942950             -10.7293
       110        2.0000           -0.3880280             -10.5588
       111        2.0000           -0.3867248             -10.5233
       112        2.0000           -0.3811708             -10.3722
       113        2.0000           -0.3666351              -9.9767 (HOMO)
       114                         -0.3048527              -8.2955 (LUMO)
       115                         -0.2987716              -8.1300
       116                         -0.2858938              -7.7796
       117                         -0.2605250              -7.0892
       118                         -0.2502830              -6.8105
       119                         -0.2470538              -6.7227
       120                         -0.2365939              -6.4380
       121                         -0.2364802              -6.4350
       122                         -0.2269465              -6.1755
       123                         -0.2224772              -6.0539
       124                         -0.2186253              -5.9491
       ...                                ...                  ...
       221                          1.1492992              31.2740
      -------------------------------------------------------------
                  HL-Gap            0.0617824 Eh            1.6812 eV

     #   Z          covCN         q      C6AA      α(0)
     1   6 C        3.758    -0.098    22.430     6.752
     2   6 C        3.935     0.019    20.193     6.386
     3   6 C        3.758    -0.099    22.441     6.754
     4   6 C        3.053    -0.002    28.020     8.681
     5   6 C        2.915    -0.035    28.862     8.810
     6   6 C        2.921    -0.035    28.863     8.810
     7   6 C        2.921    -0.035    28.861     8.810
     8   6 C        2.914    -0.036    28.898     8.815
     9   6 C        3.035    -0.001    28.011     8.681
    10   6 C        3.035    -0.007    28.172     8.706
    11   6 C        2.909    -0.038    28.950     8.823
    12   6 C        3.067    -0.018    28.380     8.735
    13   6 C        3.065    -0.013    28.272     8.719
    14   6 C        2.913    -0.032    28.807     8.801
    15   6 C        2.920    -0.039    28.961     8.825
    16   6 C        2.924    -0.033    28.823     8.804
    17   6 C        2.910    -0.051    29.267     8.871
    18   6 C        3.064     0.045    26.936     8.511
    19   7 N        2.801    -0.042    22.058     6.976
    20   6 C        2.915     0.079    26.244     8.401
    21   6 C        2.919    -0.039    28.980     8.828
    22   6 C        2.921    -0.019    28.482     8.752
    23   6 C        2.981    -0.009    28.231     8.716
    24   6 C        2.983     0.214    23.482     7.949
    25   7 N        1.844    -0.322    29.209     8.010
    26   6 C        2.979     0.216    23.441     7.942
    27   6 C        2.983    -0.010    28.251     8.719
    28   6 C        2.923    -0.025    28.629     8.774
    29   6 C        2.918    -0.027    28.665     8.780
    30   6 C        2.920    -0.021    28.527     8.759
    31   6 C        2.918    -0.026    28.662     8.779
    32   6 C        2.924    -0.025    28.633     8.775
    33   7 N        1.844    -0.317    29.057     7.989
    34   6 C        2.979     0.216    23.455     7.944
    35   6 C        2.983    -0.009    28.244     8.718
    36   6 C        2.923    -0.025    28.639     8.776
    37   6 C        2.918    -0.027    28.667     8.780
    38   6 C        2.920    -0.021    28.531     8.759
    39   6 C        2.918    -0.026    28.662     8.779
    40   6 C        2.923    -0.025    28.629     8.774
    41   7 N        1.844    -0.319    29.126     7.998
    42   6 C        2.933    -0.017    28.435     8.745
    43   6 C        2.972     0.004    27.937     8.670
    44   6 C        1.912     0.125    28.044     8.552
    45   7 N        0.911    -0.258    26.688     7.472
    46   6 C        3.066     0.043    26.964     8.515
    47   6 C        2.907    -0.051    29.269     8.871
    48   6 C        3.058    -0.001    27.987     8.676
    49   1 H        0.925     0.037     2.487     2.466
    50   1 H        0.925     0.039     2.457     2.451
    51   1 H        0.925     0.046     2.369     2.407
    52   1 H        0.925     0.040     2.447     2.446
    53   1 H        0.925     0.046     2.366     2.406
    54   1 H        0.925     0.036     2.502     2.473
    55   1 H        0.926     0.031     2.574     2.509
    56   1 H        0.926     0.030     2.582     2.513
    57   1 H        0.926     0.030     2.591     2.517
    58   1 H        0.926     0.030     2.580     2.512
    59   1 H        0.926     0.040     2.451     2.448
    60   1 H        0.926     0.039     2.468     2.457
    61   1 H        0.926     0.036     2.499     2.472
    62   1 H        0.926     0.037     2.484     2.465
    63   1 H        0.926     0.032     2.561     2.502
    64   1 H        0.926     0.067     2.119     2.276
    65   1 H        0.926     0.070     2.085     2.258
    66   1 H        0.926     0.048     2.339     2.391
    67   1 H        0.926     0.049     2.338     2.391
    68   1 H        0.926     0.052     2.299     2.371
    69   1 H        0.926     0.050     2.326     2.385
    70   1 H        0.926     0.052     2.291     2.367
    71   1 H        0.926     0.051     2.305     2.374
    72   1 H        0.926     0.049     2.332     2.388
    73   1 H        0.926     0.051     2.304     2.374
    74   1 H        0.926     0.049     2.334     2.389
    75   1 H        0.926     0.052     2.301     2.372
    76   1 H        0.926     0.062     2.173     2.305
    77   1 H        0.926     0.022     2.709     2.574

molecular dipole:
                 x           y           z       tot (Debye)
 q only:       -1.104      -0.515       0.992
   full:       -1.456      -0.713       1.173       5.086

 projected vibrational frequencies (cm⁻¹)
eigval :       -0.00    -0.00    -0.00    -0.00    -0.00     0.00
eigval :       10.01    12.78    16.20    30.78    33.02    37.39
eigval :       43.27    48.01    55.11    56.25    59.45    82.80
eigval :       93.93    95.59   106.50   110.80   125.32   134.60
eigval :      136.70   146.82   155.21   160.52   182.53   192.06
eigval :      201.64   207.88   217.06   222.44   231.79   245.20
eigval :      253.43   261.89   284.82   294.27   307.23   327.44
eigval :      334.24   356.11   358.67   362.86   364.91   372.18
eigval :      375.44   402.00   407.14   415.40   426.86   433.44
eigval :      443.37   463.28   466.30   488.84   500.94   512.65
eigval :      535.14   542.87   544.53   549.47   554.69   564.70
eigval :      578.14   586.16   587.08   592.45   609.91   613.14
eigval :      622.13   629.06   644.26   646.87   651.84   668.90
eigval :      672.65   675.21   686.75   698.78   707.64   717.02
eigval :      722.31   734.10   749.96   767.33   770.32   773.50
eigval :      777.29   795.33   801.02   829.60   843.59   845.96
eigval :      847.59   867.20   871.01   872.01   876.09   878.19
eigval :      889.22   900.17   905.87   907.56   908.87   910.05
eigval :      916.04   924.55   927.08   929.72   931.72   932.24
eigval :      933.08   935.50   948.94   965.39   973.29   983.10
eigval :      989.07  1011.74  1012.28  1048.21  1066.83  1073.54
eigval :     1073.95  1074.55  1077.22  1086.38  1099.62  1104.03
eigval :     1108.09  1111.34  1132.89  1147.12  1153.75  1166.04
eigval :     1171.92  1172.61  1175.98  1176.68  1178.00  1179.73
eigval :     1186.80  1200.46  1202.29  1207.62  1210.71  1214.24
eigval :     1228.96  1233.26  1237.61  1261.53  1266.59  1266.90
eigval :     1269.50  1274.62  1310.86  1321.11  1326.27  1328.03
eigval :     1339.76  1345.33  1353.51  1361.41  1368.46  1369.25
eigval :     1386.55  1392.55  1406.58  1409.38  1421.25  1427.58
eigval :     1428.14  1429.63  1443.41  1461.84  1462.34  1469.32
eigval :     1473.73  1475.99  1483.01  1486.14  1493.95  1495.61
eigval :     1500.87  1505.33  1510.83  1542.94  1568.49  1572.63
eigval :     1580.39  1582.52  1584.88  1591.22  1591.73  1592.58
eigval :     1599.38  1602.36  1610.47  2361.99  3026.15  3029.60
eigval :     3030.96  3032.42  3037.50  3039.72  3065.74  3070.57
eigval :     3076.90  3077.29  3078.16  3079.31  3079.65  3082.99
eigval :     3084.06  3084.24  3085.73  3089.67  3093.26  3093.43
eigval :     3094.11  3097.67  3098.99  3102.34  3104.54  3105.58
eigval :     3106.31  3106.85  3114.36

   temp. (K)  partition function   enthalpy   heat capacity  entropy
                                   cal/mol     cal/K/mol   cal/K/mol   J/K/mol
 298.15  VIB  0.558E+18            22836.418    142.035    142.666
         ROT  0.106E+09              888.752      2.981     39.699
         INT  0.590E+26            23725.170    145.016    182.364
         TR   0.148E+29             1481.254      4.968     45.115
         TOT                       25206.4239   149.9838   227.4797   951.7753

       T/K    H(0)-H(T)+PV         H(T)/Eh          T*S/Eh         G(T)/Eh
   ------------------------------------------------------------------------
    298.15    0.401690E-01    0.626524E+00    0.108083E+00    0.518441E+00
   ------------------------------------------------------------------------

         :::::::::::::::::::::::::::::::::::::::::::::::::::::
         ::                  THERMODYNAMIC                  ::
         :::::::::::::::::::::::::::::::::::::::::::::::::::::
         :: total free energy        -121.061339685594 Eh   ::
         ::.................................................::
         :: total energy             -121.579780247953 Eh   ::
         :: zero point energy           0.586354537888 Eh   ::
         :: G(RRHO) w/o ZPVE           -0.067913975529 Eh   ::
         :: G(RRHO) contrib.            0.518440562359 Eh   ::
         :::::::::::::::::::::::::::::::::::::::::::::::::::::

           -------------------------------------------------
          | TOTAL ENERGY             -121.579780247953 Eh   |
          | TOTAL ENTHALPY           -120.953256716689 Eh   |
          | TOTAL FREE ENERGY        -121.061339685594 Eh   |
          | GRADIENT NORM               0.000034450232 Eh/α |
          | HOMO-LUMO GAP               1.681184764290 eV   |
           -------------------------------------------------

 * finished run on 2025/09/13 at 07:26:05.461
