   * xtb version 6.7.1 (edcfbbe) compiled by 'albert@albert-system' on 2024-07-22

   ID    Z sym.   atoms
    1    6 C      1-12, 14-27, 29-37, 39-44, 46-80
    2    7 N      13, 28, 38, 45
    3    1 H      81-130

          program call               : xtb data2507/gas/TPBPPI-PBI/TPBPPI-PBI_gas_T1_crest.xyz --gfn 2 --spinpol --tblite --uhf 2 --ohess vtight --parallel 40 --molden --ceasefiles --namespace data2507/gas/TPBPPI-PBI/TPBPPI-PBI_gas_T1_finalOpt
 * total energy  :  -199.9312962 Eh     change       -0.9376208E-08 Eh
 * total energy  :  -199.9313145 Eh     change       -0.1833127E-04 Eh
 * total energy  :  -199.9313230 Eh     change       -0.8495114E-05 Eh
 * total energy  :  -199.9313255 Eh     change       -0.2528992E-05 Eh
 * total energy  :  -199.9313289 Eh     change       -0.3386782E-05 Eh
 * total energy  :  -199.9313315 Eh     change       -0.2557744E-05 Eh
 * total energy  :  -199.9313339 Eh     change       -0.2434671E-05 Eh
 * total energy  :  -199.9313358 Eh     change       -0.1899239E-05 Eh
 * total energy  :  -199.9313372 Eh     change       -0.1370659E-05 Eh
 * total energy  :  -199.9313385 Eh     change       -0.1288866E-05 Eh
 * total energy  :  -199.9313433 Eh     change       -0.1059625E-05 Eh
 * total energy  :  -199.9313443 Eh     change       -0.9498644E-06 Eh
 * total energy  :  -199.9313452 Eh     change       -0.9123506E-06 Eh
 * total energy  :  -199.9313465 Eh     change       -0.1251882E-05 Eh
 * total energy  :  -199.9313473 Eh     change       -0.8452101E-06 Eh
 * total energy  :  -199.9313479 Eh     change       -0.5797847E-06 Eh
 * total energy  :  -199.9313485 Eh     change       -0.6273075E-06 Eh
 * total energy  :  -199.9313491 Eh     change       -0.5998090E-06 Eh
 * total energy  :  -199.9313491 Eh     change       -0.8826760E-08 Eh
   *** GEOMETRY OPTIMIZATION CONVERGED AFTER 22 ITERATIONS ***

 final structure:
================
130
 xtb: 6.7.1 (edcfbbe)
C            5.65416569492120        1.40083917197017        0.87079518123849
C            5.78596428679891        0.47438993068350       -0.15010489882588
C            4.81344693283511       -0.48801914741615       -0.34513567319640
C            3.69041524846087       -0.53420027569151        0.47718224128223
C            2.68450100504888       -1.60256651731816        0.32759541452188
C            1.33704242380649       -1.28348979364740        0.23289225554981
C            0.36509719797641       -2.26754385405312        0.09245725978775
C           -1.05077686633255       -1.86857568487335        0.02705081508227
C           -2.01903746844037       -2.46955829784420        0.82895406980473
C           -3.33172270715052       -2.04407251441758        0.79075258140755
C           -3.70574571013270       -0.99560952763989       -0.04470974723237
C           -5.05666824918840       -0.44787021743921       -0.00550392307766
N           -6.17940559424544       -1.10032456617360       -0.13378509052490
C           -7.16318093739657       -0.16067990745504       -0.08382540772259
C           -8.56617553632939       -0.35145896076763       -0.19709503297113
C           -9.10971813530911       -1.62583177214916       -0.39838210352059
C          -10.46600783600419       -1.78801114694641       -0.53047825537762
C          -11.29785652304033       -0.67203505914768       -0.46557043284351
C          -10.77507306682082        0.58498699387413       -0.26310298958102
C           -9.39609547461630        0.79228598637967       -0.11513157479348
C           -8.81910941662732        2.10447941845774        0.12701735749918
C           -9.61461826122702        3.24904767948169        0.27249090006570
C           -9.07089877740328        4.48586740270348        0.53266294486099
C           -7.69441308428405        4.63248840481482        0.67274605671441
C           -6.87805899776341        3.53764259381739        0.52995207963271
C           -7.41297422457024        2.27316543059312        0.24663877468539
C           -6.60921960885464        1.11151980618106        0.09264900873313
N           -5.25567219819656        0.91364403408918        0.14542858859578
C           -4.17565107592027        1.78947212100664        0.33941714356240
C           -3.33982170684287        1.58266910613418        1.44365262080281
C           -2.14914861865684        2.24740119843310        1.54877201184878
C           -1.69928395975180        3.11695295318027        0.52400687402776
C           -0.36649441463266        3.61652945699601        0.52955353006649
C            0.29846255842542        3.98334792438948       -0.68088692806331
C            1.62715613611739        4.24584971169245       -0.71805834745994
C            2.41890372065464        4.21867006642199        0.47537575096801
C            3.80446684830017        4.37149852753705        0.51163908239642
N            4.47039220901253        4.70312924737712        1.64017538836668
C            5.74737432268070        4.87447154884636        1.29057620150982
C            6.85404648381608        5.22686695494802        2.07917249611817
C            8.08596426393437        5.27756037414168        1.47093296614771
C            8.24801017869738        4.98294356937096        0.11211754082419
C            7.17167981661000        4.64142044011512       -0.69551790973663
C            5.92397399923357        4.60793635956036       -0.10659645074763
N            4.67776086391282        4.28576107792667       -0.58320730214882
C            4.42876683363252        3.68173159765880       -1.82197949740241
C            4.89586766652721        4.27311996972499       -2.99218842632315
C            4.68143300023460        3.65303385152340       -4.20948842517536
C            4.00234253358611        2.44743181684962       -4.27032773790720
C            3.53130191929466        1.86230957533860       -3.10534184690218
C            3.74159422275435        2.47002878425910       -1.88380270511675
C            1.71650731846828        4.04115099829339        1.71330469498818
C            0.40271188637323        3.71911695509401        1.73217995757610
C           -2.60657759502103        3.37992864326397       -0.53455448610311
C           -3.81546640621874        2.74186560753270       -0.62242587502191
C           -2.74884616734804       -0.42362983109748       -0.88192974530518
C           -1.43949229067200       -0.85071723693631       -0.84028452753231
C            0.75121087384165       -3.61120053999587        0.03386258962382
C           -0.26113772319720       -4.67030767892204       -0.14819405523011
C           -0.36967359171799       -5.71675654216800        0.76240109885727
C           -1.32088476837531       -6.70354690142228        0.58387768341324
C           -2.17363287570686       -6.65998299222022       -0.50616485839286
C           -2.07241901595849       -5.62212526390628       -1.41702652793856
C           -1.12382468858041       -4.63279011507676       -1.23950081091724
C            2.10514262185988       -3.94457482944751        0.13376936807599
C            2.51585591810580       -5.36383197475804        0.08036205011451
C            3.21110400938856       -5.93761821456830        1.13962389857019
C            3.59200879682200       -7.26532490764060        1.08915423056960
C            3.28680544432976       -8.03512974771564       -0.02044455067849
C            2.59621202964019       -7.47095196018705       -1.07951927610514
C            2.21095598982013       -6.14444697913315       -1.02968760325007
C            3.07291268609783       -2.94760756441265        0.28554595718253
C            4.49576008805067       -3.32060756432853        0.41825993434490
C            5.22006050646387       -2.93108048380495        1.54068562238227
C            6.54865716365053       -3.28719953463387        1.67482542311409
C            7.17196838796105       -4.03364770043866        0.68918454760946
C            6.45925626716541       -4.42268703848679       -0.43227883685650
C            5.12950186417976       -4.07064258619088       -0.56725963955246
C            3.54126524222500        0.43476971899471        1.46597619637216
C            4.52165360080960        1.38991280495472        1.66763734919663
H            6.42958534230022        2.13298034937898        1.04276388911653
H            6.65492141111199        0.49624785123380       -0.79144662509382
H            4.92218883348347       -1.20899901444837       -1.14167999056096
H            1.03483568010075       -0.24591499605633        0.27556238342018
H           -1.73401913649453       -3.25938198324483        1.50744909806244
H           -4.07488728811231       -2.50140659591995        1.42588764389599
H           -8.42855299356690       -2.46092891042590       -0.45028282190285
H          -10.88951971918658       -2.76900795809671       -0.68692916445058
H          -12.36592785126329       -0.79356017002983       -0.57436444831051
H          -11.45821270062618        1.41843649040558       -0.22180234569021
H          -10.68666733112387        3.17289686058912        0.18815367083584
H           -9.71684472547162        5.34507015249110        0.63782967038511
H           -7.27046294666901        5.60065012258274        0.89408138335795
H           -5.81074138710580        3.64405765539391        0.64981253567886
H           -3.63839517419501        0.87006445192475        2.19883234929110
H           -1.50909207984106        2.03974409643825        2.39104449853268
H           -0.26306821413586        4.00269882011752       -1.60240698111985
H            2.09303023420368        4.51611412049823       -1.65312073321476
H            6.72203032216957        5.43986921982266        3.12727954852165
H            8.95726895886629        5.54284850481728        2.05151347203257
H            9.23715615636307        5.01984809451485       -0.31913686262177
H            7.31470957801498        4.39884732361963       -1.73744408120771
H            5.40551464107152        5.22396095037905       -2.94386384763320
H            5.04258666467744        4.11747813741640       -5.11520193262442
H            3.83875113842753        1.96690661060017       -5.22302746328675
H            3.00363630305316        0.92106835904664       -3.14489057736012
H            3.38326577904139        2.01436496277829       -0.97403558043634
H            2.28947905198167        4.13678752659117        2.62151057791657
H           -0.09386217645222        3.57540412363804        2.67984531978378
H           -2.34443375063931        4.10561805098789       -1.28857863768215
H           -4.48234310199968        2.93660459877793       -1.45101516266310
H           -3.03339761894657        0.35397591791923       -1.57477326793151
H           -0.70722724571266       -0.39723382572860       -1.49268302613756
H            0.28774448663977       -5.74803908583485        1.61926758213814
H           -1.39710667377550       -7.50946707418862        1.29918446584347
H           -2.91573333043863       -7.43219648302038       -0.64480696897449
H           -2.73552649408316       -5.58261158468159       -2.26873989218840
H           -1.04172716841798       -3.82667703228100       -1.95471001124219
H            3.44477912201318       -5.34004165169055        2.00910251716484
H            4.12920894041160       -7.70077646437465        1.91911067547235
H            3.58618548933460       -9.07212712007454       -0.05957563070673
H            2.35611985418375       -8.06671191695557       -1.94813000164762
H            1.67659451537672       -5.70432043566324       -1.85948754576910
H            4.73353342052478       -2.35349029811631        2.31367955604991
H            7.09968131430770       -2.98118724504924        2.55215252039559
H            8.21042429296848       -4.31117900719311        0.79456290849297
H            6.94089276040647       -5.00350455832759       -1.20543720780682
H            4.57780367285254       -4.36925155582387       -1.44707643956537
H            2.66514126543164        0.41858300950133        2.09895210646134
H            4.40543368204082        2.12682041072051        2.44823132461097

 projected vibrational frequencies (cm⁻¹)
eigval :       -0.00    -0.00    -0.00     0.00     0.00     0.00
eigval :        7.75    11.39    13.30    18.75    20.29    20.84
eigval :       23.35    26.90    30.34    32.19    38.86    43.22
eigval :       46.68    48.20    57.92    59.76    66.09    68.92
eigval :       71.48    73.37    73.70    75.91    81.56    86.03
eigval :       86.56    90.54    95.78    98.50   100.75   109.99
eigval :      114.99   119.83   126.47   136.70   137.42   148.60
eigval :      174.70   180.13   195.80   202.53   207.21   211.91
eigval :      213.90   221.69   231.35   236.47   240.46   244.42
eigval :      251.42   253.16   259.18   266.45   267.14   277.08
eigval :      285.82   303.04   315.24   330.52   341.84   356.73
eigval :      360.54   367.98   368.65   373.92   374.46   374.83
eigval :      377.47   378.97   381.69   383.11   388.66   393.31
eigval :      398.65   403.63   409.08   412.81   425.65   437.55
eigval :      446.69   449.01   462.03   467.17   474.93   477.77
eigval :      487.39   492.87   501.73   505.86   516.83   517.18
eigval :      520.31   532.36   533.60   541.27   560.25   574.93
eigval :      579.37   580.47   584.21   584.49   586.21   587.69
eigval :      588.01   590.04   595.23   598.51   602.85   606.06
eigval :      610.02   612.10   617.81   631.73   640.70   646.73
eigval :      652.88   657.32   663.43   667.50   669.02   670.17
eigval :      673.92   674.72   677.39   680.76   686.61   687.24
eigval :      693.44   698.22   704.23   708.21   720.80   723.60
eigval :      734.85   745.23   749.70   754.46   759.21   762.68
eigval :      765.06   766.11   768.25   780.42   781.90   792.31
eigval :      794.07   801.16   810.81   819.87   830.63   839.35
eigval :      845.75   856.78   863.80   869.43   871.68   874.74
eigval :      874.93   876.25   877.17   877.92   878.63   879.72
eigval :      883.78   887.97   900.88   902.91   903.00   903.59
eigval :      903.65   905.41   907.89   908.57   910.51   912.27
eigval :      913.76   917.65   919.22   925.70   926.83   928.30
eigval :      929.11   929.36   929.85   930.23   930.43   931.34
eigval :      931.47   931.81   931.87   932.79   936.18   940.39
eigval :      941.02   944.21   955.30   969.09   982.01   987.82
eigval :      992.85   999.60  1010.40  1017.71  1026.49  1041.37
eigval :     1052.72  1067.31  1074.30  1078.11  1083.56  1084.90
eigval :     1084.93  1085.34  1085.93  1091.01  1106.00  1113.80
eigval :     1120.17  1121.07  1121.72  1121.81  1122.27  1127.40
eigval :     1130.41  1135.71  1141.55  1144.33  1149.13  1154.49
eigval :     1159.45  1171.79  1179.84  1182.18  1182.28  1182.37
eigval :     1182.40  1182.83  1184.02  1185.98  1187.69  1190.83
eigval :     1197.85  1198.39  1200.97  1201.87  1203.52  1204.32
eigval :     1204.89  1225.75  1243.51  1247.03  1250.75  1254.48
eigval :     1255.69  1256.21  1265.02  1270.44  1278.40  1279.20
eigval :     1280.18  1282.33  1282.93  1283.22  1284.56  1293.47
eigval :     1295.25  1295.91  1301.98  1306.86  1314.88  1315.37
eigval :     1317.60  1318.91  1319.92  1320.35  1324.04  1332.74
eigval :     1337.56  1341.13  1352.41  1360.48  1361.50  1364.72
eigval :     1369.08  1394.29  1397.98  1401.14  1404.79  1407.99
eigval :     1419.06  1423.21  1424.56  1429.78  1430.15  1432.15
eigval :     1434.57  1435.19  1435.83  1441.43  1449.29  1471.80
eigval :     1472.53  1475.61  1478.36  1480.57  1483.11  1490.66
eigval :     1492.74  1494.17  1510.02  1514.08  1515.81  1533.78
eigval :     1543.87  1549.63  1556.20  1558.90  1561.62  1562.02
eigval :     1572.96  1574.33  1576.68  1580.92  1582.31  1583.17
eigval :     1584.42  1586.36  1590.14  1594.93  1598.23  1598.46
eigval :     1600.98  1601.44  1602.06  1602.92  3067.86  3071.34
eigval :     3071.59  3071.69  3072.36  3072.88  3073.07  3073.55
eigval :     3073.71  3074.18  3074.47  3076.95  3077.32  3078.75
eigval :     3079.33  3080.16  3080.50  3080.54  3081.09  3082.63
eigval :     3082.91  3083.72  3084.18  3084.57  3085.26  3085.41
eigval :     3085.51  3086.39  3087.21  3089.25  3091.07  3091.60
eigval :     3092.07  3092.89  3092.97  3094.07  3095.60  3095.76
eigval :     3096.84  3097.53  3097.91  3100.49  3100.96  3101.43
eigval :     3105.29  3107.35  3108.82  3110.55  3111.79  3112.37

   temp. (K)  partition function   enthalpy   heat capacity  entropy
                                   cal/mol     cal/K/mol   cal/K/mol   J/K/mol
 298.15  VIB  0.406E+31            38311.798    239.053    241.235
         ROT  0.344E+09              888.752      2.981     42.041
         INT  0.140E+40            39200.550    242.034    283.276
         TR   0.315E+29             1481.254      4.968     46.617
         TOT                       40681.8044   247.0021   329.8929  1380.2717

       T/K    H(0)-H(T)+PV         H(T)/Eh          T*S/Eh         G(T)/Eh
   ------------------------------------------------------------------------
    298.15    0.648306E-01    0.106481E+01    0.156743E+00    0.908071E+00
   ------------------------------------------------------------------------

         :::::::::::::::::::::::::::::::::::::::::::::::::::::
         ::                  THERMODYNAMIC                  ::
         :::::::::::::::::::::::::::::::::::::::::::::::::::::
         :: total free energy        -199.023278546439 Eh   ::
         ::.................................................::
         :: total energy             -199.931349131111 Eh   ::
         :: zero point energy           0.999982743777 Eh   ::
         :: G(RRHO) w/o ZPVE           -0.091912159105 Eh   ::
         :: G(RRHO) contrib.            0.908070584672 Eh   ::
         :::::::::::::::::::::::::::::::::::::::::::::::::::::

           -------------------------------------------------
          | TOTAL ENERGY             -199.931349131111 Eh   |
          | TOTAL ENTHALPY           -198.866535805356 Eh   |
          | TOTAL FREE ENERGY        -199.023278546439 Eh   |
          | GRADIENT NORM               0.000099381963 Eh/α |
           -------------------------------------------------

 * finished run on 2025/08/21 at 20:50:35.062
