   * xtb version 6.7.1 (edcfbbe) compiled by 'albert@albert-system' on 2024-07-22

   ID    Z sym.   atoms
    1    6 C      1-12, 14-27, 29-37, 39-44, 46-80
    2    7 N      13, 28, 38, 45
    3    1 H      81-130

          program call               : xtb data2507/gas/TPBPPI-PBI/TPBPPI-PBI_gas_S0_finalOpt.xtbopt.xyz --gfn 2 --spinpol --tblite --uhf 2 --ohess vtight --parallel 40 --molden --ceasefiles --namespace data2507/gas/TPBPPI-PBI/TPBPPI-PBI_gas_T1_preOpt
 * total energy  :  -199.9202217 Eh     change        0.1245366E-06 Eh
 * total energy  :  -199.9243681 Eh     change       -0.4146427E-02 Eh
 * total energy  :  -199.9261246 Eh     change       -0.1756540E-02 Eh
 * total energy  :  -199.9265200 Eh     change       -0.3953749E-03 Eh
 * total energy  :  -199.9270239 Eh     change       -0.5039304E-03 Eh
 * total energy  :  -199.9273694 Eh     change       -0.3454799E-03 Eh
 * total energy  :  -199.9278735 Eh     change       -0.5041068E-03 Eh
 * total energy  :  -199.9283517 Eh     change       -0.4781406E-03 Eh
 * total energy  :  -199.9288546 Eh     change       -0.5029101E-03 Eh
 * total energy  :  -199.9294686 Eh     change       -0.6140609E-03 Eh
 * total energy  :  -199.9312956 Eh     change       -0.1901228E-05 Eh
 * total energy  :  -199.9312969 Eh     change       -0.1296920E-05 Eh
 * total energy  :  -199.9312984 Eh     change       -0.1507859E-05 Eh
 * total energy  :  -199.9312991 Eh     change       -0.7138089E-06 Eh
 * total energy  :  -199.9313005 Eh     change       -0.1378204E-05 Eh
 * total energy  :  -199.9313020 Eh     change       -0.1561362E-05 Eh
 * total energy  :  -199.9313042 Eh     change       -0.2115344E-05 Eh
 * total energy  :  -199.9313041 Eh     change        0.8161075E-07 Eh
 * total energy  :  -199.9313042 Eh     change       -0.7609751E-07 Eh
   *** GEOMETRY OPTIMIZATION CONVERGED AFTER 153 ITERATIONS ***

 final structure:
================
130
 xtb: 6.7.1 (edcfbbe)
C            5.58718455051188        1.66489947668626        1.10520989173198
C            5.79683017562074        0.78008314695545        0.06087294425853
C            4.87874200246721       -0.21966286962113       -0.19865346667976
C            3.73358598831066       -0.34781278311154        0.58379774206875
C            2.77885339232647       -1.44832045768297        0.35648986256447
C            1.42018296674371       -1.18018639980042        0.25804439303132
C            0.49268629586457       -2.19324322402013        0.04497865812028
C           -0.93955476105564       -1.85390724437276        0.00276644088072
C           -1.87472596455012       -2.54701532002835        0.76920663707813
C           -3.20436657211314       -2.17731687138216        0.76583630385036
C           -3.63147831830765       -1.09577779777448       -0.00010047946581
C           -5.00818579986577       -0.62456389371212        0.08234069505211
N           -6.09162870120093       -1.34482291090532       -0.02807055675175
C           -7.13075144026210       -0.47269143654188        0.07607659764109
C           -8.52203684043723       -0.75116680642612        0.00635960429779
C           -8.98980752955640       -2.05297915311357       -0.20866515277208
C          -10.33702601304348       -2.30038206460985       -0.29344204653649
C          -11.23582064529380       -1.24329111788171       -0.16625833965031
C          -10.78748066842962        0.04001690060336        0.04946964723921
C           -9.41990033033763        0.33362805450828        0.14952071486957
C           -8.91952288472347        1.67501689942966        0.40224983524492
C           -9.78058692986487        2.76247486161745        0.60215321793566
C           -9.30770001790638        4.02658443836601        0.86954795305270
C           -7.93907784903652        4.25971525322713        0.96136197426023
C           -7.06027636079081        3.22300581904598        0.76535189935205
C           -7.52357135456442        1.93200103273548        0.47547849327441
C           -6.65345385622156        0.82806246119394        0.26830862442860
N           -5.28916145575753        0.71689685672144        0.27414425675946
C           -4.26331827981987        1.65678600512640        0.46702129997904
C           -3.40452589261593        1.49168269929060        1.56020025878036
C           -2.25111378068667        2.22154611536038        1.65395174781240
C           -1.86141134507685        3.11133150315799        0.62299279658690
C           -0.54778577715125        3.66019477351170        0.60010776667645
C            0.08970376793090        4.00398612834161       -0.63109797499737
C            1.41240439119715        4.28967740903309       -0.69506708876359
C            2.21841248436274        4.32137010166372        0.48914290824617
C            3.60221583373965        4.49243693696034        0.49509697908597
N            4.28475544269262        4.90621976040771        1.58516603369108
C            5.55131925284945        5.07260106674965        1.19725568457251
C            6.66773961215313        5.49433182096667        1.93684322389980
C            7.88707978734999        5.51803668246047        1.30218293850830
C            8.02760159877695        5.13065780765858       -0.03565492055513
C            6.94093148996593        4.72062822338657       -0.79618964513667
C            5.70502784764555        4.71317347377140       -0.18227671530056
N            4.45448444754093        4.34431189596961       -0.61058214399529
C            4.18522948526170        3.63998019811058       -1.79044334585024
C            4.62872131325187        4.12981869898101       -3.01545464757076
C            4.39145806725645        3.40837269045328       -4.17116584853963
C            3.71308005777923        2.20200240203146       -4.11678001145263
C            3.26464818512258        1.71830239627500       -2.89764063541873
C            3.49725762232987        2.42827184617379       -1.73704603411430
C            1.53563406356125        4.18003778963607        1.74240269699650
C            0.23102148322739        3.82409295066126        1.78914441853864
C           -2.79699380485548        3.33521028622197       -0.41896276810994
C           -3.97262729183717        2.63589428935938       -0.49163591844605
C           -2.70723773056242       -0.43335555262687       -0.80700912931702
C           -1.37947677886667       -0.80237717432676       -0.79694789629784
C            0.93673245415172       -3.51244197467026       -0.09819029330674
C           -0.02774344928679       -4.59554388880429       -0.37376729127278
C           -0.10471834407839       -5.71262974053540        0.45210729398736
C           -1.01100225378684       -6.72075016284268        0.18228343422645
C           -1.84971524185393       -6.62826126975664       -0.91556471644366
C           -1.78016700610021       -5.51970688966139       -1.74215617743461
C           -0.87668819586461       -4.50911811576460       -1.47312915797601
C            2.30193835112990       -3.79512552051442        0.00359323523976
C            2.77283612014097       -5.18927983371913       -0.14014762590345
C            3.46834782155766       -5.81084361818941        0.89152949362641
C            3.90507211426539       -7.11505856488264        0.75433002714522
C            3.65620455062203       -7.81294126933974       -0.41528517879149
C            2.96564676660687       -7.20071193137822       -1.44734812465497
C            2.52445730992320       -5.89793355334959       -1.31091480645834
C            3.22370304983383       -2.77154860044041        0.24118907957018
C            4.65634318556664       -3.09648527577756        0.39341675673182
C            5.32906620870777       -2.75057044186913        1.56138705957307
C            6.66521080716356       -3.06618459059843        1.71955639129638
C            7.34773684893781       -3.72765462085604        0.71266480730986
C            6.68691853728649       -4.07148433815777       -0.45442556432557
C            5.34964022305520       -3.76026382585546       -0.61360310028007
C            3.50682033027728        0.57872304533423        1.59864197399785
C            4.43081656772816        1.57427228179955        1.86140430501435
H            6.31986370913670        2.42678430690242        1.32674513833364
H            6.68410233832087        0.86506788115351       -0.54944676407576
H            5.04643507670585       -0.90382481522616       -1.01691811273564
H            1.07281477122041       -0.16081472719882        0.35758090708898
H           -1.55012706831446       -3.36582188300342        1.39344231883807
H           -3.92235114629750       -2.70531117562016        1.37443196231352
H           -8.25883570342678       -2.84024963109606       -0.30847930534681
H          -10.70224049359271       -3.30291585664414       -0.45997530350734
H          -12.29735831083571       -1.43188518674018       -0.23663047462440
H          -11.52082298975121        0.82554232252024        0.13989504177010
H          -10.84798507860874        2.61883255492465        0.55491427335788
H          -10.00297087570409        4.83979674262848        1.01730887024092
H           -7.57004729458919        5.24917334741071        1.18684076227790
H           -5.99804217661258        3.39607423998045        0.84687129908878
H           -3.65287789977529        0.75830043327438        2.31372703481851
H           -1.58796790859264        2.04817332191544        2.48628575025760
H           -0.48616759510439        3.97981746644942       -1.54373450447052
H            1.86281378659890        4.53568897020024       -1.64442926950981
H            6.55255719562043        5.77826763306053        2.97001945727144
H            8.76537685666499        5.83454127797074        1.84538494965264
H            9.00793232084714        5.14928761262141       -0.48771238324705
H            7.06805881063985        4.40761360074571       -1.82118595955748
H            5.13747660532564        5.08132836358528       -3.05863995018083
H            4.73438501527285        3.79413517073163       -5.11990411951273
H            3.53254296216445        1.64227090366129       -5.02200688000469
H            2.73832310636120        0.77672639829417       -2.84626198134901
H            3.15805709527699        2.05168520513036       -0.78497012731552
H            2.11749827772650        4.32389997485059        2.63853020383265
H           -0.25289746199992        3.69983128777864        2.74627725560945
H           -2.58258684763409        4.07826089805273       -1.17136768638944
H           -4.66303763347031        2.80024965522307       -1.30745775180558
H           -3.03009190921582        0.36869781876293       -1.45319441934925
H           -0.67318925777841       -0.27617606077335       -1.42301145330613
H            0.54138306706993       -5.78325289260481        1.31518936569021
H           -1.06305627503138       -7.58198296215467        0.83229779195782
H           -2.55638750763707       -7.41735922166407       -1.12571573098580
H           -2.43255467532561       -5.44162670674602       -2.59948696507674
H           -0.81876676471891       -3.64749892560814       -2.12302090792749
H            3.65831090395626       -5.26972543199202        1.80739744813224
H            4.44184782515449       -7.58848987143928        1.56349385556248
H            3.99930310794371       -8.83146434306535       -0.52208268104426
H            2.76940927029910       -7.74021570514982       -2.36249223372779
H            1.98994381329843       -5.41972663735428       -2.11929928676987
H            4.79598444488607       -2.23962150827383        2.35048757878988
H            7.17559998252093       -2.79560601917121        2.63239783715876
H            8.39189229804263       -3.97419827084826        0.83703671872090
H            7.21507573720584       -4.58539881383983       -1.24437675371193
H            4.83858009443643       -4.02350329412471       -1.52854421837867
H            2.61350153311994        0.49906582640174        2.20220128274175
H            4.25233836718487        2.28119892125023        2.65778856085313

 projected vibrational frequencies (cm⁻¹)
eigval :       -0.00    -0.00    -0.00    -0.00     0.00     0.00
eigval :        6.58    11.09    13.29    18.24    20.53    21.43
eigval :       22.91    27.06    31.10    33.11    38.58    43.09
eigval :       46.57    48.05    57.43    60.31    66.56    69.92
eigval :       71.95    73.34    73.50    76.51    81.90    83.73
eigval :       85.83    89.87    95.85    99.73   100.69   110.26
eigval :      115.32   120.51   126.61   136.87   137.89   148.90
eigval :      174.92   179.99   195.66   202.58   207.17   212.41
eigval :      213.88   221.74   231.25   236.93   240.30   244.37
eigval :      251.40   253.07   259.48   265.67   268.03   277.44
eigval :      286.48   303.50   314.87   329.40   341.93   356.27
eigval :      360.56   367.63   368.44   373.89   374.36   374.76
eigval :      377.26   379.28   382.05   383.62   388.97   393.19
eigval :      398.75   403.43   408.49   412.61   425.28   438.09
eigval :      446.97   449.21   462.74   467.16   475.14   477.69
eigval :      487.15   492.63   500.98   505.83   516.43   517.02
eigval :      520.58   532.42   533.53   541.26   559.86   574.76
eigval :      579.31   580.34   584.16   584.44   586.30   587.61
eigval :      588.02   589.93   595.16   598.43   602.83   606.03
eigval :      610.04   612.03   617.70   631.44   640.61   646.54
eigval :      652.86   657.18   663.28   667.43   668.96   670.10
eigval :      673.92   674.40   677.23   680.70   686.38   687.26
eigval :      693.25   698.26   704.11   708.18   720.26   723.35
eigval :      734.91   745.00   749.05   754.33   759.15   762.83
eigval :      765.02   765.98   768.16   780.21   781.90   792.03
eigval :      795.01   801.15   811.14   819.91   831.80   838.96
eigval :      845.23   856.34   863.74   869.42   871.43   874.59
eigval :      874.87   876.00   876.57   877.83   878.55   879.70
eigval :      883.57   887.43   900.59   902.83   902.95   903.27
eigval :      903.63   905.88   907.90   908.85   910.24   912.31
eigval :      913.75   917.43   919.37   925.30   926.80   928.35
eigval :      929.09   929.31   929.72   929.95   930.19   931.35
eigval :      931.48   931.60   931.85   933.39   936.14   940.17
eigval :      940.88   944.77   955.31   969.03   981.69   987.56
eigval :      992.77   999.55  1010.29  1018.41  1026.74  1041.19
eigval :     1052.64  1067.35  1074.45  1077.53  1082.58  1084.67
eigval :     1084.99  1085.25  1086.02  1090.75  1105.87  1112.96
eigval :     1120.21  1121.01  1121.68  1121.83  1122.23  1126.91
eigval :     1130.21  1135.75  1141.55  1142.43  1149.14  1154.30
eigval :     1159.04  1171.77  1179.92  1182.05  1182.15  1182.29
eigval :     1182.39  1182.41  1183.97  1185.62  1187.47  1190.58
eigval :     1198.03  1198.40  1201.19  1201.81  1203.57  1204.24
eigval :     1204.79  1223.04  1243.75  1245.42  1250.37  1254.58
eigval :     1255.47  1255.68  1263.89  1270.47  1278.99  1279.51
eigval :     1280.59  1282.46  1282.97  1283.54  1284.59  1292.90
eigval :     1295.47  1295.87  1302.33  1307.99  1314.97  1315.73
eigval :     1317.77  1319.03  1320.39  1320.45  1323.60  1332.35
eigval :     1337.45  1340.99  1352.19  1359.84  1360.85  1364.71
eigval :     1367.87  1394.29  1397.52  1400.85  1404.70  1407.82
eigval :     1419.40  1422.62  1424.49  1429.56  1430.19  1432.08
eigval :     1434.57  1435.14  1435.96  1441.56  1448.65  1471.42
eigval :     1472.44  1475.41  1478.59  1480.62  1482.96  1490.18
eigval :     1492.93  1494.02  1509.53  1513.35  1515.58  1533.81
eigval :     1543.52  1549.16  1555.63  1558.80  1561.20  1561.65
eigval :     1571.94  1573.56  1576.32  1581.27  1582.61  1583.42
eigval :     1584.65  1586.41  1590.00  1594.31  1598.21  1598.83
eigval :     1601.34  1601.66  1602.19  1602.41  3067.65  3071.10
eigval :     3071.68  3071.74  3072.33  3072.83  3073.04  3073.17
eigval :     3073.78  3074.26  3075.25  3076.59  3077.39  3078.66
eigval :     3079.18  3079.80  3080.11  3080.54  3081.22  3081.52
eigval :     3081.95  3082.64  3084.75  3085.34  3085.46  3085.56
eigval :     3085.62  3086.57  3087.24  3089.44  3091.39  3092.28
eigval :     3092.91  3093.21  3093.90  3094.12  3095.12  3095.63
eigval :     3097.56  3097.77  3097.94  3099.14  3101.04  3101.19
eigval :     3105.04  3105.47  3109.87  3110.53  3111.30  3112.19

   temp. (K)  partition function   enthalpy   heat capacity  entropy
                                   cal/mol     cal/K/mol   cal/K/mol   J/K/mol
 298.15  VIB  0.464E+31            38311.479    239.101    241.383
         ROT  0.337E+09              888.752      2.981     42.003
         INT  0.157E+40            39200.232    242.082    283.386
         TR   0.315E+29             1481.254      4.968     46.617
         TOT                       40681.4857   247.0498   330.0034  1380.7341

       T/K    H(0)-H(T)+PV         H(T)/Eh          T*S/Eh         G(T)/Eh
   ------------------------------------------------------------------------
    298.15    0.648301E-01    0.106475E+01    0.156795E+00    0.907952E+00
   ------------------------------------------------------------------------

         :::::::::::::::::::::::::::::::::::::::::::::::::::::
         ::                  THERMODYNAMIC                  ::
         :::::::::::::::::::::::::::::::::::::::::::::::::::::
         :: total free energy        -199.023352028923 Eh   ::
         ::.................................................::
         :: total energy             -199.931304168850 Eh   ::
         :: zero point energy           0.999917311336 Eh   ::
         :: G(RRHO) w/o ZPVE           -0.091965171409 Eh   ::
         :: G(RRHO) contrib.            0.907952139927 Eh   ::
         :::::::::::::::::::::::::::::::::::::::::::::::::::::

           -------------------------------------------------
          | TOTAL ENERGY             -199.931304168850 Eh   |
          | TOTAL ENTHALPY           -198.866556783435 Eh   |
          | TOTAL FREE ENERGY        -199.023352028923 Eh   |
          | GRADIENT NORM               0.000088530354 Eh/α |
           -------------------------------------------------

 * finished run on 2025/08/21 at 20:37:27.106
