   * xtb version 6.7.1 (edcfbbe) compiled by 'albert@albert-system' on 2024-07-22

   ID    Z sym.   atoms
    1    6 C      1-12, 14-27, 29-37, 39-44, 46-80
    2    7 N      13, 28, 38, 45
    3    1 H      81-130

          program call               : xtb data2507/gas/TPBPPI-PBI/TPBPPI-PBI.xyz --gfn 2 --ohess vtight --parallel 40 --molden --ceasefiles --namespace data2507/gas/TPBPPI-PBI/TPBPPI-PBI_gas_S0_preOpt
          :  Hamiltonian                  GFN2-xTB          :
 * total energy  :  -199.9684669 Eh     change       -0.7228834E-08 Eh
 * total energy  :  -199.9884278 Eh     change       -0.1996086E-01 Eh
 * total energy  :  -199.9943813 Eh     change       -0.5953483E-02 Eh
 * total energy  :  -199.9966467 Eh     change       -0.2265394E-02 Eh
 * total energy  :  -199.9982579 Eh     change       -0.1611245E-02 Eh
 * total energy  :  -199.9993380 Eh     change       -0.1080127E-02 Eh
 * total energy  :  -200.0004489 Eh     change       -0.1110883E-02 Eh
 * total energy  :  -200.0017037 Eh     change       -0.1254788E-02 Eh
 * total energy  :  -200.0030885 Eh     change       -0.1384790E-02 Eh
 * total energy  :  -200.0044244 Eh     change       -0.1335849E-02 Eh
 * total energy  :  -200.0147973 Eh     change       -0.8453131E-06 Eh
 * total energy  :  -200.0147982 Eh     change       -0.9001147E-06 Eh
 * total energy  :  -200.0147992 Eh     change       -0.9948188E-06 Eh
 * total energy  :  -200.0148003 Eh     change       -0.1096757E-05 Eh
 * total energy  :  -200.0148014 Eh     change       -0.1188230E-05 Eh
 * total energy  :  -200.0148027 Eh     change       -0.1252174E-05 Eh
 * total energy  :  -200.0148040 Eh     change       -0.1265815E-05 Eh
 * total energy  :  -200.0148052 Eh     change       -0.1245302E-05 Eh
 * total energy  :  -200.0148052 Eh     change       -0.3847276E-08 Eh
   *** GEOMETRY OPTIMIZATION CONVERGED AFTER 152 ITERATIONS ***

 final structure:
================
130
 xtb: 6.7.1 (edcfbbe)
C            0.74305996280052        6.09453907391336       -0.84362435316340
C           -0.14812754124605        6.15111230567940        0.21498738415439
C           -1.12355440706752        5.18210342724151        0.35736156243819
C           -1.21976671641995        4.13855490339403       -0.55865862154236
C           -2.25679482175022        3.09963001373616       -0.41844689657293
C           -1.88325694741034        1.76334673366741       -0.40165830548125
C           -2.81733329054510        0.74791987232707       -0.23974184159062
C           -2.35868712173921       -0.65133314973996       -0.21959526767252
C           -2.97223986619424       -1.63793773425007       -0.98912227245394
C           -2.53137350692762       -2.94333348361948       -0.93903847905907
C           -1.45355984585566       -3.29926184151225       -0.12863855655171
C           -1.03066403940804       -4.69041886859315       -0.09098525243488
N           -1.85623022751666       -5.70541545716215       -0.10842065953667
C           -1.08120078673960       -6.81926767333469       -0.02970195509325
C           -1.50412649627660       -8.17661009022880        0.01887303857162
C           -2.86168923282585       -8.51309567094084       -0.00471008461905
C           -3.25126953238934       -9.82691830475145        0.06728891373313
C           -2.28223000641357      -10.82333917099040        0.16764785273311
C           -0.94474197818005      -10.50398113619724        0.18744863071579
C           -0.50552830001360       -9.17339315760098        0.10844484856729
C            0.90015017007661       -8.80642133098333        0.09961260236950
C            1.91446588365746       -9.77404514665353        0.12810298950872
C            3.24648051390835       -9.43658442959764        0.08554558471397
C            3.62695537392021       -8.10128140410321       -0.00272545783201
C            2.66542975361177       -7.12165643772091       -0.02664699048272
C            1.30238362230170       -7.44373256285290        0.03962071788198
C            0.26703655959919       -6.46835476619785        0.02259077187208
N            0.28547090891171       -5.09320200230269       -0.00776539072093
C            1.37854480704557       -4.20575777307203       -0.02620677961182
C            1.60046623134837       -3.42945230023708       -1.15743077031833
C            2.61421189331678       -2.49284142329155       -1.16019988403924
C            3.40873335124789       -2.30132748712013       -0.03258292234472
C            4.42917305113968       -1.24396841228933       -0.02631381142442
C            4.51485424454818       -0.36019231538810        1.04706601526292
C            5.40794732881439        0.69082904678689        1.02488369035627
C            6.25032182831241        0.87176224643275       -0.07049726625348
C            7.17345086826314        1.99534412967542       -0.14195289874212
N            8.40205434388595        1.90612015044238       -0.56731502220954
C            8.93784616412336        3.15917930367584       -0.44568084028719
C           10.20967423781272        3.62652385244305       -0.75760725925430
C           10.46882753057993        4.96401187303191       -0.54770430569078
C            9.49270598615647        5.83010461380537       -0.05052517762407
C            8.22441721772945        5.38748333411830        0.26804109880728
C            7.96278800726788        4.03980456315918        0.08085320617852
N            6.83590809412551        3.27052940145445        0.26976948771481
C            5.57107327537997        3.72500572630169        0.67451280854535
C            5.44316715938213        4.50801594252492        1.81636021613259
C            4.19250914632099        4.95170107910028        2.20834796664812
C            3.06811015432952        4.60887044231372        1.47705870074164
C            3.19629589267054        3.82604952573335        0.34125791702753
C            4.44213839920878        3.39281392284240       -0.06935994665422
C            6.21008210024928       -0.04550910887053       -1.11852992780901
C            5.29972410531849       -1.08184493895636       -1.10199420910006
C            3.18815964118999       -3.09651739619173        1.09044838946065
C            2.18645806858125       -4.04641475441657        1.09624791838745
C           -0.83927098862010       -2.31499145264459        0.64298128873105
C           -1.28534884071327       -1.01053625332468        0.59147300981559
C           -4.16938234615708        1.07960116677406       -0.09443508471857
C           -5.18137706408779        0.02211452778267        0.10106631560173
C           -6.26243088825590       -0.09572594251752       -0.76672086487220
C           -7.20430213955470       -1.08992198007235       -0.57954322028677
C           -7.08033989998794       -1.97653775902610        0.47666966410518
C           -6.00822861033787       -1.86520247143671        1.34572969471335
C           -5.06395271251077       -0.87333885566708        1.15965712775474
C           -4.55809942792272        2.42237422711942       -0.11955789375012
C           -5.98622958773295        2.77575961448011        0.02527269907537
C           -6.63636390743009        3.49915379499390       -0.96905527982561
C           -7.97237774036444        3.82749261907932       -0.83573156388623
C           -8.67434348845700        3.44124282920474        0.29339084580044
C           -8.03371875651822        2.72305760441284        1.28875811580576
C           -6.69876485383989        2.39026087478971        1.15592082641937
C           -3.60778808653947        3.43524694084314       -0.27898445890528
C           -4.02923782384092        4.84994057011267       -0.30860599471968
C           -3.71350523467961        5.65281794576167       -1.40022752712107
C           -4.10901841566670        6.97673226849078       -1.43375756375557
C           -4.82082993131786        7.51714439352259       -0.37625457156169
C           -5.13569882591921        6.72612320935796        0.71569063241363
C           -4.74452590695970        5.40093633827121        0.74994602506311
C           -0.30920469102165        4.07925432876787       -1.60936614527300
C            0.66106664544644        5.05450571135451       -1.75407556299064
H            1.50234382183267        6.85407573924673       -0.95605258151829
H           -0.08493679742610        6.95700710156060        0.93189102954113
H           -1.81321287044324        5.22727084664490        1.18731070478762
H           -0.83919906395164        1.50628211239363       -0.51423392387235
H           -3.79521362840505       -1.37553891225804       -1.63659667866103
H           -3.01273802188928       -3.70946512918866       -1.52649125870460
H           -3.57839714991649       -7.70967789674528       -0.07551623922727
H           -4.29826278412422      -10.09164824297452        0.05046848247156
H           -2.58408156958476      -11.85900399063493        0.23050784118623
H           -0.23177762351599      -11.30913595851475        0.26845191472153
H            1.65687750955125      -10.81965222886595        0.17780719108310
H            3.99919785005025      -10.21083102830660        0.10987651606687
H            4.67250807956035       -7.83580098081945       -0.05554145868903
H            2.96293262430494       -6.08823358206982       -0.11130444043497
H            0.96669805410433       -3.55891460969569       -2.02221403752829
H            2.77446026697481       -1.87971004730444       -2.03439266256239
H            3.85264183366378       -0.48249392128731        1.89174771245736
H            5.45623946963954        1.36956640693992        1.86378804387948
H           10.95498541688187        2.95600129967749       -1.15376393269899
H           11.44688629564986        5.35947664449389       -0.77878437558657
H            9.73673655780117        6.87322454646805        0.08626666315963
H            7.46922916393093        6.06441022303738        0.63892906648931
H            6.32008521149978        4.75171022663951        2.39764074500203
H            4.09783305192075        5.56110616440216        3.09485184894180
H            2.09152384227681        4.95034988002426        1.78454543813930
H            2.32039356788380        3.56324770080979       -0.23174656899628
H            4.54875025289467        2.79551617339576       -0.96266607804074
H            6.89134616102728        0.08136937647290       -1.94549046726254
H            5.26605075306113       -1.78286237758835       -1.92323301867236
H            3.81265749129504       -2.97129388511404        1.96254707552499
H            2.01396682805281       -4.66142576365491        1.96787754233090
H           -0.02889751699760       -2.56932083445203        1.30910248028977
H           -0.81258456369027       -0.26096468595442        1.21029902989840
H           -6.35603108624535        0.58869625274569       -1.59762297190086
H           -8.03766215510451       -1.17332313431121       -1.26187315004687
H           -7.81670967150151       -2.75306522053634        0.62146026841737
H           -5.90604528709414       -2.55475864680839        2.17071232574317
H           -4.23058723579274       -0.78396579867649        1.84200131741560
H           -6.09175708925442        3.79603616167596       -1.85398035827961
H           -8.46747594711700        4.38682312360848       -1.61617410871121
H           -9.71800656245961        3.69910323127604        0.39724713465859
H           -8.57628569351403        2.42017705768528        2.17245280991546
H           -6.19922877038348        1.83449832519418        1.93647828286817
H           -3.16380454427448        5.23088408164930       -2.22957069840588
H           -3.86133469466174        7.58898881715433       -2.28870242267039
H           -5.12919331219718        8.55189205154223       -0.40289585282025
H           -5.68886319876067        7.14311052857760        1.54466657269292
H           -4.98498960742086        4.78808684224149        1.60672544600554
H           -0.37838433017843        3.27245994611915       -2.32584039113955
H            1.35589198202377        5.00426600970057       -2.58019722750900

          :  Hamiltonian                  GFN2-xTB          :
         :: gradient norm              0.000059151530 Eh/a0 ::
         :: HOMO-LUMO gap              2.442186906666 eV    ::
         :: SCC energy              -203.845098046364 Eh    ::
         :: -> dispersion             -0.203806523341 Eh    ::
         :: repulsion energy           3.830292837059 Eh    ::

    * Orbital Energies and Occupations

         #    Occupation            Energy/Eh            Energy/eV
      -------------------------------------------------------------
         1        2.0000           -0.6877692             -18.7152
       ...           ...                  ...                  ...
       175        2.0000           -0.4018140             -10.9339
       176        2.0000           -0.3991416             -10.8612
       177        2.0000           -0.3975626             -10.8182
       178        2.0000           -0.3944138             -10.7325
       179        2.0000           -0.3923643             -10.6768
       180        2.0000           -0.3825118             -10.4087
       181        2.0000           -0.3815922             -10.3837
       182        2.0000           -0.3808798             -10.3643
       183        2.0000           -0.3788664             -10.3095
       184        2.0000           -0.3776330             -10.2759
       185        2.0000           -0.3774800             -10.2718
       186        2.0000           -0.3732797             -10.1575
       187        2.0000           -0.3600899              -9.7985 (HOMO)
       188                         -0.2703412              -7.3564 (LUMO)
       189                         -0.2617002              -7.1212
       190                         -0.2506648              -6.8209
       191                         -0.2483449              -6.7578
       192                         -0.2451618              -6.6712
       193                         -0.2438019              -6.6342
       194                         -0.2424736              -6.5980
       195                         -0.2408523              -6.5539
       196                         -0.2353071              -6.4030
       197                         -0.2339901              -6.3672
       198                         -0.2328134              -6.3352
       ...                                ...                  ...
       370                          0.7320096              19.9190
      -------------------------------------------------------------
                  HL-Gap            0.0897487 Eh            2.4422 eV

     #   Z          covCN         q      C6AA      α(0)
     1   6 C        2.920    -0.030    28.757     8.794
     2   6 C        2.919    -0.029    28.726     8.789
     3   6 C        2.924    -0.032    28.786     8.799
     4   6 C        2.978     0.013    27.709     8.635
     5   6 C        2.978     0.001    27.990     8.678
     6   6 C        2.930    -0.043    29.073     8.843
     7   6 C        2.977     0.002    27.973     8.676
     8   6 C        2.978     0.014    27.704     8.634
     9   6 C        2.922    -0.030    28.754     8.794
    10   6 C        2.926    -0.028    28.699     8.785
    11   6 C        2.974     0.001    28.007     8.681
    12   6 C        3.195     0.127    24.733     8.108
    13   7 N        1.894    -0.290    28.379     7.898
    14   6 C        3.211     0.056    26.121     8.319
    15   6 C        2.986     0.003    27.954     8.673
    16   6 C        2.922    -0.031    28.781     8.798
    17   6 C        2.917    -0.030    28.758     8.794
    18   6 C        2.917    -0.033    28.825     8.804
    19   6 C        2.922    -0.035    28.869     8.811
    20   6 C        2.979    -0.002    28.062     8.689
    21   6 C        2.980     0.002    27.979     8.677
    22   6 C        2.922    -0.034    28.840     8.807
    23   6 C        2.917    -0.033    28.832     8.805
    24   6 C        2.917    -0.032    28.793     8.799
    25   6 C        2.919    -0.040    28.996     8.830
    26   6 C        2.978    -0.002    28.069     8.691
    27   6 C        3.073     0.020    27.489     8.596
    28   7 N        2.843    -0.046    22.128     6.987
    29   6 C        2.914     0.067    26.502     8.442
    30   6 C        2.921    -0.038    28.955     8.824
    31   6 C        2.926    -0.031    28.778     8.797
    32   6 C        2.978     0.011    27.758     8.642
    33   6 C        2.978     0.011    27.760     8.643
    34   6 C        2.924    -0.033    28.823     8.804
    35   6 C        2.921    -0.031    28.767     8.795
    36   6 C        2.975     0.004    27.928     8.669
    37   6 C        3.185     0.135    24.632     8.099
    38   7 N        1.885    -0.290    28.367     7.896
    39   6 C        3.195     0.067    26.008     8.314
    40   6 C        2.910    -0.041    29.030     8.835
    41   6 C        2.923    -0.039    28.970     8.827
    42   6 C        2.926    -0.037    28.911     8.818
    43   6 C        2.908    -0.051    29.258     8.869
    44   6 C        3.086     0.034    27.139     8.540
    45   7 N        2.825    -0.051    22.220     7.001
    46   6 C        2.912     0.066    26.529     8.446
    47   6 C        2.922    -0.042    29.034     8.836
    48   6 C        2.920    -0.027    28.682     8.782
    49   6 C        2.919    -0.031    28.766     8.795
    50   6 C        2.920    -0.026    28.661     8.779
    51   6 C        2.922    -0.040    28.987     8.829
    52   6 C        2.924    -0.027    28.675     8.782
    53   6 C        2.923    -0.032    28.800     8.801
    54   6 C        2.924    -0.032    28.809     8.802
    55   6 C        2.919    -0.037    28.927     8.820
    56   6 C        2.921    -0.036    28.884     8.813
    57   6 C        2.925    -0.035    28.868     8.811
    58   6 C        2.982    -0.001    28.037     8.686
    59   6 C        2.978     0.015    27.670     8.629
    60   6 C        2.925    -0.032    28.800     8.801
    61   6 C        2.919    -0.029    28.735     8.791
    62   6 C        2.920    -0.030    28.752     8.793
    63   6 C        2.919    -0.028    28.711     8.787
    64   6 C        2.925    -0.031    28.774     8.797
    65   6 C        2.983     0.000    28.020     8.683
    66   6 C        2.979     0.016    27.653     8.626
    67   6 C        2.925    -0.031    28.782     8.798
    68   6 C        2.919    -0.030    28.739     8.791
    69   6 C        2.920    -0.031    28.774     8.796
    70   6 C        2.919    -0.029    28.737     8.791
    71   6 C        2.925    -0.031    28.780     8.798
    72   6 C        2.983    -0.001    28.056     8.689
    73   6 C        2.978     0.016    27.653     8.626
    74   6 C        2.925    -0.032    28.787     8.799
    75   6 C        2.919    -0.030    28.743     8.792
    76   6 C        2.920    -0.031    28.778     8.797
    77   6 C        2.919    -0.030    28.741     8.791
    78   6 C        2.925    -0.032    28.792     8.800
    79   6 C        2.925    -0.035    28.863     8.810
    80   6 C        2.919    -0.029    28.737     8.791
    81   1 H        0.926     0.029     2.607     2.525
    82   1 H        0.926     0.028     2.611     2.527
    83   1 H        0.926     0.029     2.601     2.522
    84   1 H        0.926     0.031     2.573     2.508
    85   1 H        0.926     0.036     2.502     2.473
    86   1 H        0.926     0.050     2.326     2.385
    87   1 H        0.926     0.050     2.318     2.381
    88   1 H        0.926     0.029     2.595     2.519
    89   1 H        0.926     0.027     2.624     2.533
    90   1 H        0.926     0.030     2.585     2.514
    91   1 H        0.926     0.034     2.532     2.488
    92   1 H        0.926     0.028     2.611     2.527
    93   1 H        0.926     0.027     2.631     2.537
    94   1 H        0.926     0.025     2.658     2.550
    95   1 H        0.926     0.040     2.445     2.445
    96   1 H        0.926     0.041     2.439     2.442
    97   1 H        0.926     0.035     2.520     2.483
    98   1 H        0.926     0.031     2.573     2.508
    99   1 H        0.926     0.044     2.391     2.418
   100   1 H        0.926     0.032     2.557     2.500
   101   1 H        0.926     0.031     2.572     2.508
   102   1 H        0.926     0.027     2.633     2.537
   103   1 H        0.926     0.043     2.412     2.429
   104   1 H        0.926     0.039     2.463     2.454
   105   1 H        0.926     0.038     2.473     2.459
   106   1 H        0.926     0.039     2.463     2.454
   107   1 H        0.926     0.036     2.504     2.474
   108   1 H        0.926     0.053     2.285     2.364
   109   1 H        0.926     0.039     2.461     2.453
   110   1 H        0.926     0.042     2.427     2.436
   111   1 H        0.926     0.043     2.405     2.425
   112   1 H        0.926     0.027     2.636     2.539
   113   1 H        0.926     0.031     2.574     2.509
   114   1 H        0.926     0.027     2.634     2.538
   115   1 H        0.926     0.030     2.592     2.518
   116   1 H        0.926     0.031     2.569     2.506
   117   1 H        0.926     0.032     2.561     2.503
   118   1 H        0.926     0.026     2.648     2.544
   119   1 H        0.926     0.027     2.632     2.537
   120   1 H        0.926     0.029     2.595     2.519
   121   1 H        0.926     0.030     2.589     2.516
   122   1 H        0.926     0.030     2.592     2.517
   123   1 H        0.926     0.027     2.627     2.534
   124   1 H        0.926     0.026     2.637     2.539
   125   1 H        0.926     0.029     2.598     2.521
   126   1 H        0.926     0.030     2.593     2.518
   127   1 H        0.926     0.029     2.597     2.520
   128   1 H        0.926     0.027     2.625     2.534
   129   1 H        0.925     0.029     2.607     2.525
   130   1 H        0.926     0.029     2.607     2.525

molecular dipole:
                 x           y           z       tot (Debye)
 q only:       -0.447       1.046       0.232
   full:       -0.266       1.410       0.416       3.796

 projected vibrational frequencies (cm⁻¹)
eigval :       -0.00    -0.00     0.00     0.00     0.00     0.00
eigval :        4.32     7.37    10.68    13.44    15.98    18.69
eigval :       23.66    25.55    28.51    32.70    36.79    42.10
eigval :       45.84    47.57    48.46    53.77    61.16    66.37
eigval :       68.27    70.69    72.02    72.79    74.12    75.76
eigval :       79.19    86.77    89.19    92.57    99.39   100.99
eigval :      109.02   115.68   122.06   126.39   136.69   154.89
eigval :      176.15   186.52   194.39   201.58   204.24   211.06
eigval :      213.15   221.12   228.39   233.69   238.17   241.72
eigval :      250.47   255.31   259.29   264.85   270.19   288.08
eigval :      303.06   306.95   318.05   346.19   347.57   358.91
eigval :      367.89   370.97   373.91   374.11   374.75   374.79
eigval :      377.18   378.49   381.51   383.28   392.55   396.20
eigval :      399.93   404.75   408.46   425.12   440.69   442.02
eigval :      448.97   463.35   466.30   482.23   486.46   487.89
eigval :      494.06   502.97   506.91   516.34   521.18   531.24
eigval :      535.31   540.37   543.21   547.62   564.41   579.38
eigval :      581.20   583.99   585.27   587.53   588.11   590.33
eigval :      592.60   598.10   598.51   606.60   608.57   610.54
eigval :      615.01   618.37   638.01   647.46   650.20   653.70
eigval :      660.96   663.93   667.40   668.77   670.44   673.59
eigval :      676.42   682.35   684.87   687.26   687.79   696.21
eigval :      706.03   709.32   710.15   716.25   723.37   725.69
eigval :      735.32   745.90   759.13   764.48   765.11   765.76
eigval :      766.16   769.84   775.30   782.67   783.70   796.58
eigval :      811.83   819.42   834.01   839.61   862.79   867.73
eigval :      869.07   869.75   870.61   872.53   875.12   876.30
eigval :      877.73   878.44   879.09   879.62   879.89   884.73
eigval :      888.20   899.32   902.48   902.97   903.25   904.10
eigval :      905.26   907.41   913.44   914.64   919.67   920.59
eigval :      922.49   923.96   926.80   927.49   928.85   929.05
eigval :      929.33   929.79   930.55   931.25   931.42   931.59
eigval :      931.80   932.01   933.67   935.94   939.84   948.48
eigval :      952.82   961.43   970.43   982.24   987.86   992.78
eigval :     1005.24  1015.37  1026.24  1031.89  1041.97  1060.87
eigval :     1070.94  1074.80  1080.12  1081.46  1084.48  1084.85
eigval :     1085.71  1085.86  1090.95  1107.89  1117.28  1120.72
eigval :     1121.24  1121.60  1121.90  1131.63  1133.50  1135.01
eigval :     1136.18  1136.70  1138.18  1142.70  1152.92  1174.66
eigval :     1174.80  1179.92  1182.23  1182.40  1182.44  1182.60
eigval :     1183.02  1185.90  1188.32  1190.23  1191.05  1197.56
eigval :     1198.41  1199.02  1201.33  1203.52  1205.57  1207.22
eigval :     1209.82  1244.16  1252.89  1255.68  1257.22  1259.82
eigval :     1264.94  1268.68  1272.46  1275.90  1280.13  1282.59
eigval :     1282.95  1283.93  1284.58  1288.20  1294.51  1295.62
eigval :     1296.96  1306.30  1311.22  1315.21  1316.36  1316.92
eigval :     1317.94  1318.95  1319.40  1320.47  1323.90  1328.80
eigval :     1340.12  1347.08  1362.50  1362.61  1375.65  1379.87
eigval :     1393.77  1395.69  1407.90  1408.81  1410.50  1415.81
eigval :     1421.75  1425.37  1429.94  1432.29  1432.71  1435.31
eigval :     1436.27  1437.40  1442.58  1468.77  1475.89  1478.93
eigval :     1479.30  1482.98  1489.31  1490.34  1494.94  1501.63
eigval :     1515.27  1519.20  1536.36  1543.82  1547.12  1558.22
eigval :     1558.94  1563.72  1565.67  1568.49  1571.52  1582.53
eigval :     1583.04  1583.57  1583.82  1584.87  1589.45  1593.65
eigval :     1595.07  1595.88  1598.87  1600.35  1601.64  1601.93
eigval :     1602.00  1602.35  1605.22  1618.20  3067.46  3071.19
eigval :     3071.40  3071.62  3071.63  3072.60  3072.84  3072.91
eigval :     3073.09  3073.24  3074.88  3075.42  3075.71  3076.92
eigval :     3078.80  3080.06  3080.45  3080.81  3080.91  3081.23
eigval :     3081.38  3082.03  3083.05  3084.95  3085.38  3085.54
eigval :     3085.83  3086.23  3086.73  3087.67  3089.18  3090.86
eigval :     3091.80  3092.59  3092.62  3092.68  3092.75  3093.63
eigval :     3094.16  3095.75  3096.29  3096.55  3096.69  3104.45
eigval :     3104.52  3104.95  3106.00  3109.40  3109.66  3110.60

   temp. (K)  partition function   enthalpy   heat capacity  entropy
                                   cal/mol     cal/K/mol   cal/K/mol   J/K/mol
 298.15  VIB  0.694E+32            38182.508    236.187    243.191
         ROT  0.433E+09              888.752      2.981     42.499
         INT  0.300E+41            39071.261    239.168    285.690
         TR   0.315E+29             1481.254      4.968     46.617
         TOT                       40552.5145   244.1360   332.3068  1390.3717

       T/K    H(0)-H(T)+PV         H(T)/Eh          T*S/Eh         G(T)/Eh
   ------------------------------------------------------------------------
    298.15    0.646245E-01    0.106859E+01    0.157890E+00    0.910697E+00
   ------------------------------------------------------------------------

         :::::::::::::::::::::::::::::::::::::::::::::::::::::
         ::                  THERMODYNAMIC                  ::
         :::::::::::::::::::::::::::::::::::::::::::::::::::::
         :: total free energy        -199.104108157676 Eh   ::
         ::.................................................::
         :: total energy             -200.014805209304 Eh   ::
         :: zero point energy           1.003962191773 Eh   ::
         :: G(RRHO) w/o ZPVE           -0.093265140145 Eh   ::
         :: G(RRHO) contrib.            0.910697051628 Eh   ::
         :::::::::::::::::::::::::::::::::::::::::::::::::::::

           -------------------------------------------------
          | TOTAL ENERGY             -200.014805209304 Eh   |
          | TOTAL ENTHALPY           -198.946218472168 Eh   |
          | TOTAL FREE ENERGY        -199.104108157676 Eh   |
          | GRADIENT NORM               0.000059151169 Eh/α |
          | HOMO-LUMO GAP               2.442186455574 eV   |
           -------------------------------------------------

 * finished run on 2025/08/21 at 20:27:54.133
