   * xtb version 6.7.1 (edcfbbe) compiled by 'albert@albert-system' on 2024-07-22

   ID    Z sym.   atoms
    1    6 C      1-12, 14-27, 29-37, 39-44, 46-80
    2    7 N      13, 28, 38, 45
    3    1 H      81-130

          program call               : xtb data2507/gas/TPBPPI-PBI/TPBPPI-PBI_gas_S0_crest.xyz --gfn 2 --ohess vtight --parallel 40 --molden --ceasefiles --namespace data2507/gas/TPBPPI-PBI/TPBPPI-PBI_gas_S0_finalOpt
          :  Hamiltonian                  GFN2-xTB          :
 * total energy  :  -200.0194264 Eh     change       -0.4008939E-08 Eh
 * total energy  :  -200.0194284 Eh     change       -0.2058007E-05 Eh
 * total energy  :  -200.0194303 Eh     change       -0.1832759E-05 Eh
 * total energy  :  -200.0194332 Eh     change       -0.2917919E-05 Eh
 * total energy  :  -200.0194362 Eh     change       -0.3059171E-05 Eh
 * total energy  :  -200.0194394 Eh     change       -0.3184762E-05 Eh
 * total energy  :  -200.0194434 Eh     change       -0.3940394E-05 Eh
 * total energy  :  -200.0194484 Eh     change       -0.5051739E-05 Eh
 * total energy  :  -200.0194533 Eh     change       -0.4858083E-05 Eh
 * total energy  :  -200.0194564 Eh     change       -0.3103061E-05 Eh
 * total energy  :  -200.0194640 Eh     change       -0.1948438E-05 Eh
 * total energy  :  -200.0194649 Eh     change       -0.9060602E-06 Eh
 * total energy  :  -200.0194654 Eh     change       -0.5267581E-06 Eh
 * total energy  :  -200.0194661 Eh     change       -0.6898035E-06 Eh
 * total energy  :  -200.0194667 Eh     change       -0.6608887E-06 Eh
 * total energy  :  -200.0194671 Eh     change       -0.3380833E-06 Eh
 * total energy  :  -200.0194674 Eh     change       -0.2835964E-06 Eh
 * total energy  :  -200.0194677 Eh     change       -0.3525879E-06 Eh
 * total energy  :  -200.0194677 Eh     change       -0.2038036E-08 Eh
   *** GEOMETRY OPTIMIZATION CONVERGED AFTER 22 ITERATIONS ***

 final structure:
================
130
 xtb: 6.7.1 (edcfbbe)
C            5.35832180943219        1.90474446358619        1.51928598172838
C            5.70369100430402        0.99109282867929        0.53733460313259
C            4.86472351786759       -0.06680875859396        0.24208568046322
C            3.66247569716961       -0.22800630640685        0.92694708629729
C            2.75544467372222       -1.35042151497808        0.62476903263357
C            1.40603012021219       -1.10057254950429        0.40890675425967
C            0.51185375717155       -2.12400827074701        0.11893826715324
C           -0.91801253436515       -1.79895028633004       -0.02660837938912
C           -1.89143262683285       -2.49343266117268        0.68854869496807
C           -3.21810590548364       -2.11886069932590        0.62165728816107
C           -3.60533145743497       -1.03343999248208       -0.15942509362747
C           -4.98061096617289       -0.54575788928437       -0.10392458570861
N           -6.06531328019081       -1.25419144459875       -0.25772896790108
C           -7.10272219344481       -0.38180646654305       -0.11626408990238
C           -8.49522288108386       -0.65050021521489       -0.22399248236720
C           -8.96497561626300       -1.93535475862195       -0.51680960244980
C          -10.31128914594905       -2.16984358754282       -0.64079276648040
C          -11.20776726832009       -1.11569401759855       -0.47564097983829
C          -10.75769217925612        0.15031620673459       -0.18280608542343
C           -9.38979193418241        0.42977506691300       -0.04041210421792
C           -8.88790575380669        1.75081715106043        0.29634509309530
C           -9.74847547160203        2.82960665835545        0.54522918763314
C           -9.27658140075050        4.07160799924194        0.89883863589728
C           -7.90890617914358        4.28982878551317        1.03502451253561
C           -7.03112413015642        3.26227250037069        0.79395496855163
C           -7.49246704641422        1.99557730417404        0.40935384827955
C           -6.62479290054209        0.90080666515215        0.14604003144165
N           -5.25625592474332        0.78521205714993        0.14725130782980
C           -4.22698814978313        1.72490106877523        0.33468592160390
C           -3.30528490408003        1.50167481164190        1.35239035744982
C           -2.13586970571352        2.22966666735755        1.39402126025129
C           -1.86372999903409        3.19728082005730        0.42781059335005
C           -0.51502471971858        3.76822323496903        0.34454145381405
C            0.08010382929388        3.94715570549217       -0.90425691861895
C            1.41321724236529        4.28102147086630       -1.01303042838630
C            2.19218905176276        4.43460615112040        0.13238562538284
C            3.62972268951075        4.63675161031921        0.07007683141213
N            4.29383786002284        5.38783918478759        0.90433222829040
C            5.60605215708264        5.30365862731839        0.53065380575575
C            6.73788927419325        5.88793968053555        1.08887711087798
C            7.95801038975809        5.58832911058549        0.52180552923659
C            8.06521118446325        4.72252049368009       -0.56876940700879
C            6.95436708419519        4.13650626880422       -1.14203350674788
C            5.72170653995131        4.44902850592283       -0.59178486954823
N            4.43854472739572        4.03772011482285       -0.87687900870211
C            4.08390239134955        3.08484700480712       -1.84485620006296
C            4.55907921724128        3.20928503036633       -3.14577997418241
C            4.23338461171375        2.25265343188931       -4.09071483908284
C            3.43366680943682        1.17567429670472       -3.74808001707857
C            2.95188133358403        1.05862629227915       -2.45441474865794
C            3.27351564909773        2.00678874280856       -1.50282576798533
C            1.57816912471660        4.35933775387832        1.38180028839190
C            0.24448316529186        4.02692905342571        1.48558635606277
C           -2.84833600504375        3.49165518264960       -0.51552033362393
C           -4.01860999580329        2.76145766712966       -0.57019229496279
C           -2.64332896106350       -0.37828967707413       -0.92589312514186
C           -1.31762668422822       -0.75154459883258       -0.85225060218344
C            0.98313288385826       -3.43757077546353        0.01910041379207
C            0.05550201006674       -4.53477219748485       -0.31989162485311
C           -0.06936858027663       -5.64574105624696        0.50847935070090
C           -0.94217002914763       -6.66664266788754        0.18254072323943
C           -1.69932226529312       -6.59305132922270       -0.97442942179775
C           -1.58220500854901       -5.49043103172548       -1.80350981425737
C           -0.71225265932370       -4.46688243466066       -1.47843084186421
C            2.33944260908513       -3.70179274540808        0.23235845599911
C            2.83677196111638       -5.09057664483941        0.13356938586432
C            3.45799892329982       -5.69805305131409        1.21969715106684
C            3.91634738929484       -6.99866995580375        1.12592700253054
C            3.76355757099983       -7.70709294502056       -0.05381339708303
C            3.14794085097763       -7.10877770602880       -1.14003737405169
C            2.68533827996446       -5.80959888923236       -1.04740898461954
C            3.22596989936770       -2.66652380589382        0.54386937505912
C            4.64665723760743       -2.96993110439887        0.80831922015349
C            5.22355854700538       -2.60828606975908        2.02183044836477
C            6.54904008527801       -2.90086932508847        2.28180357702953
C            7.31628348323944       -3.55457666217293        1.33249222478006
C            6.75108043157042       -3.91388867041412        0.12065124692545
C            5.42474436371277       -3.62559305767795       -0.14045497947785
C            3.31194760235610        0.71058529582440        1.89458411468069
C            4.15543733784613        1.76639590645855        2.19030994820829
H            6.02048330437836        2.72416142233299        1.75644361211295
H            6.63328511794133        1.10531260273313       -0.00094499932654
H            5.13482323957081       -0.76613099576159       -0.53486208372418
H            1.03723571019432       -0.08583701112460        0.47634994542696
H           -1.59973018620214       -3.31331242267100        1.32746734893326
H           -3.96596771710998       -2.64465487382946        1.19525007923531
H           -8.23627109172742       -2.72081485491263       -0.64415280135485
H          -10.67815272893954       -3.15997312032719       -0.86797768385238
H          -12.26854837441328       -1.29417706713639       -0.57826757159217
H          -11.48838757136989        0.93491265388296       -0.06567282598555
H          -10.81523331325550        2.69424936643831        0.46822570451649
H           -9.97083569404940        4.87839519456318        1.08272343091710
H           -7.54025943643393        5.26054493205400        1.33216174165270
H           -5.97106703390100        3.42468582397644        0.91604221862633
H           -3.48913945528998        0.71861537643133        2.07277713922739
H           -1.39764373105249        2.00107348316406        2.14733221554425
H           -0.49744526752602        3.77744588885542       -1.80080204029287
H            1.85292165627401        4.40866694583706       -1.99110609992099
H            6.64999552672234        6.54240921573031        1.94106142757789
H            8.85741941194696        6.02317756904387        0.93218340504064
H            9.04342060459132        4.50441274658244       -0.97127588401952
H            7.04583604065209        3.45536737720198       -1.97487647949707
H            5.16799526179214        4.05978785647539       -3.41424377326307
H            4.60451431160923        2.35272528781289       -5.09991508424959
H            3.18489391064647        0.43039668286417       -4.48840569589967
H            2.33242171186695        0.21834940387691       -2.17770684881224
H            2.90510175289949        1.91825627803287       -0.49360304472757
H            2.17632619145631        4.54083213374859        2.26068848646352
H           -0.21587395896525        3.95996797107226        2.46033307103945
H           -2.68360072361374        4.28246258874782       -1.23200101126121
H           -4.75404124105226        2.95756846642231       -1.33726734220263
H           -2.93264513001095        0.42995731410833       -1.58120826440659
H           -0.58103790271769       -0.22479078233608       -1.44259608120292
H            0.51223130385441       -5.70140079594686        1.41734683269641
H           -1.03222094282817       -7.52278349002506        0.83510026722682
H           -2.38006866527469       -7.39199496418099       -1.22824675677620
H           -2.17159635672673       -5.42687625716463       -2.70641765167107
H           -0.61783099009657       -3.60941001383210       -2.12955436046880
H            3.57203260147161       -5.14924951099922        2.14357285690160
H            4.39424005144465       -7.46124048634473        1.97718183092442
H            4.12276285819144       -8.72304560782926       -0.12624833469736
H            3.02662955417022       -7.65659409583283       -2.06318507884946
H            2.20911975921312       -5.34254416885037       -1.89766811174110
H            4.62403201071722       -2.10372019353251        2.76615110748088
H            6.98479207396152       -2.61841988858123        3.22907726596414
H            8.35197461705076       -3.78305385185425        1.53638312038915
H            7.34567256130603       -4.42187348491183       -0.62463709252922
H            4.98843133095142       -3.90038801872748       -1.09003310446959
H            2.37973045838059        0.59841522202173        2.43069823369725
H            3.87671741723739        2.48291400399489        2.94873231004223

          :  Hamiltonian                  GFN2-xTB          :
         :: gradient norm              0.000035614649 Eh/a0 ::
         :: HOMO-LUMO gap              2.382181472811 eV    ::
         :: SCC energy              -203.849081285108 Eh    ::
         :: -> dispersion             -0.216930075305 Eh    ::
         :: repulsion energy           3.829613559373 Eh    ::

    * Orbital Energies and Occupations

         #    Occupation            Energy/Eh            Energy/eV
      -------------------------------------------------------------
         1        2.0000           -0.6867606             -18.6877
       ...           ...                  ...                  ...
       175        2.0000           -0.4026889             -10.9577
       176        2.0000           -0.3991477             -10.8614
       177        2.0000           -0.3975485             -10.8178
       178        2.0000           -0.3946620             -10.7393
       179        2.0000           -0.3927547             -10.6874
       180        2.0000           -0.3832980             -10.4301
       181        2.0000           -0.3813592             -10.3773
       182        2.0000           -0.3803878             -10.3509
       183        2.0000           -0.3789047             -10.3105
       184        2.0000           -0.3777894             -10.2802
       185        2.0000           -0.3774341             -10.2705
       186        2.0000           -0.3742078             -10.1827
       187        2.0000           -0.3611670              -9.8279 (HOMO)
       188                         -0.2736234              -7.4457 (LUMO)
       189                         -0.2609927              -7.1020
       190                         -0.2519421              -6.8557
       191                         -0.2494406              -6.7876
       192                         -0.2457754              -6.6879
       193                         -0.2436423              -6.6298
       194                         -0.2417438              -6.5782
       195                         -0.2403537              -6.5404
       196                         -0.2345920              -6.3836
       197                         -0.2339906              -6.3672
       198                         -0.2313389              -6.2951
       ...                                ...                  ...
       370                          0.7322804              19.9264
      -------------------------------------------------------------
                  HL-Gap            0.0875436 Eh            2.3822 eV

     #   Z          covCN         q      C6AA      α(0)
     1   6 C        2.920    -0.028    28.708     8.786
     2   6 C        2.919    -0.028    28.711     8.787
     3   6 C        2.924    -0.031    28.764     8.795
     4   6 C        2.977     0.013    27.730     8.638
     5   6 C        2.976     0.002    27.979     8.677
     6   6 C        2.929    -0.043    29.068     8.842
     7   6 C        2.977     0.001    27.993     8.679
     8   6 C        2.978     0.014    27.698     8.633
     9   6 C        2.923    -0.031    28.771     8.796
    10   6 C        2.924    -0.028    28.698     8.785
    11   6 C        2.974     0.002    27.987     8.678
    12   6 C        3.200     0.128    24.682     8.096
    13   7 N        1.891    -0.288    28.313     7.888
    14   6 C        3.214     0.055    26.113     8.314
    15   6 C        2.985     0.003    27.947     8.672
    16   6 C        2.922    -0.031    28.783     8.798
    17   6 C        2.917    -0.030    28.756     8.794
    18   6 C        2.917    -0.033    28.825     8.804
    19   6 C        2.922    -0.035    28.868     8.811
    20   6 C        2.979    -0.002    28.064     8.690
    21   6 C        2.980     0.002    27.979     8.677
    22   6 C        2.922    -0.034    28.838     8.806
    23   6 C        2.917    -0.033    28.832     8.805
    24   6 C        2.917    -0.032    28.794     8.799
    25   6 C        2.919    -0.039    28.982     8.828
    26   6 C        2.979    -0.002    28.066     8.690
    27   6 C        3.072     0.020    27.486     8.596
    28   7 N        2.844    -0.046    22.119     6.985
    29   6 C        2.917     0.065    26.543     8.448
    30   6 C        2.922    -0.039    28.976     8.827
    31   6 C        2.927    -0.032    28.790     8.799
    32   6 C        2.977     0.011    27.773     8.645
    33   6 C        2.978     0.011    27.765     8.643
    34   6 C        2.926    -0.034    28.840     8.807
    35   6 C        2.921    -0.031    28.777     8.797
    36   6 C        2.976     0.004    27.941     8.671
    37   6 C        3.185     0.136    24.616     8.096
    38   7 N        1.886    -0.291    28.388     7.899
    39   6 C        3.194     0.068    25.998     8.314
    40   6 C        2.910    -0.042    29.048     8.838
    41   6 C        2.923    -0.039    28.979     8.828
    42   6 C        2.926    -0.037    28.914     8.818
    43   6 C        2.908    -0.050    29.234     8.866
    44   6 C        3.088     0.036    27.092     8.532
    45   7 N        2.824    -0.051    22.223     7.002
    46   6 C        2.913     0.066    26.527     8.446
    47   6 C        2.922    -0.042    29.032     8.836
    48   6 C        2.920    -0.028    28.707     8.786
    49   6 C        2.919    -0.032    28.787     8.798
    50   6 C        2.920    -0.025    28.628     8.774
    51   6 C        2.922    -0.039    28.962     8.825
    52   6 C        2.925    -0.026    28.663     8.780
    53   6 C        2.923    -0.033    28.812     8.802
    54   6 C        2.925    -0.033    28.823     8.804
    55   6 C        2.918    -0.038    28.956     8.824
    56   6 C        2.923    -0.033    28.824     8.804
    57   6 C        2.924    -0.034    28.854     8.809
    58   6 C        2.982    -0.001    28.047     8.687
    59   6 C        2.978     0.015    27.675     8.629
    60   6 C        2.924    -0.032    28.797     8.800
    61   6 C        2.919    -0.029    28.733     8.790
    62   6 C        2.920    -0.030    28.753     8.793
    63   6 C        2.919    -0.029    28.718     8.788
    64   6 C        2.925    -0.031    28.782     8.798
    65   6 C        2.983     0.000    28.019     8.683
    66   6 C        2.979     0.016    27.653     8.626
    67   6 C        2.925    -0.031    28.779     8.798
    68   6 C        2.919    -0.029    28.736     8.791
    69   6 C        2.920    -0.031    28.772     8.796
    70   6 C        2.919    -0.030    28.737     8.791
    71   6 C        2.925    -0.031    28.780     8.798
    72   6 C        2.983    -0.001    28.050     8.688
    73   6 C        2.978     0.016    27.650     8.625
    74   6 C        2.925    -0.031    28.778     8.797
    75   6 C        2.919    -0.029    28.735     8.790
    76   6 C        2.920    -0.031    28.774     8.796
    77   6 C        2.919    -0.030    28.741     8.791
    78   6 C        2.924    -0.032    28.794     8.800
    79   6 C        2.925    -0.035    28.874     8.812
    80   6 C        2.919    -0.029    28.725     8.789
    81   1 H        0.926     0.031     2.575     2.509
    82   1 H        0.926     0.027     2.636     2.539
    83   1 H        0.926     0.028     2.621     2.532
    84   1 H        0.925     0.029     2.605     2.524
    85   1 H        0.926     0.037     2.495     2.470
    86   1 H        0.926     0.046     2.373     2.409
    87   1 H        0.926     0.050     2.317     2.380
    88   1 H        0.926     0.030     2.593     2.518
    89   1 H        0.926     0.027     2.624     2.533
    90   1 H        0.926     0.030     2.584     2.514
    91   1 H        0.926     0.034     2.533     2.489
    92   1 H        0.926     0.028     2.612     2.527
    93   1 H        0.926     0.027     2.631     2.536
    94   1 H        0.926     0.026     2.648     2.545
    95   1 H        0.926     0.039     2.458     2.452
    96   1 H        0.926     0.040     2.443     2.444
    97   1 H        0.926     0.035     2.516     2.481
    98   1 H        0.926     0.031     2.576     2.510
    99   1 H        0.926     0.044     2.400     2.423
   100   1 H        0.926     0.032     2.562     2.503
   101   1 H        0.926     0.031     2.579     2.511
   102   1 H        0.926     0.026     2.642     2.542
   103   1 H        0.926     0.043     2.412     2.429
   104   1 H        0.926     0.039     2.463     2.454
   105   1 H        0.926     0.038     2.479     2.462
   106   1 H        0.926     0.036     2.503     2.474
   107   1 H        0.926     0.037     2.488     2.467
   108   1 H        0.926     0.055     2.263     2.352
   109   1 H        0.926     0.039     2.459     2.452
   110   1 H        0.926     0.042     2.424     2.435
   111   1 H        0.926     0.043     2.404     2.425
   112   1 H        0.926     0.027     2.630     2.536
   113   1 H        0.926     0.030     2.592     2.518
   114   1 H        0.926     0.027     2.629     2.535
   115   1 H        0.926     0.030     2.588     2.516
   116   1 H        0.926     0.031     2.568     2.506
   117   1 H        0.926     0.031     2.566     2.505
   118   1 H        0.926     0.026     2.648     2.545
   119   1 H        0.926     0.027     2.630     2.536
   120   1 H        0.926     0.030     2.590     2.517
   121   1 H        0.926     0.030     2.586     2.515
   122   1 H        0.926     0.030     2.591     2.517
   123   1 H        0.926     0.027     2.633     2.538
   124   1 H        0.926     0.027     2.633     2.538
   125   1 H        0.926     0.030     2.587     2.515
   126   1 H        0.926     0.030     2.587     2.515
   127   1 H        0.926     0.029     2.597     2.520
   128   1 H        0.926     0.027     2.634     2.538
   129   1 H        0.925     0.027     2.628     2.535
   130   1 H        0.926     0.032     2.555     2.499

molecular dipole:
                 x           y           z       tot (Debye)
 q only:        0.646      -0.270      -0.416
   full:        0.856      -0.111      -0.669       2.776

 projected vibrational frequencies (cm⁻¹)
eigval :       -0.00    -0.00    -0.00     0.00     0.00     0.00
eigval :        8.64    11.67    13.23    17.65    20.39    21.86
eigval :       23.39    27.46    32.80    37.14    39.57    44.18
eigval :       46.85    48.19    58.84    62.45    67.49    70.40
eigval :       72.70    73.36    74.43    76.77    80.44    82.47
eigval :       87.07    92.61    95.64    98.61   104.85   108.58
eigval :      119.64   122.13   129.03   136.71   139.12   158.89
eigval :      174.19   187.00   200.38   203.84   208.05   214.09
eigval :      217.06   222.36   231.53   236.85   239.82   247.76
eigval :      252.67   257.05   259.95   268.88   271.79   290.40
eigval :      302.81   305.05   319.11   344.55   351.19   361.00
eigval :      367.75   370.43   374.10   374.38   374.82   377.51
eigval :      378.20   381.36   382.59   393.04   395.50   396.66
eigval :      400.38   408.33   409.48   428.70   439.12   443.54
eigval :      448.31   462.59   466.77   480.23   487.95   488.29
eigval :      496.00   502.12   507.44   516.45   520.83   533.14
eigval :      535.62   542.75   543.89   547.73   566.33   579.75
eigval :      581.62   584.08   585.40   587.75   588.26   590.08
eigval :      592.56   597.11   598.23   606.23   608.81   610.72
eigval :      615.40   618.46   637.07   646.95   649.72   654.55
eigval :      658.89   664.18   667.56   670.66   671.77   674.94
eigval :      677.49   682.47   682.89   686.89   689.56   696.65
eigval :      706.07   708.82   711.25   717.19   723.31   725.43
eigval :      735.17   746.04   759.20   765.07   766.51   767.12
eigval :      767.67   769.66   775.79   783.06   784.14   798.18
eigval :      809.96   820.56   834.80   838.74   862.59   866.45
eigval :      868.27   869.29   870.84   872.52   873.55   876.37
eigval :      877.36   877.86   878.48   879.66   884.55   888.12
eigval :      889.02   900.41   902.60   902.89   903.61   907.99
eigval :      908.41   908.99   913.65   915.08   920.26   920.94
eigval :      922.63   923.79   926.86   927.54   928.89   929.09
eigval :      929.26   929.70   930.32   931.33   931.56   931.69
eigval :      932.01   932.95   938.75   939.85   939.96   948.08
eigval :      952.94   960.95   970.12   981.99   987.44   992.39
eigval :     1004.08  1015.24  1026.77  1031.83  1041.81  1061.31
eigval :     1071.30  1074.47  1077.61  1081.65  1084.74  1085.25
eigval :     1085.53  1085.91  1090.85  1106.63  1118.25  1120.89
eigval :     1121.49  1121.66  1122.01  1131.74  1134.61  1134.99
eigval :     1136.26  1136.99  1141.60  1142.40  1152.36  1173.93
eigval :     1175.21  1180.63  1181.47  1182.25  1182.37  1182.40
eigval :     1183.02  1185.52  1189.20  1190.70  1191.33  1198.44
eigval :     1198.71  1200.98  1201.72  1202.71  1204.56  1208.36
eigval :     1209.62  1244.98  1252.69  1255.46  1256.84  1260.79
eigval :     1264.87  1271.11  1272.36  1277.30  1279.93  1282.53
eigval :     1282.88  1283.32  1284.49  1287.55  1293.60  1295.44
eigval :     1296.41  1299.70  1313.86  1314.80  1315.08  1316.68
eigval :     1318.23  1318.61  1320.11  1321.01  1322.11  1325.72
eigval :     1340.88  1345.39  1360.05  1363.10  1375.69  1380.24
eigval :     1393.58  1394.69  1406.96  1408.46  1411.99  1416.54
eigval :     1422.41  1424.95  1429.52  1432.23  1433.09  1435.05
eigval :     1436.84  1438.60  1442.64  1468.30  1476.78  1478.78
eigval :     1479.61  1483.24  1488.99  1490.14  1494.61  1500.22
eigval :     1516.19  1523.16  1535.74  1540.56  1552.53  1556.92
eigval :     1558.51  1561.94  1565.42  1568.20  1575.64  1581.20
eigval :     1582.82  1583.63  1583.79  1584.73  1587.88  1592.27
eigval :     1595.19  1596.32  1599.22  1600.38  1601.65  1601.81
eigval :     1602.27  1602.34  1605.85  1617.55  3063.88  3069.79
eigval :     3071.05  3071.64  3071.72  3071.79  3072.18  3072.77
eigval :     3073.09  3073.73  3075.08  3075.60  3076.48  3079.03
eigval :     3079.92  3079.95  3080.42  3081.17  3081.21  3081.58
eigval :     3082.40  3083.04  3083.07  3084.24  3084.98  3085.33
eigval :     3085.47  3086.43  3087.44  3088.06  3089.28  3091.26
eigval :     3091.60  3092.22  3092.49  3092.92  3093.15  3093.88
eigval :     3094.26  3096.41  3097.49  3098.46  3098.99  3100.79
eigval :     3101.12  3104.59  3108.26  3108.62  3109.83  3115.56

   temp. (K)  partition function   enthalpy   heat capacity  entropy
                                   cal/mol     cal/K/mol   cal/K/mol   J/K/mol
 298.15  VIB  0.146E+31            37892.265    237.001    238.554
         ROT  0.327E+09              888.752      2.981     41.942
         INT  0.477E+39            38781.017    239.982    280.496
         TR   0.315E+29             1481.254      4.968     46.617
         TOT                       40262.2709   244.9500   327.1130  1368.6409

       T/K    H(0)-H(T)+PV         H(T)/Eh          T*S/Eh         G(T)/Eh
   ------------------------------------------------------------------------
    298.15    0.641620E-01    0.106881E+01    0.155422E+00    0.913385E+00
   ------------------------------------------------------------------------

         :::::::::::::::::::::::::::::::::::::::::::::::::::::
         ::                  THERMODYNAMIC                  ::
         :::::::::::::::::::::::::::::::::::::::::::::::::::::
         :: total free energy        -199.106082759332 Eh   ::
         ::.................................................::
         :: total energy             -200.019467725734 Eh   ::
         :: zero point energy           1.004644906336 Eh   ::
         :: G(RRHO) w/o ZPVE           -0.091259939933 Eh   ::
         :: G(RRHO) contrib.            0.913384966403 Eh   ::
         :::::::::::::::::::::::::::::::::::::::::::::::::::::

           -------------------------------------------------
          | TOTAL ENERGY             -200.019467725734 Eh   |
          | TOTAL ENTHALPY           -198.950660806636 Eh   |
          | TOTAL FREE ENERGY        -199.106082759332 Eh   |
          | GRADIENT NORM               0.000035613995 Eh/α |
          | HOMO-LUMO GAP               2.382181924710 eV   |
           -------------------------------------------------

 * finished run on 2025/08/21 at 20:36:26.264
