   * xtb version 6.7.1 (edcfbbe) compiled by 'albert@albert-system' on 2024-07-22

   ID    Z sym.   atoms
    1    6 C      1-4, 6-20, 22-35, 37-64
    2    7 N      5, 21, 36
    3    1 H      65-103

          program call               : xtb data2507/gas/TPAPyPI/TPAPyPI_gas_S0_crest.xyz --gfn 2 --ohess vtight --parallel 40 --molden --ceasefiles --namespace data2507/gas/TPAPyPI/TPAPyPI_gas_S0_finalOpt
          :  Hamiltonian                  GFN2-xTB          :
 * total energy  :  -159.3821883 Eh     change       -0.9435439E-08 Eh
 * total energy  :  -159.3821900 Eh     change       -0.1779811E-05 Eh
 * total energy  :  -159.3821935 Eh     change       -0.3415684E-05 Eh
 * total energy  :  -159.3821952 Eh     change       -0.1774532E-05 Eh
 * total energy  :  -159.3821976 Eh     change       -0.2382212E-05 Eh
 * total energy  :  -159.3822003 Eh     change       -0.2706816E-05 Eh
 * total energy  :  -159.3822029 Eh     change       -0.2531658E-05 Eh
 * total energy  :  -159.3822056 Eh     change       -0.2760688E-05 Eh
 * total energy  :  -159.3822091 Eh     change       -0.3460445E-05 Eh
 * total energy  :  -159.3822127 Eh     change       -0.3602716E-05 Eh
 * total energy  :  -159.3822417 Eh     change       -0.3495169E-06 Eh
 * total energy  :  -159.3822420 Eh     change       -0.2937832E-06 Eh
 * total energy  :  -159.3822424 Eh     change       -0.3194468E-06 Eh
 * total energy  :  -159.3822427 Eh     change       -0.3253936E-06 Eh
 * total energy  :  -159.3822430 Eh     change       -0.3259062E-06 Eh
 * total energy  :  -159.3822433 Eh     change       -0.3023356E-06 Eh
 * total energy  :  -159.3822436 Eh     change       -0.3098241E-06 Eh
 * total energy  :  -159.3822440 Eh     change       -0.3608607E-06 Eh
 * total energy  :  -159.3822440 Eh     change       -0.2723823E-08 Eh
   *** GEOMETRY OPTIMIZATION CONVERGED AFTER 44 ITERATIONS ***

 final structure:
================
103
 xtb: 6.7.1 (edcfbbe)
C            8.28387334106588        1.66642726525076       -1.38425440007078
C            7.09032551618545        1.74247688616646       -0.68520422093864
C            6.49282279751290        0.59683352310983       -0.19737570822106
C            7.08419196341345       -0.64877657931314       -0.40702170768447
N            6.47375604080150       -1.80941090791176        0.08504654959332
C            7.24169422125059       -2.83449516611693        0.64327698711679
C            6.84978106199317       -4.16579487591283        0.50074513824293
C            7.60773792412880       -5.17779516995200        1.05618329047535
C            8.76888309234712       -4.88471865607700        1.75246221491958
C            9.16455397164597       -3.56468651010900        1.89352669730630
C            8.40888142155584       -2.54447651610611        1.34984064770124
C            5.08009904894209       -1.91169081181107        0.04354459264506
C            4.37725021842575       -1.45291924082882       -1.07100687801607
C            3.00092403951311       -1.51681611236772       -1.10399137942205
C            2.27913776630950       -2.02594611594463       -0.02348012255910
C            0.81154765664951       -2.00265477879534       -0.03573788503415
C            0.09604080380258       -2.29436306871506       -1.19674624343256
C           -1.27854228105056       -2.20732412550105       -1.21740020494243
C           -1.98304108998498       -1.80526881711851       -0.08179456967799
C           -3.43001588745389       -1.71391041809720       -0.17200614947588
N           -4.15300486449050       -2.54221214646985       -0.88369981366654
C           -5.44313339990306       -2.15298851594748       -0.71647486634332
C           -6.61330337812737       -2.76247528408235       -1.24833780962664
C           -6.53396551200583       -3.90886182207296       -2.04581379006593
C           -7.67626400950017       -4.50261740859899       -2.52096897598525
C           -8.91661852737167       -3.95560817847624       -2.19813942954568
C           -9.00565094475502       -2.82539852361185       -1.41965662405108
C           -7.86086335452206       -2.18347073743298       -0.92280188790975
C           -7.91867108574753       -0.96855363662000       -0.12834249143764
C           -9.13534047555634       -0.32652405199399        0.14240666392145
C           -9.19894287357807        0.84850492003050        0.85293969629009
C           -8.03159978639597        1.44916012278032        1.31270594892094
C           -6.81968823532495        0.84880803865604        1.07666190552627
C           -6.73506876203697       -0.36625932441350        0.38155898329896
C           -5.50688937597850       -1.03387894162140        0.11230457126973
N           -4.20248792899502       -0.76885107738643        0.46681978962589
C           -3.72052917215060        0.25545495353905        1.30677754911839
C           -4.05940467895003        0.25922403869824        2.65729161669842
C           -3.59645875231078        1.27656900673241        3.47097953207460
C           -2.80066756774746        2.28123681056745        2.94887652964932
C           -2.43700550115272        2.27096771712816        1.60526802821072
C           -1.61317174756278        3.36260646774809        1.05403134800286
C           -2.09075836020823        4.66626996897076        1.14317511848093
C           -1.38731656564974        5.72629115225981        0.60960170216608
C           -0.16384864235033        5.51924736367620       -0.02917429172906
C            0.58162052809422        6.58912086422990       -0.60528554512945
C            1.76905014795612        6.36937707476853       -1.21512790865775
C            2.32524335877822        5.05889955241357       -1.29711650516876
C            3.54881067013778        4.80797870470206       -1.92041213491848
C            4.06316370376652        3.52540706540140       -1.97905733706912
C            3.37837018923209        2.46629299490823       -1.41222530419965
C            2.14970444521888        2.67062024098996       -0.78253360811372
C            1.41766172971318        1.60620274836288       -0.18213465793972
C            0.21392297481366        1.81684071771024        0.39763069570956
C           -0.37111410217444        3.11676754247649        0.44564382173049
C            0.35644194891695        4.20360178146133       -0.10273109323653
C            1.60781887614623        3.97794678742705       -0.72717517578817
C           -2.90196162486605        1.24749909688571        0.78534513052642
C           -1.27604186639381       -1.54680158289315        1.09067719581513
C            0.10059113070522       -1.64913229073195        1.11001878191307
C            2.98884891533519       -2.50476743245464        1.07648006112029
C            4.36653602924006       -2.45677967136432        1.11081254072181
C            8.28520705926452       -0.72007340970939       -1.11150243310703
C            8.87745968054836        0.43179427857850       -1.59187017898496
H            8.75052580969145        2.56340272000507       -1.76252513915876
H            6.62356631914447        2.70005029241195       -0.50679882908493
H            5.56818058877849        0.66048167908932        0.35791784379380
H            5.95080384348269       -4.39875186803053       -0.05112045128086
H            7.29332628346136       -6.20422648515946        0.93645512461761
H            9.36061222792374       -5.67869355049053        2.18195662448266
H           10.06519869046842       -3.32558338338978        2.43984459404737
H            8.71439855744795       -1.51563732255678        1.47251506504304
H            4.92370369089548       -1.04363627355058       -1.90878805782014
H            2.47312487435674       -1.14438578722829       -1.97037451498269
H            0.62590578245013       -2.60698220101796       -2.08452090405037
H           -1.83499819686853       -2.44112464206727       -2.11156110837475
H           -5.55406524872535       -4.30495739438736       -2.26260114030400
H           -7.62045504317104       -5.38892723857496       -3.13570075609741
H           -9.81940495343998       -4.42395533053304       -2.56329175396563
H           -9.98764630923242       -2.44075952855068       -1.19392167351260
H          -10.05748902265515       -0.75107576971488       -0.22019538859485
H          -10.15551841152416        1.31323562950396        1.04176910691709
H           -8.07641430821127        2.38572863514551        1.84882155611930
H           -5.91708471897681        1.32982045219114        1.41801389136050
H           -4.69099060534252       -0.52384852016636        3.05035557909703
H           -3.86107579760673        1.28643294187670        4.51775923444499
H           -2.44275243924542        3.07583498803305        3.58668715970986
H           -3.04383906724933        4.84075789097208        1.62262995863294
H           -1.78502895589523        6.72861013253010        0.67892712385656
H            0.16869535754770        7.58615039648349       -0.54272811548601
H            2.32527011152671        7.18670427617770       -1.65218520168125
H            4.09294237881946        5.63119581149816       -2.36128663654414
H            5.00842835571043        3.34792389682098       -2.47167674193570
H            3.78898860660408        1.46800678287368       -1.45434503136301
H            1.85191767794870        0.61814771864781       -0.19651714211233
H           -0.31814279996620        0.99374629736645        0.85016505930157
H           -2.64517716495578        1.23310168565502       -0.26406669535820
H           -1.80023635009184       -1.27754490842928        1.99610310407015
H            0.63629563968379       -1.42433480502296        2.02115082234452
H            2.45254898183936       -2.92746444891687        1.91319996034291
H            4.90202284692745       -2.82793440744620        1.97241000644230
H            8.74561454474980       -1.68271184409609       -1.27964940887955
H            9.80634028209156        0.36374836087710       -2.13891802846719

          :  Hamiltonian                  GFN2-xTB          :
         :: gradient norm              0.000038650812 Eh/a0 ::
         :: HOMO-LUMO gap              1.867617230557 eV    ::
         :: SCC energy              -162.435977968983 Eh    ::
         :: -> dispersion             -0.160413772811 Eh    ::
         :: repulsion energy           3.053733978715 Eh    ::

    * Orbital Energies and Occupations

         #    Occupation            Energy/Eh            Energy/eV
      -------------------------------------------------------------
         1        2.0000           -0.6830456             -18.5866
       ...           ...                  ...                  ...
       137        2.0000           -0.4069192             -11.0728
       138        2.0000           -0.4059481             -11.0464
       139        2.0000           -0.4048291             -11.0160
       140        2.0000           -0.4041508             -10.9975
       141        2.0000           -0.4016946             -10.9307
       142        2.0000           -0.3958309             -10.7711
       143        2.0000           -0.3937698             -10.7150
       144        2.0000           -0.3906198             -10.6293
       145        2.0000           -0.3769306             -10.2568
       146        2.0000           -0.3721395             -10.1264
       147        2.0000           -0.3666166              -9.9761
       148        2.0000           -0.3599217              -9.7940
       149        2.0000           -0.3495266              -9.5111 (HOMO)
       150                         -0.2808929              -7.6435 (LUMO)
       151                         -0.2614191              -7.1136
       152                         -0.2476588              -6.7391
       153                         -0.2461351              -6.6977
       154                         -0.2431148              -6.6155
       155                         -0.2381299              -6.4798
       156                         -0.2366486              -6.4395
       157                         -0.2309727              -6.2851
       158                         -0.2291241              -6.2348
       159                         -0.2251634              -6.1270
       160                         -0.2239886              -6.0950
       ...                                ...                  ...
       295                          0.7323073              19.9271
      -------------------------------------------------------------
                  HL-Gap            0.0686337 Eh            1.8676 eV

     #   Z          covCN         q      C6AA      α(0)
     1   6 C        2.919    -0.038    28.945     8.823
     2   6 C        2.919    -0.029    28.725     8.789
     3   6 C        2.923    -0.047    29.163     8.856
     4   6 C        2.925     0.065    26.539     8.448
     5   7 N        2.753    -0.076    22.724     7.080
     6   6 C        2.923     0.065    26.545     8.449
     7   6 C        2.923    -0.049    29.206     8.862
     8   6 C        2.920    -0.029    28.730     8.790
     9   6 C        2.919    -0.039    28.967     8.826
    10   6 C        2.920    -0.029    28.731     8.790
    11   6 C        2.922    -0.049    29.209     8.863
    12   6 C        2.926     0.064    26.559     8.451
    13   6 C        2.921    -0.048    29.183     8.859
    14   6 C        2.924    -0.034    28.838     8.806
    15   6 C        2.976     0.002    27.983     8.677
    16   6 C        2.976     0.011    27.758     8.642
    17   6 C        2.923    -0.033    28.816     8.803
    18   6 C        2.927    -0.028    28.695     8.785
    19   6 C        2.975     0.001    28.008     8.681
    20   6 C        3.193     0.128    24.739     8.111
    21   7 N        1.895    -0.292    28.428     7.905
    22   6 C        3.208     0.057    26.127     8.323
    23   6 C        2.986     0.003    27.958     8.673
    24   6 C        2.922    -0.031    28.778     8.797
    25   6 C        2.917    -0.030    28.760     8.794
    26   6 C        2.917    -0.033    28.826     8.804
    27   6 C        2.922    -0.035    28.870     8.811
    28   6 C        2.979    -0.002    28.062     8.689
    29   6 C        2.980     0.002    27.982     8.677
    30   6 C        2.922    -0.034    28.844     8.807
    31   6 C        2.916    -0.034    28.838     8.806
    32   6 C        2.917    -0.032    28.798     8.800
    33   6 C        2.919    -0.040    29.000     8.831
    34   6 C        2.978    -0.002    28.066     8.690
    35   6 C        3.075     0.020    27.493     8.597
    36   7 N        2.841    -0.046    22.133     6.987
    37   6 C        2.911     0.068    26.488     8.439
    38   6 C        2.921    -0.040    28.993     8.830
    39   6 C        2.918    -0.028    28.708     8.786
    40   6 C        2.925    -0.036    28.890     8.814
    41   6 C        2.978     0.018    27.608     8.619
    42   6 C        2.977     0.001    28.007     8.681
    43   6 C        2.920    -0.035    28.868     8.811
    44   6 C        2.918    -0.038    28.938     8.821
    45   6 C        2.982     0.011    27.775     8.645
    46   6 C        2.913    -0.036    28.894     8.814
    47   6 C        2.913    -0.035    28.883     8.813
    48   6 C        2.982     0.012    27.749     8.641
    49   6 C        2.920    -0.037    28.916     8.818
    50   6 C        2.914    -0.030    28.746     8.792
    51   6 C        2.920    -0.037    28.909     8.817
    52   6 C        2.982     0.012    27.743     8.640
    53   6 C        2.914    -0.038    28.941     8.822
    54   6 C        2.913    -0.037    28.922     8.819
    55   6 C        2.983     0.008    27.838     8.655
    56   6 C        2.996     0.003    27.948     8.672
    57   6 C        2.997     0.003    27.940     8.671
    58   6 C        2.926    -0.042    29.042     8.838
    59   6 C        2.920    -0.034    28.848     8.808
    60   6 C        2.924    -0.034    28.841     8.807
    61   6 C        2.924    -0.034    28.842     8.807
    62   6 C        2.920    -0.047    29.179     8.858
    63   6 C        2.922    -0.047    29.167     8.856
    64   6 C        2.920    -0.029    28.730     8.790
    65   1 H        0.926     0.030     2.589     2.516
    66   1 H        0.926     0.033     2.544     2.494
    67   1 H        0.926     0.030     2.581     2.512
    68   1 H        0.926     0.031     2.574     2.509
    69   1 H        0.926     0.031     2.568     2.506
    70   1 H        0.926     0.030     2.590     2.517
    71   1 H        0.926     0.031     2.575     2.509
    72   1 H        0.926     0.031     2.577     2.510
    73   1 H        0.926     0.031     2.576     2.510
    74   1 H        0.926     0.035     2.518     2.482
    75   1 H        0.926     0.037     2.494     2.470
    76   1 H        0.926     0.051     2.306     2.375
    77   1 H        0.926     0.050     2.318     2.381
    78   1 H        0.926     0.029     2.597     2.520
    79   1 H        0.926     0.027     2.628     2.535
    80   1 H        0.926     0.030     2.589     2.516
    81   1 H        0.926     0.034     2.535     2.490
    82   1 H        0.926     0.028     2.619     2.531
    83   1 H        0.926     0.026     2.647     2.544
    84   1 H        0.926     0.025     2.658     2.550
    85   1 H        0.926     0.041     2.434     2.440
    86   1 H        0.926     0.039     2.460     2.453
    87   1 H        0.926     0.038     2.471     2.458
    88   1 H        0.926     0.030     2.584     2.514
    89   1 H        0.926     0.033     2.548     2.496
    90   1 H        0.926     0.032     2.565     2.504
    91   1 H        0.926     0.032     2.563     2.503
    92   1 H        0.926     0.031     2.573     2.509
    93   1 H        0.926     0.031     2.568     2.506
    94   1 H        0.926     0.033     2.539     2.492
    95   1 H        0.926     0.034     2.537     2.491
    96   1 H        0.926     0.031     2.579     2.511
    97   1 H        0.926     0.040     2.455     2.450
    98   1 H        0.926     0.025     2.658     2.550
    99   1 H        0.926     0.032     2.554     2.499
   100   1 H        0.926     0.034     2.527     2.486
   101   1 H        0.926     0.033     2.543     2.494
   102   1 H        0.926     0.032     2.551     2.498
   103   1 H        0.926     0.032     2.561     2.503

molecular dipole:
                 x           y           z       tot (Debye)
 q only:        0.918       0.749       0.404
   full:        0.779       1.074       0.694       3.805

 projected vibrational frequencies (cm⁻¹)
eigval :       -0.00    -0.00     0.00     0.00     0.00     0.00
eigval :        9.01    11.56    16.00    17.01    25.97    28.49
eigval :       31.86    37.41    42.08    48.90    54.02    56.20
eigval :       67.24    71.61    76.15    78.67    85.32    89.57
eigval :       95.07    98.89   114.44   117.28   125.24   137.44
eigval :      157.89   166.65   192.10   203.95   205.55   213.31
eigval :      221.14   227.02   229.78   235.95   239.94   243.49
eigval :      260.09   264.84   273.84   286.00   305.03   317.17
eigval :      318.14   339.55   357.52   371.47   372.43   375.07
eigval :      379.46   381.82   388.82   393.75   395.58   398.14
eigval :      412.58   415.41   422.93   429.09   439.13   444.72
eigval :      449.05   461.32   469.46   476.14   478.72   485.16
eigval :      492.23   495.67   499.49   512.12   516.04   518.97
eigval :      526.10   535.06   537.41   543.97   576.42   584.24
eigval :      585.90   586.74   592.98   599.73   606.73   612.38
eigval :      618.30   624.43   641.07   647.98   653.57   659.33
eigval :      663.93   664.28   669.54   673.83   675.49   680.83
eigval :      681.05   686.08   687.92   692.00   706.08   713.56
eigval :      733.74   735.47   753.82   756.76   757.54   759.07
eigval :      765.10   766.67   778.43   782.39   795.05   801.68
eigval :      807.07   808.69   822.02   832.59   838.44   851.87
eigval :      860.98   862.27   870.90   874.36   874.87   876.78
eigval :      878.79   889.28   890.82   891.60   896.27   900.76
eigval :      907.11   910.40   914.09   914.71   915.66   916.66
eigval :      921.17   922.86   923.57   925.67   926.88   927.25
eigval :      927.66   928.79   929.55   930.29   930.59   936.52
eigval :      940.28   941.59   959.10   977.24   988.13   996.19
eigval :     1005.04  1009.83  1019.05  1026.86  1039.25  1075.99
eigval :     1080.67  1082.57  1084.30  1086.21  1108.75  1109.32
eigval :     1117.82  1121.78  1124.59  1126.03  1131.26  1137.64
eigval :     1145.02  1146.27  1153.02  1161.34  1174.69  1178.74
eigval :     1180.78  1180.88  1183.07  1183.83  1186.27  1186.70
eigval :     1194.03  1195.82  1197.55  1203.69  1204.66  1210.27
eigval :     1217.72  1223.76  1234.24  1246.83  1256.00  1260.15
eigval :     1262.24  1268.89  1273.90  1278.66  1279.83  1283.51
eigval :     1285.51  1289.55  1307.57  1310.14  1312.97  1314.74
eigval :     1320.67  1324.06  1325.89  1327.61  1329.84  1332.23
eigval :     1338.32  1339.58  1350.11  1359.63  1372.65  1388.44
eigval :     1390.99  1397.43  1408.15  1412.43  1414.17  1415.53
eigval :     1418.43  1428.57  1435.86  1436.50  1443.31  1445.49
eigval :     1451.64  1462.47  1472.00  1473.10  1477.39  1489.81
eigval :     1496.34  1505.56  1514.27  1517.57  1542.52  1543.43
eigval :     1554.12  1560.89  1562.79  1565.38  1570.38  1573.05
eigval :     1577.26  1579.21  1581.17  1587.34  1589.71  1595.07
eigval :     1595.16  1599.38  1604.25  1605.29  1605.71  1607.50
eigval :     3065.43  3069.59  3070.40  3071.41  3072.74  3074.71
eigval :     3074.78  3075.65  3076.16  3076.65  3077.21  3078.16
eigval :     3080.13  3080.25  3081.56  3082.06  3082.89  3083.01
eigval :     3084.94  3085.42  3085.73  3086.32  3087.24  3088.13
eigval :     3088.69  3089.39  3089.47  3089.96  3091.87  3093.06
eigval :     3096.33  3096.90  3097.38  3097.76  3104.84  3105.34
eigval :     3105.58  3110.49  3116.50

   temp. (K)  partition function   enthalpy   heat capacity  entropy
                                   cal/mol     cal/K/mol   cal/K/mol   J/K/mol
 298.15  VIB  0.241E+23            29000.929    186.271    179.692
         ROT  0.201E+09              888.752      2.981     40.978
         INT  0.486E+31            29889.681    189.252    220.670
         TR   0.225E+29             1481.254      4.968     45.947
         TOT                       31370.9349   194.2199   266.6167  1115.5243

       T/K    H(0)-H(T)+PV         H(T)/Eh          T*S/Eh         G(T)/Eh
   ------------------------------------------------------------------------
    298.15    0.499928E-01    0.843619E+00    0.126678E+00    0.716941E+00
   ------------------------------------------------------------------------

         :::::::::::::::::::::::::::::::::::::::::::::::::::::
         ::                  THERMODYNAMIC                  ::
         :::::::::::::::::::::::::::::::::::::::::::::::::::::
         :: total free energy        -158.665303000719 Eh   ::
         ::.................................................::
         :: total energy             -159.382243990267 Eh   ::
         :: zero point energy           0.793626421609 Eh   ::
         :: G(RRHO) w/o ZPVE           -0.076685432061 Eh   ::
         :: G(RRHO) contrib.            0.716940989548 Eh   ::
         :::::::::::::::::::::::::::::::::::::::::::::::::::::

           -------------------------------------------------
          | TOTAL ENERGY             -159.382243990267 Eh   |
          | TOTAL ENTHALPY           -158.538624801764 Eh   |
          | TOTAL FREE ENERGY        -158.665303000719 Eh   |
          | GRADIENT NORM               0.000038652058 Eh/α |
          | HOMO-LUMO GAP               1.867617464915 eV   |
           -------------------------------------------------

 * finished run on 2025/08/25 at 22:30:13.429
