   * xtb version 6.7.1 (edcfbbe) compiled by 'albert@albert-system' on 2024-07-22

   ID    Z sym.   atoms
    1    6 C      1-4, 6-20, 22-35, 37-64
    2    7 N      5, 21, 36
    3    1 H      65-103

          program call               : xtb data2507/gas/TPAPyPI/TPAPyPI_gas_S0_finalOpt.xtbopt.xyz --gfn 2 --spinpol --tblite --uhf 2 --ohess vtight --parallel 40 --molden --ceasefiles --namespace data2507/gas/TPAPyPI/TPAPyPI_gas_T1_preOpt
 * total energy  :  -159.3027474 Eh     change       -0.6472476E-08 Eh
 * total energy  :  -159.3091269 Eh     change       -0.6379507E-02 Eh
 * total energy  :  -159.3106547 Eh     change       -0.1527758E-02 Eh
 * total energy  :  -159.3107449 Eh     change       -0.9017699E-04 Eh
 * total energy  :  -159.3108273 Eh     change       -0.8244753E-04 Eh
 * total energy  :  -159.3108800 Eh     change       -0.5270471E-04 Eh
 * total energy  :  -159.3109440 Eh     change       -0.6400835E-04 Eh
 * total energy  :  -159.3109886 Eh     change       -0.4457234E-04 Eh
 * total energy  :  -159.3110241 Eh     change       -0.3555655E-04 Eh
 * total energy  :  -159.3110393 Eh     change       -0.1510648E-04 Eh
 * total energy  :  -159.3112632 Eh     change       -0.1507194E-05 Eh
 * total energy  :  -159.3112648 Eh     change       -0.1584536E-05 Eh
 * total energy  :  -159.3112666 Eh     change       -0.1768152E-05 Eh
 * total energy  :  -159.3112685 Eh     change       -0.1961633E-05 Eh
 * total energy  :  -159.3112706 Eh     change       -0.2085149E-05 Eh
 * total energy  :  -159.3112725 Eh     change       -0.1891409E-05 Eh
 * total energy  :  -159.3112741 Eh     change       -0.1586041E-05 Eh
 * total energy  :  -159.3112755 Eh     change       -0.1401148E-05 Eh
 * total energy  :  -159.3112755 Eh     change       -0.8739335E-08 Eh
   *** GEOMETRY OPTIMIZATION CONVERGED AFTER 44 ITERATIONS ***

 final structure:
================
103
 xtb: 6.7.1 (edcfbbe)
C            8.22604563522179        1.65651173512152       -1.51755619226342
C            7.02547014484117        1.73245164200509       -0.83029943193299
C            6.44788793598145        0.59286628607157       -0.30610271511802
C            7.06737727078329       -0.64689468239953       -0.46654802310653
N            6.47697925783595       -1.80123531881069        0.06204439751292
C            7.25890177156225       -2.80521037409516        0.63702446049664
C            6.87525401348287       -4.14268897184555        0.52973842729230
C            7.64688416139489       -5.13576619034388        1.09992838319364
C            8.81278465777060       -4.81748749592277        1.77726346380036
C            9.19932105784610       -3.49138771241277        1.88484243633906
C            8.43073856948954       -2.48962058015634        1.32543786215985
C            5.08413721889293       -1.92257120217526        0.03236226010175
C            4.37042239345382       -1.51241730295053       -1.09413067287434
C            2.99511416590315       -1.59028575723137       -1.11445107870174
C            2.28499671284892       -2.06225569485574       -0.00897117070818
C            0.81783643918976       -2.04123952108664       -0.01202260721631
C            0.09751709639376       -2.36001560131392       -1.16343889610831
C           -1.27550326873700       -2.25959024138049       -1.18433460675976
C           -1.97433510422957       -1.81707038202288       -0.05965547277899
C           -3.41863698506754       -1.70957457327069       -0.16178436773282
N           -4.13749942343052       -2.54444874225718       -0.87205771245455
C           -5.42625327393211       -2.14396867401676       -0.73056720408322
C           -6.59367090869729       -2.76193613578296       -1.25868662581165
C           -6.51188979650626       -3.92921522548274       -2.02492978160073
C           -7.65296946391126       -4.53616511202457       -2.48656496074343
C           -8.89425368360750       -3.98226117390085       -2.17996908234385
C           -8.98548664532754       -2.83027664194207       -1.43395823149033
C           -7.84201906560456       -2.17318958787952       -0.95479861203154
C           -7.90087672093626       -0.93268521508958       -0.20059379660841
C           -9.11597339701235       -0.27206361800646        0.02839865743590
C           -9.18006448869792        0.92897337806505        0.69422423064048
C           -8.01422573448519        1.53801955181046        1.14646187067931
C           -6.80389264881101        0.92004222794369        0.95064555744745
C           -6.71960450391998       -0.32216034436072        0.30511271831982
C           -5.49290994617607       -1.00835050563787        0.07640353097196
N           -4.19259412871318       -0.74767659715918        0.44789462619802
C           -3.73511312648925        0.26762780241430        1.31438406617417
C           -4.17170770776421        0.27569568536770        2.63866290847577
C           -3.76827633376962        1.30072724370645        3.47679380460537
C           -2.93655316287220        2.29874021072976        3.00980341223526
C           -2.45447584798021        2.27872146181949        1.69534123827403
C           -1.58809333637936        3.34925687820394        1.22388924664575
C           -1.95289073393983        4.67657129559077        1.47164636040363
C           -1.24014680349548        5.73039793648833        0.96664449123127
C           -0.05638927396007        5.51201787708476        0.19098549177048
C            0.68004644082585        6.56565693445199       -0.34089810468961
C            1.84485693809993        6.33193074111860       -1.06581797011528
C            2.31941621946308        5.03355034717548       -1.25441998348352
C            3.52408212372390        4.76499674843169       -1.96866041987186
C            3.98047380751179        3.47045662768219       -2.12455364405823
C            3.28744612759099        2.40574012292653       -1.58751760195952
C            2.07074289981831        2.61862375225338       -0.87267220125838
C            1.34896438268250        1.56870383180126       -0.31037786145861
C            0.15487882911816        1.79867089383312        0.36719938163131
C           -0.36331971869903        3.08345875846908        0.50389602211398
C            0.38194219116633        4.17741457392275       -0.01271858323081
C            1.58618409097232        3.94331545683501       -0.71586925371122
C           -2.86856789320473        1.24346912054958        0.85044536671055
C           -1.26398015165279       -1.53814166242437        1.10612289136351
C            0.11185754372759       -1.65398912465021        1.12626670012158
C            3.00653707126611       -2.49581735065120        1.10228191683252
C            4.38397886279097       -2.43665735811236        1.12375102230892
C            8.27454005534199       -0.71845034595650       -1.16107354892439
C            8.84630676927286        0.42787984275079       -1.67799951661468
H            8.67681885481640        2.54898091225496       -1.92431879619926
H            6.53631242595231        2.68506469201382       -0.69103058157862
H            5.51718797151509        0.65804895507472        0.23845306805910
H            5.97330796824885       -4.39495309638304       -0.00849315824703
H            7.33972433275359       -6.16699311371914        1.00665906727951
H            9.41529759635497       -5.59682165494339        2.21821286196518
H           10.10310369934916       -3.23321439981754        2.41685788915976
H            8.72815180566653       -1.45584558520658        1.42305556379893
H            4.90777312973522       -1.13008811864187       -1.95016931595194
H            2.45880672509852       -1.25743996484507       -1.99151903058237
H            0.62233911575758       -2.70252657571377       -2.04313659809596
H           -1.83624403451195       -2.51131038427147       -2.07080576641154
H           -5.53147385455865       -4.33159142082291       -2.22736050194485
H           -7.59531415835242       -5.43888373831842       -3.07676409517087
H           -9.79615216060705       -4.46242175713987       -2.53174960849935
H           -9.96818478365966       -2.44151265969931       -1.21850204081275
H          -10.03588429331116       -0.70160587854491       -0.33408534609048
H          -10.13538054080668        1.40792984980829        0.85127170192559
H           -8.05839579246155        2.49554205668114        1.64410419025767
H           -5.90231676934049        1.40872884483329        1.28320394497418
H           -4.83427634652676       -0.50219944663529        2.98753279715882
H           -4.10966442234868        1.31781468066209        4.50116425921839
H           -2.62203442274148        3.09101347137752        3.67248872338648
H           -2.85899613364264        4.86568569823917        2.03076225565846
H           -1.56540914480211        6.74613905042597        1.13460928815953
H            0.34082426109856        7.57948960063045       -0.18356093144355
H            2.39696570728654        7.16330833691562       -1.47953391105184
H            4.07501692382255        5.59626822969971       -2.38260202311315
H            4.89475494899525        3.28890776753998       -2.67239670965523
H            3.65179956087532        1.39578552274878       -1.69828218519670
H            1.72372236602652        0.56085648854957       -0.39606987551111
H           -0.36159536405107        0.95994821547877        0.80714952784328
H           -2.54971527111095        1.22734274661793       -0.18159094588112
H           -1.78478972339709       -1.23904365031937        2.00416156055196
H            0.65121402066198       -1.40872262197653        2.02985802429625
H            2.47990862039378       -2.89077967206221        1.95832560052248
H            4.92938609599682       -2.77091367164840        1.99419636081084
H            8.75451484998238       -1.67681970829133       -1.29523829056764
H            9.77982584951250        0.35966219897534       -2.21689256500009

 projected vibrational frequencies (cm⁻¹)
eigval :       -0.00     0.00     0.00     0.00     0.00     0.00
eigval :        8.99    11.91    16.19    17.71    25.93    29.42
eigval :       32.31    36.06    42.01    49.77    54.00    55.45
eigval :       67.72    72.32    77.85    78.74    87.93    91.57
eigval :       99.31   101.22   114.24   117.89   126.14   138.38
eigval :      152.70   166.56   187.09   192.64   203.54   207.28
eigval :      220.19   227.08   229.12   237.05   241.00   249.27
eigval :      262.33   264.49   271.47   286.58   304.55   311.26
eigval :      317.75   339.50   356.30   366.57   371.57   375.12
eigval :      379.07   380.84   388.45   391.56   395.95   398.10
eigval :      401.95   414.94   415.93   420.92   429.00   439.02
eigval :      443.29   447.54   453.90   459.01   476.37   483.54
eigval :      492.28   493.75   494.16   504.87   511.53   518.32
eigval :      525.78   532.35   535.41   542.81   559.37   582.99
eigval :      584.73   585.89   589.35   593.00   603.73   612.16
eigval :      615.35   618.47   623.89   641.15   648.08   659.07
eigval :      659.32   663.80   667.55   668.43   671.78   674.59
eigval :      677.47   681.27   686.17   688.43   706.30   712.15
eigval :      724.71   729.72   735.87   748.01   751.45   756.66
eigval :      758.50   761.85   764.91   766.76   782.34   790.32
eigval :      794.98   798.85   804.44   808.36   810.28   826.55
eigval :      834.25   851.66   862.45   869.76   872.32   873.27
eigval :      873.70   874.81   877.47   878.21   887.11   892.16
eigval :      895.80   900.98   906.88   907.36   910.25   914.06
eigval :      915.43   915.91   917.10   923.19   923.62   925.73
eigval :      926.98   927.53   928.09   928.72   930.50   934.52
eigval :      937.53   939.90   950.54   975.16   981.89   987.55
eigval :     1004.58  1008.88  1016.72  1020.41  1036.04  1075.33
eigval :     1079.81  1082.76  1084.09  1086.25  1109.05  1109.74
eigval :     1120.13  1122.23  1124.83  1127.67  1130.94  1137.51
eigval :     1138.33  1146.81  1149.88  1153.15  1158.43  1174.82
eigval :     1180.13  1180.49  1182.85  1183.92  1184.60  1186.15
eigval :     1186.29  1193.85  1195.04  1202.81  1204.26  1205.46
eigval :     1209.15  1217.39  1221.47  1228.60  1247.34  1256.12
eigval :     1259.36  1265.80  1268.39  1273.86  1278.04  1278.84
eigval :     1284.29  1287.24  1294.64  1298.76  1311.43  1312.28
eigval :     1314.79  1320.08  1322.70  1325.70  1327.27  1329.67
eigval :     1334.25  1335.66  1339.22  1350.17  1363.17  1369.23
eigval :     1371.11  1380.80  1391.31  1397.91  1406.37  1407.12
eigval :     1413.63  1415.64  1425.51  1432.99  1435.64  1437.26
eigval :     1442.78  1457.62  1458.65  1464.60  1468.86  1469.77
eigval :     1473.16  1482.95  1493.48  1497.53  1510.68  1513.34
eigval :     1515.94  1518.74  1540.62  1546.85  1552.88  1558.23
eigval :     1559.76  1564.26  1570.21  1575.02  1575.33  1579.05
eigval :     1585.77  1591.48  1593.63  1597.09  1602.72  1603.92
eigval :     3065.62  3066.17  3070.83  3071.39  3074.06  3075.12
eigval :     3075.45  3077.40  3077.84  3078.59  3079.80  3080.56
eigval :     3080.92  3081.12  3082.09  3083.01  3085.07  3085.86
eigval :     3086.37  3086.79  3086.99  3087.47  3087.84  3088.34
eigval :     3090.33  3090.91  3091.28  3092.49  3092.65  3095.90
eigval :     3097.42  3098.60  3098.96  3100.77  3104.59  3106.56
eigval :     3110.33  3111.93  3118.16

   temp. (K)  partition function   enthalpy   heat capacity  entropy
                                   cal/mol     cal/K/mol   cal/K/mol   J/K/mol
 298.15  VIB  0.246E+23            29204.506    187.885    180.572
         ROT  0.201E+09              888.752      2.981     40.975
         INT  0.495E+31            30093.259    190.865    221.546
         TR   0.225E+29             1481.254      4.968     45.947
         TOT                       31574.5126   195.8336   267.4935  1119.1930

       T/K    H(0)-H(T)+PV         H(T)/Eh          T*S/Eh         G(T)/Eh
   ------------------------------------------------------------------------
    298.15    0.503172E-01    0.840411E+00    0.127095E+00    0.713316E+00
   ------------------------------------------------------------------------

         :::::::::::::::::::::::::::::::::::::::::::::::::::::
         ::                  THERMODYNAMIC                  ::
         :::::::::::::::::::::::::::::::::::::::::::::::::::::
         :: total free energy        -158.597959427940 Eh   ::
         ::.................................................::
         :: total energy             -159.311275494883 Eh   ::
         :: zero point energy           0.790093691085 Eh   ::
         :: G(RRHO) w/o ZPVE           -0.076777624142 Eh   ::
         :: G(RRHO) contrib.            0.713316066943 Eh   ::
         :::::::::::::::::::::::::::::::::::::::::::::::::::::

           -------------------------------------------------
          | TOTAL ENERGY             -159.311275494883 Eh   |
          | TOTAL ENTHALPY           -158.470864615116 Eh   |
          | TOTAL FREE ENERGY        -158.597959427940 Eh   |
          | GRADIENT NORM               0.000061493728 Eh/α |
           -------------------------------------------------

 * finished run on 2025/08/25 at 22:30:31.945
