   * xtb version 6.7.1 (edcfbbe) compiled by 'albert@albert-system' on 2024-07-22

   ID    Z sym.   atoms
    1    6 C      1-4, 6-20, 22-35, 37-64
    2    7 N      5, 21, 36
    3    1 H      65-103

          program call               : xtb data2507/gas/TPAPyPI/TPAPyPI.xyz --gfn 2 --ohess vtight --parallel 40 --molden --ceasefiles --namespace data2507/gas/TPAPyPI/TPAPyPI_gas_S0_preOpt
          :  Hamiltonian                  GFN2-xTB          :
 * total energy  :  -159.3407956 Eh     change       -0.1273520E-08 Eh
 * total energy  :  -159.3591641 Eh     change       -0.1836845E-01 Eh
 * total energy  :  -159.3652599 Eh     change       -0.6095840E-02 Eh
 * total energy  :  -159.3671820 Eh     change       -0.1922093E-02 Eh
 * total energy  :  -159.3684288 Eh     change       -0.1246807E-02 Eh
 * total energy  :  -159.3690608 Eh     change       -0.6319950E-03 Eh
 * total energy  :  -159.3694731 Eh     change       -0.4123036E-03 Eh
 * total energy  :  -159.3697678 Eh     change       -0.2946309E-03 Eh
 * total energy  :  -159.3699894 Eh     change       -0.2216172E-03 Eh
 * total energy  :  -159.3701688 Eh     change       -0.1793901E-03 Eh
 * total energy  :  -159.3746389 Eh     change       -0.3476127E-06 Eh
 * total energy  :  -159.3746393 Eh     change       -0.4344832E-06 Eh
 * total energy  :  -159.3746397 Eh     change       -0.4178357E-06 Eh
 * total energy  :  -159.3746401 Eh     change       -0.3168902E-06 Eh
 * total energy  :  -159.3746403 Eh     change       -0.2367306E-06 Eh
 * total energy  :  -159.3746406 Eh     change       -0.2929904E-06 Eh
 * total energy  :  -159.3746409 Eh     change       -0.3092778E-06 Eh
 * total energy  :  -159.3746419 Eh     change       -0.1009556E-05 Eh
 * total energy  :  -159.3746419 Eh     change       -0.2218516E-07 Eh
   *** GEOMETRY OPTIMIZATION CONVERGED AFTER 219 ITERATIONS ***

 final structure:
================
103
 xtb: 6.7.1 (edcfbbe)
C           11.42936498568205       -1.36622949237879        1.15100024414845
C           10.40223726067655       -1.91998793671206        0.40441044880174
C            9.31889574079747       -1.15141165945910        0.02567572003773
C            9.24450695539456        0.19023253905088        0.39926165708428
N            8.14694424178579        0.97339843590231        0.02148717716254
C            8.33902097228209        2.31250030921956       -0.33834591387582
C            7.40391850552992        3.28338430236770        0.01985743543951
C            7.59857237131525        4.60289746023190       -0.33918552274543
C            8.72650034415476        4.97822224680702       -1.05043586233269
C            9.66045265916892        4.01845798974955       -1.40504769560255
C            9.47078208511217        2.69504917878868       -1.05809196729590
C            6.86542810962700        0.41900453409543        0.00330477983661
C            6.48567303127208       -0.52739682175471        0.95631587004642
C            5.22349246927042       -1.08010553686232        0.92889005631300
C            4.29030531678588       -0.69922014346047       -0.03496765303307
C            2.94686060095945       -1.28683493615041       -0.05581873697747
C            1.82934109160180       -0.50799592804785       -0.35132522590812
C            0.56204450655546       -1.05360947932710       -0.36340947020354
C            0.37371743993674       -2.40464127437579       -0.07604820708563
C           -0.92727759071340       -3.04964400905867       -0.08126011633122
N           -1.10085933254157       -4.29799700859897       -0.44027987592685
C           -2.43221044549545       -4.53939005461087       -0.33074131671976
C           -3.12743047176450       -5.74216840558413       -0.63685969315969
C           -2.45028697656867       -6.86599212537115       -1.12167390722552
C           -3.14116967770144       -8.00948015426963       -1.43499086627576
C           -4.52441193153851       -8.03990256875032       -1.26856991642803
C           -5.19940848206517       -6.94195246110270       -0.78885528769139
C           -4.52840040400950       -5.75658772632218       -0.45059147458794
C           -5.20797645574509       -4.58953696201965        0.08488799042601
C           -6.58777828760026       -4.59457428105770        0.33427553681040
C           -7.23736944692906       -3.50949383827295        0.87297711492730
C           -6.52209780489247       -2.36438153266579        1.20766561856905
C           -5.16976960166976       -2.31694457142693        0.97644752615153
C           -4.49220179259587       -3.40078749358159        0.39904920278724
C           -3.09489184036019       -3.40084319235448        0.12601522834197
N           -2.11410514975637       -2.44519927187024        0.27278308942183
C           -2.24853505822933       -1.12013191331849        0.73137454197997
C           -1.65152822945265       -0.74192135316473        1.92780981525877
C           -1.77700779482019        0.56476028041887        2.36574306045291
C           -2.50217150812029        1.48335969203565        1.62940122769885
C           -3.10491741691481        1.11074302730456        0.42891799425390
C           -3.86151931224837        2.08675406352508       -0.37434091036186
C           -3.45648880924379        2.33531658116417       -1.68172621327932
C           -4.09380463673953        3.27617475554464       -2.46334120077035
C           -5.17382583168201        4.00383797736641       -1.96181489788840
C           -5.84117832319911        4.99776123582204       -2.73552132596394
C           -6.89040104079801        5.68962952168720       -2.23531293531177
C           -7.37368761282829        5.44516807558127       -0.91616946809282
C           -8.45715171819242        6.14395933200230       -0.38162204500609
C           -8.90635548184309        5.87983191978802        0.89932112169009
C           -8.29081355702379        4.91495016276421        1.67508075236789
C           -7.20223383499310        4.19372586276194        1.18253047526500
C           -6.55159653384696        3.18152573316169        1.94596683003876
C           -5.48841718359173        2.50273388008270        1.45666034597215
C           -4.96835697179229        2.77201626001097        0.15506229703093
C           -5.62358057282965        3.74339473508566       -0.64360674497248
C           -6.73082497148302        4.45971584506007       -0.12627930771590
C           -2.95821801071308       -0.19411739125896       -0.02428035481942
C            1.49329162072102       -3.19446829135516        0.19301955658141
C            2.75558070735589       -2.64350603901948        0.20880338006499
C            4.67277149397878        0.25336649970484       -0.97891206278489
C            5.93850568920983        0.79864154444965       -0.96858586995286
C           10.27962948940601        0.74207593339658        1.15355035145890
C           11.36270616218615       -0.03271621076861        1.52034368019382
H           12.27587112736326       -1.96928528753519        1.44236382956241
H           10.44838059301702       -2.95725852688087        0.10661395263152
H            8.52405976721918       -1.58277803884714       -0.56516551354495
H            6.52876718594073        2.99506871772357        0.58374835298648
H            6.86773563593115        5.34521635857657       -0.05322781504444
H            8.87688111935272        6.01105560282819       -1.32586082442182
H           10.54029800873525        4.30071641488794       -1.96446708212755
H           10.19573125710584        1.94694248757349       -1.34414971756424
H            7.18890122883455       -0.82058120158224        1.72213698123995
H            4.94360128309834       -1.79681784776481        1.68695680559858
H            1.95369547197603        0.54491335774201       -0.55893045789269
H           -0.27829080958606       -0.42547485662147       -0.61723105052077
H           -1.38045919684979       -6.79611496662831       -1.24281694218298
H           -2.62320432849460       -8.87944214653218       -1.81109322513539
H           -5.07385091244576       -8.93611824465495       -1.51888541734698
H           -6.26997197798740       -7.01287048809554       -0.67898849654067
H           -7.16992857880560       -5.47292575618911        0.10684321102055
H           -8.30247865077942       -3.55082186408882        1.04765806863829
H           -7.02552829900947       -1.51692632600452        1.64937739788085
H           -4.61899702740232       -1.43371103755859        1.25656464847358
H           -1.09479180725988       -1.46885966360511        2.49957280962511
H           -1.30971513386206        0.86515968669504        3.29147302295444
H           -2.59485119770771        2.50320567894831        1.97259356924217
H           -2.60970028611742        1.79265500374422       -2.07817556672996
H           -3.75354804124333        3.46166488599491       -3.47200331010028
H           -5.48301527586029        5.18481763260202       -3.73811371560557
H           -7.38923824741029        6.44311605398139       -2.82836518085441
H           -8.94515466697835        6.89811319500727       -0.98243413729652
H           -9.74684625500072        6.43064172501711        1.29627749642956
H           -8.64986211749857        4.71056612504893        2.67369102099963
H           -6.93511577707724        2.96313792457174        2.93281195109332
H           -5.02099745663835        1.72845412172349        2.04729163393450
H           -3.41848982468384       -0.50157093815698       -0.95268294953598
H            1.34494903535932       -4.24555230865126        0.38569327371518
H            3.61112524906029       -3.27226764933715        0.40728344669342
H            3.97815510324009        0.54480837225293       -1.75295929710118
H            6.22368866744190        1.51993538471142       -1.72054025387574
H           10.22537070437320        1.77931820163079        1.45065029688962
H           12.15654168291567        0.40645136734574        2.10661110337782

          :  Hamiltonian                  GFN2-xTB          :
         :: gradient norm              0.000175673684 Eh/a0 ::
         :: HOMO-LUMO gap              1.776889660319 eV    ::
         :: SCC energy              -162.428179587514 Eh    ::
         :: -> dispersion             -0.151039440808 Eh    ::
         :: repulsion energy           3.053537655615 Eh    ::

    * Orbital Energies and Occupations

         #    Occupation            Energy/Eh            Energy/eV
      -------------------------------------------------------------
         1        2.0000           -0.6823615             -18.5680
       ...           ...                  ...                  ...
       137        2.0000           -0.4069813             -11.0745
       138        2.0000           -0.4053130             -11.0291
       139        2.0000           -0.4048457             -11.0164
       140        2.0000           -0.4043040             -11.0017
       141        2.0000           -0.4018981             -10.9362
       142        2.0000           -0.3954217             -10.7600
       143        2.0000           -0.3951243             -10.7519
       144        2.0000           -0.3896091             -10.6018
       145        2.0000           -0.3763768             -10.2417
       146        2.0000           -0.3715311             -10.1099
       147        2.0000           -0.3681544             -10.0180
       148        2.0000           -0.3592609              -9.7760
       149        2.0000           -0.3478978              -9.4668 (HOMO)
       150                         -0.2825983              -7.6899 (LUMO)
       151                         -0.2606221              -7.0919
       152                         -0.2483966              -6.7592
       153                         -0.2460597              -6.6956
       154                         -0.2419425              -6.5836
       155                         -0.2381990              -6.4817
       156                         -0.2369487              -6.4477
       157                         -0.2305311              -6.2731
       158                         -0.2272979              -6.1851
       159                         -0.2250016              -6.1226
       160                         -0.2234912              -6.0815
       ...                                ...                  ...
       295                          0.7329750              19.9453
      -------------------------------------------------------------
                  HL-Gap            0.0652995 Eh            1.7769 eV

     #   Z          covCN         q      C6AA      α(0)
     1   6 C        2.919    -0.038    28.949     8.823
     2   6 C        2.920    -0.029    28.729     8.790
     3   6 C        2.922    -0.047    29.174     8.858
     4   6 C        2.925     0.065    26.543     8.449
     5   7 N        2.752    -0.075    22.691     7.075
     6   6 C        2.924     0.065    26.540     8.448
     7   6 C        2.922    -0.047    29.179     8.858
     8   6 C        2.920    -0.029    28.733     8.790
     9   6 C        2.919    -0.038    28.953     8.824
    10   6 C        2.920    -0.029    28.729     8.790
    11   6 C        2.922    -0.047    29.176     8.858
    12   6 C        2.924     0.064    26.573     8.454
    13   6 C        2.920    -0.049    29.216     8.864
    14   6 C        2.924    -0.034    28.852     8.809
    15   6 C        2.976     0.001    28.000     8.680
    16   6 C        2.976     0.011    27.762     8.643
    17   6 C        2.924    -0.035    28.881     8.813
    18   6 C        2.920    -0.035    28.880     8.813
    19   6 C        2.974    -0.001    28.038     8.686
    20   6 C        3.190     0.127    24.769     8.118
    21   7 N        1.895    -0.292    28.427     7.904
    22   6 C        3.207     0.057    26.135     8.325
    23   6 C        2.986     0.003    27.959     8.674
    24   6 C        2.922    -0.031    28.779     8.797
    25   6 C        2.917    -0.031    28.762     8.794
    26   6 C        2.917    -0.033    28.827     8.804
    27   6 C        2.922    -0.035    28.871     8.811
    28   6 C        2.979    -0.002    28.062     8.689
    29   6 C        2.980     0.002    27.984     8.677
    30   6 C        2.922    -0.034    28.844     8.807
    31   6 C        2.916    -0.034    28.837     8.806
    32   6 C        2.917    -0.032    28.792     8.799
    33   6 C        2.920    -0.040    28.998     8.831
    34   6 C        2.977    -0.002    28.069     8.690
    35   6 C        3.072     0.020    27.495     8.597
    36   7 N        2.842    -0.046    22.131     6.987
    37   6 C        2.912     0.069    26.464     8.436
    38   6 C        2.921    -0.041    29.013     8.833
    39   6 C        2.919    -0.027    28.685     8.783
    40   6 C        2.924    -0.035    28.860     8.810
    41   6 C        2.978     0.016    27.642     8.624
    42   6 C        2.978     0.001    27.994     8.679
    43   6 C        2.920    -0.034    28.855     8.809
    44   6 C        2.918    -0.037    28.922     8.819
    45   6 C        2.983     0.011    27.770     8.644
    46   6 C        2.913    -0.036    28.886     8.813
    47   6 C        2.913    -0.035    28.878     8.812
    48   6 C        2.982     0.012    27.739     8.639
    49   6 C        2.920    -0.036    28.900     8.816
    50   6 C        2.914    -0.030    28.742     8.791
    51   6 C        2.920    -0.036    28.904     8.816
    52   6 C        2.982     0.012    27.743     8.640
    53   6 C        2.913    -0.036    28.891     8.814
    54   6 C        2.912    -0.036    28.886     8.813
    55   6 C        2.983     0.008    27.842     8.655
    56   6 C        2.995     0.003    27.939     8.671
    57   6 C        2.997     0.004    27.931     8.669
    58   6 C        2.927    -0.042    29.048     8.839
    59   6 C        2.927    -0.029    28.719     8.788
    60   6 C        2.923    -0.034    28.838     8.806
    61   6 C        2.924    -0.034    28.848     8.808
    62   6 C        2.920    -0.049    29.215     8.864
    63   6 C        2.922    -0.047    29.177     8.858
    64   6 C        2.920    -0.029    28.730     8.790
    65   1 H        0.926     0.030     2.580     2.512
    66   1 H        0.926     0.032     2.558     2.501
    67   1 H        0.926     0.032     2.555     2.499
    68   1 H        0.926     0.031     2.567     2.505
    69   1 H        0.926     0.031     2.571     2.507
    70   1 H        0.926     0.030     2.584     2.514
    71   1 H        0.926     0.032     2.564     2.504
    72   1 H        0.926     0.032     2.561     2.503
    73   1 H        0.926     0.032     2.555     2.499
    74   1 H        0.926     0.034     2.530     2.487
    75   1 H        0.926     0.032     2.564     2.504
    76   1 H        0.926     0.025     2.659     2.550
    77   1 H        0.926     0.050     2.319     2.381
    78   1 H        0.926     0.029     2.598     2.521
    79   1 H        0.926     0.027     2.630     2.536
    80   1 H        0.926     0.030     2.591     2.517
    81   1 H        0.926     0.034     2.537     2.491
    82   1 H        0.926     0.027     2.623     2.532
    83   1 H        0.926     0.026     2.649     2.545
    84   1 H        0.926     0.025     2.665     2.553
    85   1 H        0.926     0.039     2.464     2.455
    86   1 H        0.926     0.039     2.461     2.453
    87   1 H        0.926     0.039     2.458     2.452
    88   1 H        0.926     0.030     2.590     2.517
    89   1 H        0.926     0.033     2.541     2.493
    90   1 H        0.926     0.032     2.558     2.501
    91   1 H        0.926     0.032     2.557     2.501
    92   1 H        0.926     0.032     2.563     2.503
    93   1 H        0.926     0.031     2.574     2.509
    94   1 H        0.926     0.031     2.565     2.505
    95   1 H        0.926     0.031     2.569     2.507
    96   1 H        0.926     0.031     2.572     2.508
    97   1 H        0.926     0.042     2.420     2.433
    98   1 H        0.926     0.052     2.294     2.368
    99   1 H        0.926     0.036     2.497     2.471
   100   1 H        0.926     0.034     2.537     2.491
   101   1 H        0.926     0.032     2.557     2.501
   102   1 H        0.926     0.031     2.567     2.505
   103   1 H        0.926     0.031     2.565     2.505

molecular dipole:
                 x           y           z       tot (Debye)
 q only:        0.237       1.195       0.293
   full:       -0.049       1.512       0.423       3.992

 projected vibrational frequencies (cm⁻¹)
eigval :       -0.00    -0.00    -0.00     0.00     0.00     0.00
eigval :        5.68     6.70     9.84    12.34    16.52    17.61
eigval :       27.26    31.50    38.46    42.79    50.07    54.35
eigval :       62.81    66.20    72.58    75.08    81.77    84.92
eigval :       94.61    95.93   106.73   111.00   123.33   138.05
eigval :      153.29   162.33   187.59   202.50   203.93   209.87
eigval :      223.00   225.87   233.78   240.84   245.06   249.34
eigval :      257.82   267.07   272.34   285.99   310.29   316.02
eigval :      317.30   333.78   357.02   373.19   374.00   377.96
eigval :      381.05   384.41   388.35   394.46   395.50   400.13
eigval :      411.48   414.83   417.75   429.34   435.49   443.49
eigval :      449.63   457.50   468.08   475.53   480.33   484.55
eigval :      490.85   495.37   500.51   509.60   515.55   517.88
eigval :      527.18   535.03   538.86   543.05   579.80   584.43
eigval :      585.72   586.49   593.86   596.56   603.42   612.64
eigval :      617.69   624.80   640.50   647.94   652.98   659.69
eigval :      663.72   664.51   669.08   672.01   678.20   680.89
eigval :      681.03   686.31   687.28   691.72   705.83   717.73
eigval :      727.78   735.40   754.61   757.06   757.25   758.25
eigval :      764.48   765.96   774.23   782.08   791.08   802.63
eigval :      806.16   809.28   820.56   830.54   836.41   851.15
eigval :      860.01   861.84   867.61   874.03   874.44   874.87
eigval :      876.67   886.72   892.34   892.62   892.98   900.41
eigval :      906.82   910.10   913.96   914.00   914.69   916.13
eigval :      920.57   921.34   922.53   923.46   925.09   926.41
eigval :      927.22   927.75   928.94   929.22   929.67   931.70
eigval :      934.85   940.08   959.17   977.34   988.43   995.72
eigval :     1005.07  1009.54  1018.91  1026.32  1041.85  1075.43
eigval :     1081.37  1083.30  1084.17  1086.20  1108.83  1109.02
eigval :     1116.79  1121.86  1124.11  1126.63  1131.83  1138.46
eigval :     1145.73  1147.58  1153.10  1161.68  1174.55  1180.23
eigval :     1180.74  1180.85  1183.14  1184.71  1186.43  1187.38
eigval :     1195.58  1195.67  1197.62  1202.96  1204.42  1211.14
eigval :     1217.49  1223.80  1234.49  1247.61  1255.65  1258.04
eigval :     1261.39  1269.23  1273.97  1278.82  1280.41  1284.06
eigval :     1286.66  1291.48  1308.07  1312.60  1313.32  1314.92
eigval :     1319.37  1322.80  1326.46  1326.92  1330.27  1332.04
eigval :     1339.16  1339.71  1349.35  1359.77  1371.09  1388.62
eigval :     1392.98  1397.83  1407.67  1412.50  1415.20  1416.11
eigval :     1418.09  1429.08  1436.32  1436.72  1443.09  1443.78
eigval :     1450.79  1462.71  1472.13  1473.68  1476.61  1490.01
eigval :     1496.77  1505.38  1514.06  1516.37  1541.31  1542.72
eigval :     1553.62  1560.40  1563.17  1565.11  1570.11  1572.93
eigval :     1577.30  1579.93  1581.16  1587.85  1588.55  1594.97
eigval :     1595.06  1599.02  1604.50  1605.09  1605.38  1607.75
eigval :     3066.07  3068.07  3069.61  3070.74  3071.16  3074.42
eigval :     3075.12  3075.72  3075.85  3076.02  3076.55  3076.94
eigval :     3078.08  3079.57  3079.65  3082.33  3082.42  3082.76
eigval :     3083.12  3084.33  3085.16  3085.52  3085.89  3086.31
eigval :     3088.14  3088.28  3089.31  3089.79  3090.79  3091.62
eigval :     3096.41  3096.50  3096.94  3097.56  3100.02  3104.83
eigval :     3105.33  3110.34  3120.02

   temp. (K)  partition function   enthalpy   heat capacity  entropy
                                   cal/mol     cal/K/mol   cal/K/mol   J/K/mol
 298.15  VIB  0.974E+24            29160.004    185.558    183.140
         ROT  0.304E+09              888.752      2.981     41.796
         INT  0.296E+33            30048.757    188.539    224.936
         TR   0.225E+29             1481.254      4.968     45.947
         TOT                       31530.0105   193.5072   270.8832  1133.3751

       T/K    H(0)-H(T)+PV         H(T)/Eh          T*S/Eh         G(T)/Eh
   ------------------------------------------------------------------------
    298.15    0.502463E-01    0.843421E+00    0.128705E+00    0.714715E+00
   ------------------------------------------------------------------------

         :::::::::::::::::::::::::::::::::::::::::::::::::::::
         ::                  THERMODYNAMIC                  ::
         :::::::::::::::::::::::::::::::::::::::::::::::::::::
         :: total free energy        -158.659926580955 Eh   ::
         ::.................................................::
         :: total energy             -159.374641931896 Eh   ::
         :: zero point energy           0.793174410441 Eh   ::
         :: G(RRHO) w/o ZPVE           -0.078459059500 Eh   ::
         :: G(RRHO) contrib.            0.714715350942 Eh   ::
         :::::::::::::::::::::::::::::::::::::::::::::::::::::

           -------------------------------------------------
          | TOTAL ENERGY             -159.374641931896 Eh   |
          | TOTAL ENTHALPY           -158.531221251455 Eh   |
          | TOTAL FREE ENERGY        -158.659926580955 Eh   |
          | GRADIENT NORM               0.000175698504 Eh/α |
          | HOMO-LUMO GAP               1.776889962193 eV   |
           -------------------------------------------------

 * finished run on 2025/08/25 at 22:22:01.081
