   * xtb version 6.7.1 (edcfbbe) compiled by 'albert@albert-system' on 2024-07-22

   ID    Z sym.   atoms
    1    6 C      1-4, 6-20, 22-35, 37-64
    2    7 N      5, 21, 36
    3    1 H      65-103

          program call               : xtb data2507/gas/TPAPyPI/TPAPyPI_gas_T1_crest.xyz --gfn 2 --spinpol --tblite --uhf 2 --ohess vtight --parallel 40 --molden --ceasefiles --namespace data2507/gas/TPAPyPI/TPAPyPI_gas_T1_finalOpt
 * total energy  :  -159.3112194 Eh     change       -0.4205845E-07 Eh
 * total energy  :  -159.3112533 Eh     change       -0.3387615E-04 Eh
 * total energy  :  -159.3112696 Eh     change       -0.1636825E-04 Eh
 * total energy  :  -159.3112738 Eh     change       -0.4182874E-05 Eh
 * total energy  :  -159.3112786 Eh     change       -0.4805588E-05 Eh
 * total energy  :  -159.3112813 Eh     change       -0.2735238E-05 Eh
 * total energy  :  -159.3112838 Eh     change       -0.2461930E-05 Eh
 * total energy  :  -159.3112859 Eh     change       -0.2138072E-05 Eh
 * total energy  :  -159.3112884 Eh     change       -0.2501352E-05 Eh
 * total energy  :  -159.3112915 Eh     change       -0.3027379E-05 Eh
 * total energy  :  -159.3113007 Eh     change       -0.1369090E-05 Eh
 * total energy  :  -159.3113018 Eh     change       -0.1096316E-05 Eh
 * total energy  :  -159.3113027 Eh     change       -0.8937128E-06 Eh
 * total energy  :  -159.3113035 Eh     change       -0.8389669E-06 Eh
 * total energy  :  -159.3113042 Eh     change       -0.6775741E-06 Eh
 * total energy  :  -159.3113048 Eh     change       -0.6733831E-06 Eh
 * total energy  :  -159.3113055 Eh     change       -0.6377108E-06 Eh
 * total energy  :  -159.3113055 Eh     change        0.1747139E-08 Eh
 * total energy  :  -159.3113055 Eh     change       -0.3144095E-08 Eh
   *** GEOMETRY OPTIMIZATION CONVERGED AFTER 23 ITERATIONS ***

 final structure:
================
103
 xtb: 6.7.1 (edcfbbe)
C            8.13176531494473        1.57634209615751       -1.78656188214675
C            6.93249712108191        1.69072184004935       -1.10234261115730
C            6.37533215812912        0.59050108894746       -0.48075858296694
C            7.01611607393573       -0.64727061581768       -0.53743573663515
N            6.45157166250619       -1.76387295813410        0.09291253645080
C            7.26196992924338       -2.68115564978401        0.76589752958176
C            6.92978124573620       -4.03633614116022        0.78164163220379
C            7.73174990004259       -4.94120589318008        1.44874416733172
C            8.87729471390540       -4.51640473363183        2.10201840165529
C            9.21317069643337       -3.17236662515870        2.08690181988886
C            8.41383986029131       -2.25786739219894        1.42978779120085
C            5.06390442537155       -1.92452965379425        0.07253699026804
C            4.34011488130138       -1.60737743471609       -1.07768239412128
C            2.96698716283639       -1.71477843727683       -1.08973510539123
C            2.26626246023027       -2.12778841865503        0.04535223691629
C            0.79946519607307       -2.12090373534119        0.04869639263005
C            0.07290478793925       -2.47577317131203       -1.08879616872199
C           -1.29912810268556       -2.36451029185119       -1.11105364383902
C           -1.99335418918698       -1.88010281208319       -0.00043634759687
C           -3.43369459309691       -1.74178937917600       -0.11321226877536
N           -4.16687927423964       -2.55501168151911       -0.83457951957584
C           -5.44515974492253       -2.11809672866446       -0.71002738351081
C           -6.62161104265149       -2.69457727290744       -1.26435523312090
C           -6.56176786189664       -3.85550599539109       -2.04220306899159
C           -7.71148902330977       -4.41700015270338       -2.53856480774458
C           -8.93974407094455       -3.82245220459947       -2.25672012689720
C           -9.00927052628173       -2.67738173652489       -1.49781305802712
C           -7.85611884844141       -2.06755916121996       -0.98081632270027
C           -7.89147706577458       -0.83721886345849       -0.20854936538212
C           -9.09138075739281       -0.14869343403795        0.01845655093727
C           -9.13152306986585        1.04268820913265        0.70330936442663
C           -7.95551757343078        1.61335317089496        1.17876462823351
C           -6.75981966818382        0.96639553516123        0.98691615477990
C           -6.70086285126773       -0.26659365137563        0.32124840097972
C           -5.49060876948377       -0.98314815647422        0.09979203119801
N           -4.18900016003589       -0.75967607524992        0.48820339644728
C           -3.71113722785781        0.24746282698341        1.35402816101119
C           -4.12574566667771        0.25184082793953        2.68538356668844
C           -3.69157520663275        1.26432737934310        3.52376559339441
C           -2.85143720717020        2.25214815688829        3.05057608529587
C           -2.39440421647503        2.23766988352865        1.72658674611108
C           -1.51932456474311        3.29563713547227        1.24635694773049
C           -1.84071404587116        4.62707833168387        1.53248659921316
C           -1.12615342935178        5.67265686724517        1.01402358698369
C            0.01382048313294        5.44126039237008        0.17887078784581
C            0.74728710657335        6.48714522729264       -0.37228001217443
C            1.86762828215297        6.23990377282026       -1.15954740826170
C            2.30190013672215        4.93442547331393       -1.39281094177860
C            3.45937566346400        4.65103537553122       -2.17540248834644
C            3.87665693586103        3.34939347514010       -2.37574479403641
C            3.19115709645612        2.29178013937672       -1.81542841421166
C            2.02027847990833        2.51988402789300       -1.03268273875042
C            1.30677910819796        1.47753352928366       -0.44588946495150
C            0.15434146883187        1.72277933357710        0.29496805541068
C           -0.33202229546655        3.01541125528089        0.47042536992330
C            0.41128339408223        4.10090485594950       -0.06639003402646
C            1.57352036336225        3.85200507898752       -0.83241617535953
C           -2.84178560972882        1.21604133855907        0.88120997909095
C           -1.27866265122552       -1.57905898701098        1.15743228738446
C            0.09650106365556       -1.70015829923672        1.17733022243034
C            2.99926876173061       -2.47646586254974        1.17914273387453
C            4.37474339533485       -2.38432965275282        1.19507547196488
C            8.22211307223315       -0.75788217843060       -1.22867564519566
C            8.77240702565521        0.34908801755014       -1.84506987656356
H            8.56594525864533        2.43829988984726       -2.26995383557936
H            6.42815111492953        2.64357186548304       -1.04158613266002
H            5.44460826731768        0.68625912196201        0.05924420129101
H            6.04399988824685       -4.37218044036890        0.26257947998552
H            7.46455006282844       -5.98765097002446        1.45086298032873
H            9.50341869321778       -5.22728490399040        2.61914585015207
H           10.10081379641156       -2.83094620994237        2.59878652620310
H            8.67141687940955       -1.20888884394962        1.43108195233355
H            4.86791195218708       -1.27101746785697       -1.95852625964374
H            2.42479552895531       -1.45059185678347       -1.98631374447906
H            0.59203498130858       -2.85103841096192       -1.95841725472060
H           -1.86342573152843       -2.63692181245999       -1.98909983923891
H           -5.59106680935150       -4.28869270051932       -2.22711427361880
H           -7.67072803147172       -5.31426197779919       -3.13840530735965
H           -9.84867182499724       -4.26494540229624       -2.63850532443417
H           -9.98274108755854       -2.25542844172632       -1.30414874600240
H          -10.01857243994023       -0.54895703068324       -0.35865790617610
H          -10.07583849518113        1.54349842424619        0.85866454901281
H           -7.98046279473844        2.56309755406783        1.69238171144699
H           -5.84973039155319        1.42388777097044        1.34000364810700
H           -4.79289036069751       -0.51942448646158        3.04014462295138
H           -4.01415713539200        1.27835853411949        4.55429093215661
H           -2.51037545422076        3.03127772816214        3.71566341032068
H           -2.71727535799595        4.82775572011869        2.13302075876453
H           -1.41907149988982        6.69248753577190        1.21385542361128
H            0.44001455982523        7.50545942119300       -0.18168632133722
H            2.41661602120251        7.06554874494911       -1.58862187818946
H            4.00572607356170        5.47645225611143       -2.60684968823599
H            4.75405339812309        3.15668171931744       -2.97745207162198
H            3.52673643434835        1.27605075858785       -1.95966404379248
H            1.65481467018829        0.46332382478040       -0.56309238023369
H           -0.35395771870265        0.88891626534493        0.75312516813532
H           -2.54479974430860        1.20430674965179       -0.15733076321173
H           -1.79437749006612       -1.25421994923517        2.04917010066642
H            0.63770009842821       -1.42941190088372        2.07234625638606
H            2.48355876826953       -2.82943339873747        2.05975583640727
H            4.92632167498768       -2.64817304182892        2.08556018022356
H            8.71822813085661       -1.71602521609187       -1.28103894028187
H            9.70495013538031        0.25060264714241       -2.38092899638272

 projected vibrational frequencies (cm⁻¹)
eigval :       -0.00    -0.00    -0.00    -0.00     0.00     0.00
eigval :        8.86    11.66    16.12    17.58    25.23    29.87
eigval :       33.09    35.94    42.12    50.30    53.49    55.48
eigval :       68.33    72.50    77.67    78.82    87.98    92.01
eigval :       98.86   102.80   115.01   118.92   127.04   139.04
eigval :      151.92   166.85   187.55   192.58   203.93   207.47
eigval :      221.09   227.83   229.43   237.43   241.30   249.64
eigval :      262.57   264.45   271.90   286.34   304.91   310.66
eigval :      317.54   339.90   356.56   366.72   372.12   375.67
eigval :      379.18   380.64   388.74   391.94   395.95   398.31
eigval :      402.46   415.49   416.60   421.30   428.76   438.73
eigval :      442.91   447.72   453.98   459.24   476.83   483.29
eigval :      492.36   493.91   494.26   504.74   510.97   518.24
eigval :      526.09   532.44   535.33   542.75   558.39   582.84
eigval :      584.60   585.82   589.09   593.00   603.58   612.43
eigval :      615.45   618.20   623.86   641.19   648.24   658.93
eigval :      659.38   663.96   667.45   668.42   671.72   674.18
eigval :      677.40   680.95   685.38   688.13   705.93   712.20
eigval :      724.76   729.65   735.85   748.02   751.36   756.67
eigval :      758.59   762.24   764.87   766.62   782.14   789.82
eigval :      795.21   798.80   804.22   808.17   810.48   826.44
eigval :      834.25   851.63   861.95   868.93   872.73   872.97
eigval :      873.92   874.62   876.78   878.10   886.08   892.46
eigval :      895.93   903.14   906.67   907.14   910.14   913.98
eigval :      915.59   916.05   917.23   923.12   923.47   925.51
eigval :      926.87   927.65   927.86   928.99   930.06   934.05
eigval :      938.32   939.92   950.40   975.04   982.76   987.56
eigval :     1004.63  1008.75  1016.65  1020.33  1036.12  1075.44
eigval :     1079.52  1082.57  1084.03  1086.39  1108.92  1109.77
eigval :     1119.97  1122.17  1124.64  1127.51  1130.90  1137.68
eigval :     1138.42  1148.50  1150.25  1153.14  1158.89  1174.89
eigval :     1179.97  1180.34  1182.81  1184.01  1184.84  1186.22
eigval :     1186.52  1194.04  1194.83  1203.76  1204.58  1205.86
eigval :     1209.37  1218.03  1221.23  1228.85  1247.56  1256.02
eigval :     1259.37  1266.01  1268.42  1274.81  1278.10  1279.01
eigval :     1284.29  1287.10  1295.42  1299.25  1311.31  1312.44
eigval :     1315.02  1319.27  1322.67  1325.92  1327.17  1329.76
eigval :     1334.45  1335.74  1339.22  1349.66  1363.24  1369.37
eigval :     1371.16  1380.76  1391.26  1397.95  1405.90  1406.96
eigval :     1413.89  1416.17  1425.15  1432.97  1435.49  1437.04
eigval :     1442.42  1457.21  1458.65  1464.59  1469.16  1469.63
eigval :     1472.82  1483.49  1493.36  1498.23  1510.59  1513.22
eigval :     1515.51  1518.58  1539.78  1545.74  1552.44  1557.22
eigval :     1559.47  1564.01  1570.02  1574.86  1575.58  1579.25
eigval :     1585.01  1591.61  1593.67  1597.01  1603.03  1604.00
eigval :     3065.75  3065.94  3070.66  3071.28  3073.90  3075.00
eigval :     3076.79  3077.25  3077.77  3078.51  3080.13  3080.21
eigval :     3080.65  3081.16  3082.12  3082.85  3084.42  3085.67
eigval :     3086.10  3086.52  3086.88  3087.65  3088.13  3089.97
eigval :     3090.28  3090.87  3090.97  3091.84  3092.89  3095.89
eigval :     3097.22  3098.73  3099.00  3101.80  3104.37  3106.68
eigval :     3110.33  3112.18  3118.46

   temp. (K)  partition function   enthalpy   heat capacity  entropy
                                   cal/mol     cal/K/mol   cal/K/mol   J/K/mol
 298.15  VIB  0.242E+23            29193.082    187.898    180.494
         ROT  0.198E+09              888.752      2.981     40.948
         INT  0.480E+31            30081.834    190.879    221.442
         TR   0.225E+29             1481.254      4.968     45.947
         TOT                       31563.0879   195.8471   267.3892  1118.7563

       T/K    H(0)-H(T)+PV         H(T)/Eh          T*S/Eh         G(T)/Eh
   ------------------------------------------------------------------------
    298.15    0.502990E-01    0.840419E+00    0.127045E+00    0.713373E+00
   ------------------------------------------------------------------------

         :::::::::::::::::::::::::::::::::::::::::::::::::::::
         ::                  THERMODYNAMIC                  ::
         :::::::::::::::::::::::::::::::::::::::::::::::::::::
         :: total free energy        -158.597932002880 Eh   ::
         ::.................................................::
         :: total energy             -159.311305482474 Eh   ::
         :: zero point energy           0.790119719820 Eh   ::
         :: G(RRHO) w/o ZPVE           -0.076746240226 Eh   ::
         :: G(RRHO) contrib.            0.713373479594 Eh   ::
         :::::::::::::::::::::::::::::::::::::::::::::::::::::

           -------------------------------------------------
          | TOTAL ENERGY             -159.311305482474 Eh   |
          | TOTAL ENTHALPY           -158.470886780415 Eh   |
          | TOTAL FREE ENERGY        -158.597932002880 Eh   |
          | GRADIENT NORM               0.000156914342 Eh/α |
           -------------------------------------------------

 * finished run on 2025/08/25 at 22:40:19.005
