   * xtb version 6.7.1 (edcfbbe) compiled by 'albert@albert-system' on 2024-07-22

   ID    Z sym.   atoms
    1    8 O      1, 3
    2   16 S      2
    3    6 C      4-13, 15-28
    4    7 N      14
    5    1 H      29-45

          program call               : xtb data2507/gas/Cz-SO/Cz-SO_gas_T1_crest.xyz --gfn 2 --spinpol --tblite --uhf 2 --ohess vtight --parallel 40 --molden --ceasefiles --namespace data2507/gas/Cz-SO/Cz-SO_gas_T1_finalOpt
 * total energy  :   -74.2443821 Eh     change       -0.5529898E-08 Eh
 * total energy  :   -74.2444102 Eh     change       -0.2811395E-04 Eh
 * total energy  :   -74.2444273 Eh     change       -0.1703278E-04 Eh
 * total energy  :   -74.2444301 Eh     change       -0.2796579E-05 Eh
 * total energy  :   -74.2444315 Eh     change       -0.1445650E-05 Eh
 * total energy  :   -74.2444324 Eh     change       -0.9374263E-06 Eh
 * total energy  :   -74.2444336 Eh     change       -0.1165853E-05 Eh
 * total energy  :   -74.2444349 Eh     change       -0.1319373E-05 Eh
 * total energy  :   -74.2444363 Eh     change       -0.1373371E-05 Eh
 * total energy  :   -74.2444379 Eh     change       -0.1609590E-05 Eh
 * total energy  :   -74.2444415 Eh     change       -0.5211472E-06 Eh
 * total energy  :   -74.2444416 Eh     change       -0.1170173E-06 Eh
 * total energy  :   -74.2444419 Eh     change       -0.2646744E-06 Eh
 * total energy  :   -74.2444422 Eh     change       -0.3167125E-06 Eh
 * total energy  :   -74.2444424 Eh     change       -0.1605052E-06 Eh
 * total energy  :   -74.2444425 Eh     change       -0.1426481E-06 Eh
 * total energy  :   -74.2444427 Eh     change       -0.1734631E-06 Eh
 * total energy  :   -74.2444428 Eh     change       -0.1662640E-06 Eh
 * total energy  :   -74.2444428 Eh     change       -0.4859587E-08 Eh
   *** GEOMETRY OPTIMIZATION CONVERGED AFTER 22 ITERATIONS ***

 final structure:
================
45
 xtb: 6.7.1 (edcfbbe)
O           -3.95224115487366        2.43892753676379       -0.14086907621436
S           -3.59443570364604        1.20003344178119       -0.78317441715794
O           -3.99968098541703        0.98327046694574       -2.14860061027081
C           -4.19536788736320       -0.16288889696327        0.21669778203302
C           -4.35450630584836        0.01423811005974        1.58035488422508
C           -4.73662346284974       -1.06153417174525        2.36111070145434
C           -4.94480406056007       -2.30315618849687        1.77684450393005
C           -4.77990662593539       -2.46959420641557        0.40882959978928
C           -4.39790558304520       -1.39724003946336       -0.37657141417353
C           -1.85730581687056        0.93502171610425       -0.63280043714273
C           -1.15709548526349        1.48111387149740        0.46285654218360
C            0.16860063012949        1.22363137091582        0.62928369818648
C            0.84823999813815        0.34563805408330       -0.27040194157332
N            2.18050955259206        0.06755198029645       -0.10042737760590
C            2.77058567057597       -1.17783316564615       -0.23822654682190
C            2.18163967380704       -2.40893995142101       -0.47748337238603
C            3.00542464269434       -3.52570835419677       -0.54487046361415
C            4.38485291704190       -3.41081510187358       -0.36212067242283
C            4.97858941284629       -2.19160309809189       -0.08049086205867
C            4.17385824651733       -1.05994097744924        0.00297504929677
C            4.42227457312305        0.31022304100211        0.31321926316021
C            5.56722121613032        1.03470606933216        0.62824412963486
C            5.45728441623204        2.40225662580993        0.82062215671694
C            4.23411860021237        3.06092716186245        0.68784233635374
C            3.07426650953431        2.35811703848464        0.38461793038277
C            3.16581259750338        0.98435687375683        0.23113879983001
C            0.11325910737149       -0.23731921198435       -1.34940166576198
C           -1.20403902422531        0.05608592560308       -1.52221536129517
H           -4.19986737965618        0.99549086600290        2.00038812208765
H           -4.87536069449974       -0.93444724603730        3.42443230892017
H           -5.24169478765981       -3.14203685360344        2.38849523752825
H           -4.95262355718804       -3.43508534004100       -0.04297677270309
H           -4.27637931033024       -1.48826924950129       -1.44432963704972
H           -1.69981593866708        2.11897723103044        1.14176014561372
H            0.70510644972031        1.60344051185198        1.48518265913679
H            1.11267086642172       -2.50943745235844       -0.58371651901628
H            2.57099968317438       -4.49506901256729       -0.72983654888100
H            4.99735280811185       -4.29788137260740       -0.42480657338327
H            6.04313355707934       -2.11822457972349        0.07898824175479
H            6.52199013148557        0.53910382282199        0.71137295520182
H            6.33911630011265        2.97717514615816        1.06102968948435
H            4.18829776679039        4.13104678204616        0.81134409167232
H            2.13904799544258        2.87835773187832        0.24912501084766
H            0.64795108146627       -0.83487513935831       -2.07183446799736
H           -1.76738948045467       -0.32457089394355       -2.35872774179328

 projected vibrational frequencies (cm⁻¹)
eigval :       -0.00    -0.00    -0.00    -0.00     0.00     0.00
eigval :       13.24    15.46    32.16    40.38    45.46    87.43
eigval :       98.23   112.46   122.70   136.18   142.03   156.79
eigval :      179.94   227.32   238.64   266.72   276.57   286.08
eigval :      309.69   356.19   364.62   367.95   381.38   382.79
eigval :      396.95   405.35   408.32   429.52   437.61   486.87
eigval :      487.77   505.83   512.09   550.34   562.36   573.06
eigval :      583.18   601.46   614.71   637.14   648.39   652.32
eigval :      674.14   684.14   716.73   742.75   745.48   751.20
eigval :      753.19   783.99   808.89   844.28   848.27   868.00
eigval :      872.06   876.38   884.75   887.30   894.10   898.36
eigval :      898.71   901.96   907.91   922.40   923.27   947.64
eigval :      962.01   976.97  1009.92  1024.75  1057.44  1064.07
eigval :     1066.53  1081.37  1097.18  1102.25  1113.27  1114.17
eigval :     1157.07  1166.25  1168.60  1171.42  1176.43  1177.70
eigval :     1193.86  1195.56  1229.58  1232.27  1236.80  1259.11
eigval :     1275.81  1279.47  1283.29  1318.11  1324.86  1335.92
eigval :     1372.95  1378.47  1381.04  1428.83  1435.68  1438.17
eigval :     1450.55  1459.44  1463.86  1470.86  1490.90  1542.97
eigval :     1546.73  1553.60  1567.49  1580.67  3078.95  3084.24
eigval :     3084.63  3085.15  3086.38  3088.43  3093.08  3093.87
eigval :     3095.40  3097.53  3099.37  3105.05  3105.79  3107.78
eigval :     3108.52  3109.23  3110.17

   temp. (K)  partition function   enthalpy   heat capacity  entropy
                                   cal/mol     cal/K/mol   cal/K/mol   J/K/mol
 298.15  VIB  0.411E+10            12920.009     83.521     78.874
         ROT  0.185E+08              888.752      2.981     36.235
         INT  0.760E+17            13808.762     86.502    115.109
         TR   0.727E+28             1481.254      4.968     43.705
         TOT                       15290.0157    91.4704   158.8133   664.4749

       T/K    H(0)-H(T)+PV         H(T)/Eh          T*S/Eh         G(T)/Eh
   ------------------------------------------------------------------------
    298.15    0.243662E-01    0.355196E+00    0.754573E-01    0.279738E+00
   ------------------------------------------------------------------------

         :::::::::::::::::::::::::::::::::::::::::::::::::::::
         ::                  THERMODYNAMIC                  ::
         :::::::::::::::::::::::::::::::::::::::::::::::::::::
         :: total free energy         -73.964704386307 Eh   ::
         ::.................................................::
         :: total energy              -74.244442842197 Eh   ::
         :: zero point energy           0.330829593644 Eh   ::
         :: G(RRHO) w/o ZPVE           -0.051091137755 Eh   ::
         :: G(RRHO) contrib.            0.279738455889 Eh   ::
         :::::::::::::::::::::::::::::::::::::::::::::::::::::

           -------------------------------------------------
          | TOTAL ENERGY              -74.244442842197 Eh   |
          | TOTAL ENTHALPY            -73.889247057530 Eh   |
          | TOTAL FREE ENERGY         -73.964704386307 Eh   |
          | GRADIENT NORM               0.000053135826 Eh/α |
           -------------------------------------------------

 * finished run on 2025/07/20 at 18:15:51.304
