   * xtb version 6.7.1 (edcfbbe) compiled by 'albert@albert-system' on 2024-07-22

   ID    Z sym.   atoms
    1    8 O      1, 3
    2   16 S      2
    3    6 C      4-13, 15-28
    4    7 N      14
    5    1 H      29-45

          program call               : xtb data2507/gas/Cz-SO/Cz-SO_gas_S0_finalOpt.xtbopt.xyz --gfn 2 --spinpol --tblite --uhf 2 --ohess vtight --parallel 40 --molden --ceasefiles --namespace data2507/gas/Cz-SO/Cz-SO_gas_T1_preOpt
 * total energy  :   -74.2397532 Eh     change        0.2986695E-08 Eh
 * total energy  :   -74.2425451 Eh     change       -0.2791914E-02 Eh
 * total energy  :   -74.2433361 Eh     change       -0.7909609E-03 Eh
 * total energy  :   -74.2434981 Eh     change       -0.1620457E-03 Eh
 * total energy  :   -74.2435986 Eh     change       -0.1005093E-03 Eh
 * total energy  :   -74.2436424 Eh     change       -0.4379632E-04 Eh
 * total energy  :   -74.2436824 Eh     change       -0.3998885E-04 Eh
 * total energy  :   -74.2437136 Eh     change       -0.3114468E-04 Eh
 * total energy  :   -74.2437446 Eh     change       -0.3103979E-04 Eh
 * total energy  :   -74.2437683 Eh     change       -0.2373967E-04 Eh
 * total energy  :   -74.2444120 Eh     change       -0.7866215E-06 Eh
 * total energy  :   -74.2444128 Eh     change       -0.7354737E-06 Eh
 * total energy  :   -74.2444135 Eh     change       -0.7687223E-06 Eh
 * total energy  :   -74.2444142 Eh     change       -0.7137417E-06 Eh
 * total energy  :   -74.2444150 Eh     change       -0.7507857E-06 Eh
 * total energy  :   -74.2444158 Eh     change       -0.7502805E-06 Eh
 * total energy  :   -74.2444164 Eh     change       -0.6975284E-06 Eh
 * total energy  :   -74.2444171 Eh     change       -0.6587734E-06 Eh
 * total energy  :   -74.2444171 Eh     change       -0.3231762E-07 Eh
   *** GEOMETRY OPTIMIZATION CONVERGED AFTER 94 ITERATIONS ***

 final structure:
================
45
 xtb: 6.7.1 (edcfbbe)
O           -3.95894461942033        1.20223504216628        2.18301293948734
S           -3.56454109238765        1.32308037851852        0.80257364651586
O           -3.89703536894164        2.52929393725422        0.08850016727829
C           -4.21427230058687       -0.08335362149609       -0.10200849979627
C           -4.45876832372111       -1.26615511894101        0.57466458580855
C           -4.88015491157724       -2.37587774454951       -0.13508776325970
C           -5.04281870903923       -2.29795381999045       -1.51115093364343
C           -4.79257534174059       -1.10740601984068       -2.17938880245044
C           -4.37054844055120        0.00522600438560       -1.47456115494348
C           -1.83651287697249        1.00423728732037        0.64955413930491
C           -1.20573652297755        0.12704440759185        1.55689244385297
C            0.10138573249490       -0.20965401831109        1.38567736914525
C            0.84903715931022        0.32814717472068        0.29234483805827
N            2.17179155508958        0.00622801810804        0.12445734754322
C            2.72294346979524       -1.25421834857298        0.28387567929042
C            2.09574088917144       -2.46173355426515        0.54477276585454
C            2.88414161807967       -3.60260737341143        0.63083068478623
C            4.26634092468980       -3.53401070387240        0.44580280540449
C            4.89790962626200       -2.33906005414232        0.14302509021417
C            4.12894908204879       -1.18431889473095        0.03983266905039
C            4.41939901374265        0.17175951747479       -0.29476707487402
C            5.58588164561907        0.85494900493847       -0.62290689943801
C            5.51794576935170        2.22172706220478       -0.83918395693737
C            4.31581473498165        2.92011299345189       -0.71804402940994
C            3.13492543980702        2.25878180975187       -0.40255967006823
C            3.18443899667554        0.88589183985750       -0.22434822209277
C            0.19258636091253        1.20644759582756       -0.62401776405419
C           -1.12489585190496        1.50510261644680       -0.45995596615843
H           -4.33850358890408       -1.28752973232454        1.64621705192592
H           -5.08544517334258       -3.30134499327284        0.38212800674159
H           -5.37078226258198       -3.16579111774276       -2.06367704995264
H           -4.92969976489511       -1.04890094826295       -3.24888188570039
H           -4.18184380437590        0.94900501744283       -1.96128029604217
H           -1.77598050562906       -0.21818835606104        2.40397428324269
H            0.62081925968774       -0.80820505745563        2.11837401049410
H            1.02422765846561       -2.52637968917987        0.65349627923515
H            2.41969637149015       -4.55458201446072        0.83234261887247
H            4.85081573001531       -4.43860577076681        0.52374771874936
H            5.96414211377668       -2.30192311562103       -0.01769256090526
H            6.52486198440109        0.32878719406377       -0.69759242725672
H            6.41696282462965        2.76482992148894       -1.08975070030828
H            4.30301501325007        3.98879494336004       -0.86036251237491
H            2.21598336842778        2.80960302206216       -0.27682268199982
H            0.73751933230437        1.55296280883222       -1.48869519824875
H           -1.65194260289519        2.14316176828740       -1.15097384710109

 projected vibrational frequencies (cm⁻¹)
eigval :       -0.00    -0.00    -0.00     0.00     0.00     0.00
eigval :       13.00    15.12    32.11    40.53    45.37    87.19
eigval :       98.20   112.17   123.32   136.15   141.94   156.78
eigval :      179.74   226.02   238.78   266.65   277.42   286.15
eigval :      309.04   355.92   364.58   367.88   381.13   382.92
eigval :      397.50   405.47   407.70   429.51   437.66   486.57
eigval :      487.58   505.57   511.98   550.26   562.47   573.02
eigval :      583.11   601.45   614.70   636.94   648.50   652.23
eigval :      674.31   684.04   716.72   743.22   745.25   751.07
eigval :      753.06   783.84   809.24   843.90   847.70   866.97
eigval :      872.11   876.13   884.73   887.35   894.11   898.11
eigval :      898.69   901.86   907.71   922.35   923.43   947.67
eigval :      962.16   975.73  1009.93  1023.78  1057.27  1064.05
eigval :     1066.41  1081.54  1096.87  1102.14  1111.86  1113.98
eigval :     1156.93  1166.15  1169.25  1171.43  1176.32  1178.09
eigval :     1193.63  1195.52  1229.75  1232.25  1236.51  1259.05
eigval :     1275.57  1279.20  1282.80  1317.33  1324.81  1335.79
eigval :     1372.96  1378.95  1380.84  1428.64  1435.34  1437.94
eigval :     1450.32  1459.31  1463.44  1470.77  1490.49  1542.77
eigval :     1546.49  1553.83  1567.67  1580.73  3078.84  3084.18
eigval :     3084.64  3085.05  3086.05  3088.15  3092.88  3093.73
eigval :     3095.40  3097.30  3099.08  3104.84  3105.88  3107.71
eigval :     3108.45  3109.03  3110.63

   temp. (K)  partition function   enthalpy   heat capacity  entropy
                                   cal/mol     cal/K/mol   cal/K/mol   J/K/mol
 298.15  VIB  0.430E+10            12923.468     83.533     78.931
         ROT  0.185E+08              888.752      2.981     36.234
         INT  0.795E+17            13812.221     86.514    115.166
         TR   0.727E+28             1481.254      4.968     43.705
         TOT                       15293.4745    91.4824   158.8701   664.7125

       T/K    H(0)-H(T)+PV         H(T)/Eh          T*S/Eh         G(T)/Eh
   ------------------------------------------------------------------------
    298.15    0.243717E-01    0.355167E+00    0.754843E-01    0.279683E+00
   ------------------------------------------------------------------------

         :::::::::::::::::::::::::::::::::::::::::::::::::::::
         ::                  THERMODYNAMIC                  ::
         :::::::::::::::::::::::::::::::::::::::::::::::::::::
         :: total free energy         -73.964734424497 Eh   ::
         ::.................................................::
         :: total energy              -74.244417139222 Eh   ::
         :: zero point energy           0.330795322649 Eh   ::
         :: G(RRHO) w/o ZPVE           -0.051112607924 Eh   ::
         :: G(RRHO) contrib.            0.279682714725 Eh   ::
         :::::::::::::::::::::::::::::::::::::::::::::::::::::

           -------------------------------------------------
          | TOTAL ENERGY              -74.244417139222 Eh   |
          | TOTAL ENTHALPY            -73.889250113621 Eh   |
          | TOTAL FREE ENERGY         -73.964734424497 Eh   |
          | GRADIENT NORM               0.000066642640 Eh/α |
           -------------------------------------------------

 * finished run on 2025/07/20 at 18:13:27.354
