   * xtb version 6.7.1 (edcfbbe) compiled by 'albert@albert-system' on 2024-07-22

   ID    Z sym.   atoms
    1    8 O      1, 3
    2   16 S      2
    3    6 C      4-13, 15-28
    4    7 N      14
    5    1 H      29-45

          program call               : xtb data2507/gas/Cz-SO/Cz-SO_gas_S0_crest.xyz --gfn 2 --ohess vtight --parallel 40 --molden --ceasefiles --namespace data2507/gas/Cz-SO/Cz-SO_gas_S0_finalOpt
          :  Hamiltonian                  GFN2-xTB          :
 * total energy  :   -74.3536078 Eh     change       -0.4313890E-08 Eh
 * total energy  :   -74.3536087 Eh     change       -0.8249120E-06 Eh
 * total energy  :   -74.3536092 Eh     change       -0.5757669E-06 Eh
 * total energy  :   -74.3536100 Eh     change       -0.7716310E-06 Eh
 * total energy  :   -74.3536105 Eh     change       -0.4534470E-06 Eh
 * total energy  :   -74.3536110 Eh     change       -0.5038132E-06 Eh
 * total energy  :   -74.3536116 Eh     change       -0.6820270E-06 Eh
 * total energy  :   -74.3536121 Eh     change       -0.4387322E-06 Eh
 * total energy  :   -74.3536122 Eh     change       -0.1518173E-06 Eh
 * total energy  :   -74.3536123 Eh     change       -0.5608074E-07 Eh
   *** GEOMETRY OPTIMIZATION CONVERGED AFTER 10 ITERATIONS ***

 final structure:
================
45
 xtb: 6.7.1 (edcfbbe)
O           -3.88346307122626        1.59102559823792        1.82337149869191
S           -3.53566289925827        1.39793040999951        0.44058037754022
O           -3.83014460138361        2.44898775202461       -0.49690562922536
C           -4.29269307282958       -0.12790436902201       -0.13360033990474
C           -4.84273052204469       -1.00397565318300        0.78074655670098
C           -5.38871388607084       -2.19509256204255        0.33088132420574
C           -5.37218616838776       -2.49321958473970       -1.02259250280558
C           -4.81733470701530       -1.60491602090687       -1.93145464676756
C           -4.27105707325945       -0.41338685415378       -1.48498574354859
C           -1.78501718553037        1.01382687916008        0.33145056444686
C           -1.22329999825611        0.17531704279778        1.27623423455355
C            0.11618160579732       -0.15006987152646        1.18828665339632
C            0.88977041882561        0.35859715667291        0.14308522981013
N            2.24391891780316        0.03436135467223        0.05269013688409
C            2.78292727712005       -1.23680411738263        0.14898484454231
C            2.14449224507677       -2.46063138138879        0.28535371432553
C            2.92976316066312       -3.59769096545873        0.32205777684605
C            4.31658521400566       -3.52811369113622        0.21597323522985
C            4.95525734546803       -2.31512392595267        0.05183268531858
C            4.18709994205594       -1.15924659024840        0.01212045394653
C            4.50600061007363        0.23053567855577       -0.16555436954404
C            5.70026143746980        0.92070940111682       -0.32540667963785
C            5.65812161766585        2.29540597335640       -0.44512866579135
C            4.44748898835037        2.98164975016361       -0.38911446897293
C            3.24635149240906        2.31612395131702       -0.23109738524172
C            3.28042025121511        0.93260175761014       -0.13888719514519
C            0.30647506568615        1.19815235808030       -0.80693590242583
C           -1.03226330562102        1.52599105368214       -0.70772295150922
H           -4.84820280489512       -0.73018180059234        1.82422857323241
H           -5.82780586867752       -2.88752372979518        1.03310516363203
H           -5.79913251399191       -3.42124592269118       -1.37279532724063
H           -4.81346200847784       -1.84015711331084       -2.98501932588242
H           -3.84482798005129        0.30541160969293       -2.16705729670433
H           -1.83627820318290       -0.18983650905120        2.08508084232767
H            0.57824646319826       -0.77728723962788        1.93513886837210
H            1.06881661064291       -2.52946289071510        0.34760484729190
H            2.45591287199373       -4.56189145499527        0.43178398875854
H            4.89510722421670       -4.43896075363292        0.25270046409626
H            6.02851678615134       -2.26144511985201       -0.04931282625013
H            6.63944246300526        0.38922760315034       -0.34857458734756
H            6.57465338749575        2.85161922877271       -0.57257964584836
H            4.44647443487928        4.05866887683376       -0.46655889533654
H            2.31701736446513        2.86128597349607       -0.16687352832321
H            0.90384307202872        1.57465840342453       -1.62310512173828
H           -1.50851804290195        2.18177466808908       -1.41961129495852

          :  Hamiltonian                  GFN2-xTB          :
         :: gradient norm              0.000095570682 Eh/a0 ::
         :: HOMO-LUMO gap              2.766316890111 eV    ::
         :: SCC energy               -75.621329409643 Eh    ::
         :: -> dispersion             -0.059333337470 Eh    ::
         :: repulsion energy           1.267717125200 Eh    ::

    * Orbital Energies and Occupations

         #    Occupation            Energy/Eh            Energy/eV
      -------------------------------------------------------------
         1        2.0000           -0.7688828             -20.9224
       ...           ...                  ...                  ...
        56        2.0000           -0.4410360             -12.0012
        57        2.0000           -0.4352497             -11.8437
        58        2.0000           -0.4328205             -11.7776
        59        2.0000           -0.4312784             -11.7357
        60        2.0000           -0.4299548             -11.6997
        61        2.0000           -0.4287274             -11.6663
        62        2.0000           -0.4277670             -11.6401
        63        2.0000           -0.4247856             -11.5590
        64        2.0000           -0.4243468             -11.5471
        65        2.0000           -0.4122847             -11.2188
        66        2.0000           -0.4043111             -11.0019
        67        2.0000           -0.3856855             -10.4950
        68        2.0000           -0.3722668             -10.1299 (HOMO)
        69                         -0.2706066              -7.3636 (LUMO)
        70                         -0.2552040              -6.9445
        71                         -0.2529022              -6.8818
        72                         -0.2498324              -6.7983
        73                         -0.2487868              -6.7698
        74                         -0.2288183              -6.2265
        75                         -0.2005351              -5.4568
        76                         -0.1927752              -5.2457
        77                         -0.1439393              -3.9168
        78                         -0.1274404              -3.4678
        79                         -0.1123900              -3.0583
       ...                                ...                  ...
       134                          1.2065409              32.8316
      -------------------------------------------------------------
                  HL-Gap            0.1016602 Eh            2.7663 eV

     #   Z          covCN         q      C6AA      α(0)
     1   8 O        0.860    -0.538    24.640     6.655
     2  16 S        3.816     0.940   108.390    17.523
     3   8 O        0.860    -0.538    24.641     6.655
     4   6 C        2.972    -0.073    29.821     8.957
     5   6 C        2.955    -0.026    28.639     8.778
     6   6 C        2.922    -0.023    28.591     8.769
     7   6 C        2.920    -0.024    28.604     8.770
     8   6 C        2.922    -0.023    28.591     8.769
     9   6 C        2.959    -0.027    28.676     8.783
    10   6 C        2.970    -0.080    29.999     8.984
    11   6 C        2.958    -0.027    28.681     8.784
    12   6 C        2.924    -0.040    28.989     8.829
    13   6 C        2.913     0.072    26.390     8.424
    14   7 N        2.802    -0.041    22.023     6.970
    15   6 C        3.071     0.045    26.908     8.505
    16   6 C        2.910    -0.051    29.273     8.872
    17   6 C        2.924    -0.033    28.813     8.803
    18   6 C        2.920    -0.039    28.980     8.828
    19   6 C        2.913    -0.032    28.795     8.799
    20   6 C        3.067    -0.015    28.306     8.724
    21   6 C        3.067    -0.015    28.313     8.725
    22   6 C        2.913    -0.032    28.796     8.799
    23   6 C        2.920    -0.039    28.971     8.827
    24   6 C        2.924    -0.032    28.795     8.800
    25   6 C        2.910    -0.051    29.258     8.870
    26   6 C        3.071     0.046    26.900     8.504
    27   6 C        2.924    -0.040    28.999     8.831
    28   6 C        2.953    -0.026    28.641     8.778
    29   1 H        0.926     0.063     2.158     2.297
    30   1 H        0.926     0.051     2.309     2.376
    31   1 H        0.926     0.049     2.329     2.387
    32   1 H        0.926     0.050     2.321     2.382
    33   1 H        0.926     0.053     2.278     2.360
    34   1 H        0.926     0.057     2.237     2.339
    35   1 H        0.926     0.058     2.225     2.333
    36   1 H        0.926     0.026     2.645     2.543
    37   1 H        0.926     0.032     2.564     2.504
    38   1 H        0.926     0.032     2.563     2.504
    39   1 H        0.926     0.035     2.522     2.483
    40   1 H        0.926     0.034     2.527     2.486
    41   1 H        0.926     0.032     2.557     2.501
    42   1 H        0.926     0.034     2.534     2.489
    43   1 H        0.926     0.030     2.581     2.512
    44   1 H        0.926     0.058     2.217     2.329
    45   1 H        0.926     0.067     2.118     2.276

molecular dipole:
                 x           y           z       tot (Debye)
 q only:        0.917      -1.958      -0.725
   full:        0.792      -1.938      -0.715       5.623

 projected vibrational frequencies (cm⁻¹)
eigval :       -0.00    -0.00     0.00     0.00     0.00     0.00
eigval :        5.94    17.36    19.96    40.93    45.54    75.21
eigval :      100.58   110.27   130.87   137.40   142.16   154.02
eigval :      197.92   236.94   246.24   271.94   284.87   305.97
eigval :      314.02   363.01   366.33   376.33   390.83   395.52
eigval :      416.71   423.55   436.36   445.92   480.84   516.21
eigval :      520.02   533.95   541.21   542.61   581.04   585.06
eigval :      592.66   611.70   651.12   658.57   673.82   680.28
eigval :      692.64   708.62   739.18   751.05   759.02   770.59
eigval :      781.89   817.44   867.90   875.01   880.22   883.84
eigval :      897.81   903.34   904.68   906.52   918.23   922.05
eigval :      925.97   927.50   928.99   933.08   933.45   968.58
eigval :     1005.93  1012.06  1069.81  1071.17  1074.88  1088.22
eigval :     1102.66  1111.73  1117.54  1121.02  1132.95  1152.82
eigval :     1170.30  1176.98  1177.91  1179.53  1180.90  1197.14
eigval :     1234.81  1240.04  1244.47  1248.80  1260.54  1298.96
eigval :     1299.27  1320.36  1322.72  1356.24  1359.62  1363.05
eigval :     1398.71  1424.77  1427.41  1430.61  1445.38  1475.04
eigval :     1475.88  1487.09  1572.87  1575.55  1577.64  1578.88
eigval :     1589.54  1597.94  1599.46  1613.91  3078.09  3080.33
eigval :     3082.58  3083.47  3085.39  3089.23  3090.26  3092.65
eigval :     3095.74  3096.08  3096.66  3098.07  3099.65  3104.60
eigval :     3105.19  3107.01  3107.20

   temp. (K)  partition function   enthalpy   heat capacity  entropy
                                   cal/mol     cal/K/mol   cal/K/mol   J/K/mol
 298.15  VIB  0.867E+10            12548.314     80.653     77.724
         ROT  0.188E+08              888.752      2.981     36.269
         INT  0.163E+18            13437.067     83.634    113.993
         TR   0.727E+28             1481.254      4.968     43.705
         TOT                       14918.3208    88.6021   157.6972   659.8050

       T/K    H(0)-H(T)+PV         H(T)/Eh          T*S/Eh         G(T)/Eh
   ------------------------------------------------------------------------
    298.15    0.237739E-01    0.360429E+00    0.749270E-01    0.285502E+00
   ------------------------------------------------------------------------

         :::::::::::::::::::::::::::::::::::::::::::::::::::::
         ::                  THERMODYNAMIC                  ::
         :::::::::::::::::::::::::::::::::::::::::::::::::::::
         :: total free energy         -74.068109887824 Eh   ::
         ::.................................................::
         :: total energy              -74.353612284443 Eh   ::
         :: zero point energy           0.336655562884 Eh   ::
         :: G(RRHO) w/o ZPVE           -0.051153166265 Eh   ::
         :: G(RRHO) contrib.            0.285502396619 Eh   ::
         :::::::::::::::::::::::::::::::::::::::::::::::::::::

           -------------------------------------------------
          | TOTAL ENERGY              -74.353612284443 Eh   |
          | TOTAL ENTHALPY            -73.993182864163 Eh   |
          | TOTAL FREE ENERGY         -74.068109887824 Eh   |
          | GRADIENT NORM               0.000095643022 Eh/α |
          | HOMO-LUMO GAP               2.766315194176 eV   |
           -------------------------------------------------

 * finished run on 2025/07/20 at 18:13:21.076
