   * xtb version 6.7.1 (edcfbbe) compiled by 'albert@albert-system' on 2024-07-22

   ID    Z sym.   atoms
    1   35 Br     1, 15, 19, 27
    2    6 C      2-14, 16-18, 20-26, 28, 29
    3    1 H      30-59

          program call               : xtb data2507/gas/cyclohexanone/cyclohexanone.xyz --gfn 2 --ohess vtight --parallel 40 --molden --ceasefiles --namespace data2507/gas/cyclohexanone/cyclohexanone_gas_S0_preOpt
          :  Hamiltonian                  GFN2-xTB          :
 * total energy  :   -85.2191545 Eh     change       -0.1637247E-08 Eh
 * total energy  :   -85.2234870 Eh     change       -0.4332483E-02 Eh
 * total energy  :   -85.2244262 Eh     change       -0.9391708E-03 Eh
 * total energy  :   -85.2247938 Eh     change       -0.3675545E-03 Eh
 * total energy  :   -85.2249980 Eh     change       -0.2042027E-03 Eh
 * total energy  :   -85.2250647 Eh     change       -0.6675600E-04 Eh
 * total energy  :   -85.2251144 Eh     change       -0.4971230E-04 Eh
 * total energy  :   -85.2251637 Eh     change       -0.4924647E-04 Eh
 * total energy  :   -85.2251946 Eh     change       -0.3096657E-04 Eh
 * total energy  :   -85.2252470 Eh     change       -0.5233927E-04 Eh
 * total energy  :   -85.2254539 Eh     change       -0.1618431E-06 Eh
 * total energy  :   -85.2254540 Eh     change       -0.1016183E-06 Eh
 * total energy  :   -85.2254542 Eh     change       -0.2076728E-06 Eh
 * total energy  :   -85.2254545 Eh     change       -0.3125864E-06 Eh
 * total energy  :   -85.2254549 Eh     change       -0.4095787E-06 Eh
 * total energy  :   -85.2254553 Eh     change       -0.4006283E-06 Eh
 * total energy  :   -85.2254556 Eh     change       -0.3432968E-06 Eh
 * total energy  :   -85.2254558 Eh     change       -0.1603056E-06 Eh
 * total energy  :   -85.2254559 Eh     change       -0.7432078E-07 Eh
   *** GEOMETRY OPTIMIZATION CONVERGED AFTER 62 ITERATIONS ***

 final structure:
================
59
 xtb: 6.7.1 (edcfbbe)
Br          -6.51040939152765       -0.38564685615198        2.27070589853500
C           -6.84882406092691       -1.17632080931002        0.51062585255242
C           -5.84082195034506       -2.25113044995804        0.13422951290177
C           -4.55706198243824       -1.71877953075809       -0.50460482656629
C           -3.69596977399323       -0.87237349959701        0.43104642399280
C           -2.33843211745070       -0.55880581248157       -0.19556540247878
C           -1.50956100504665        0.32941145199273        0.72720385695691
C           -0.06789416300655        0.63802319787068        0.25774511110656
C            0.80540892012934       -0.62438134501504        0.23608006035484
C            2.26286032031724       -0.32068271749867       -0.10592432574343
C            3.09862772619535       -1.59596833751504       -0.18364796135900
C            4.55882015479279       -1.28433521536286       -0.50486569313105
C            5.40562184836753       -2.52706188440820       -0.77914807442938
C            5.52178934393711       -3.47527083017157        0.40041060050884
Br           6.35977408384608       -2.61648788823834        1.94637427573043
C           -0.05187182254364        1.36611153493943       -1.06633378399576
C           -0.34255450236369        0.88348781942672       -2.32450972207981
C           -0.26455493138163        1.76429602141452       -3.39507335782301
Br          -0.67229849132937        1.11558605563611       -5.14435901892799
C            0.10165672592958        3.09111796479782       -3.23779271649309
C            0.42368671928904        3.56532219191413       -1.97748593153297
C            0.35280558684097        2.70077094828965       -0.89705976990858
C            0.68216918974903        2.90802915421971        0.50175476325484
C            1.14694133873289        4.03063286822418        1.16807642474587
C            1.41297048455210        3.94048000552926        2.52352214912949
C            1.21081259964471        2.73937679314948        3.18598036220103
Br           1.58828680157393        2.63882691537547        5.05241005598030
C            0.74083675651032        1.60627382349175        2.53561433238167
C            0.48129396292743        1.69979990310892        1.18585406868438
H           -7.85427461684365       -1.58914443879846        0.58104582261236
H           -6.84297942292468       -0.35091071624548       -0.20012618017293
H           -5.59334311438309       -2.84884041428691        1.01446151959029
H           -6.32927539008075       -2.91445748689110       -0.58581663108998
H           -4.81306172847488       -1.13351387294899       -1.39183783769275
H           -3.97101260758753       -2.57860213691035       -0.83925609932554
H           -3.54686203120977       -1.40688398412140        1.37188167705749
H           -4.19892672985002        0.06782953795409        0.65922085746350
H           -2.50002317677564       -0.05138147511440       -1.14794867220412
H           -1.81347015496671       -1.49554597144798       -0.39089913273401
H           -2.03265357510592        1.28070359121298        0.85650043023366
H           -1.44506718892958       -0.14343750634747        1.70957872625209
H            0.75467828229250       -1.10657402611623        1.21441133738750
H            0.40777515300228       -1.32253775253039       -0.50221157037036
H            2.30972824176483        0.20176274565060       -1.06463933937802
H            2.68648890618958        0.34244720098322        0.65145566964488
H            2.68772358501603       -2.25199840008027       -0.95610422891299
H            3.02839961331726       -2.11728358926969        0.77307727247439
H            4.99754249451128       -0.72145779368392        0.32187005519122
H            4.59644775907885       -0.64644982917454       -1.39103641995524
H            6.40687855177751       -2.21096082830421       -1.08225662074630
H            4.96815283935034       -3.09113006602034       -1.60845363589462
H            4.54984859618996       -3.82723445775380        0.74053950583690
H            6.15303543861318       -4.32923457384152        0.15740460485877
H           -0.61009436723304       -0.14766128613824       -2.49317207130820
H            0.14666127156294        3.74281373536761       -4.09671529296738
H            0.73039997425901        4.59163508946910       -1.84777487937191
H            1.30223680474054        4.96247103332803        0.64663196009157
H            1.77751054287954        4.79804797421476        3.06754553333904
H            0.59342567883376        0.68722722495806        3.08136247553522

          :  Hamiltonian                  GFN2-xTB          :
         :: gradient norm              0.000110423261 Eh/a0 ::
         :: HOMO-LUMO gap              3.042895723091 eV    ::
         :: SCC energy               -86.380298069457 Eh    ::
         :: -> dispersion             -0.069267395673 Eh    ::
         :: repulsion energy           1.154842201556 Eh    ::

    * Orbital Energies and Occupations

         #    Occupation            Energy/Eh            Energy/eV
      -------------------------------------------------------------
         1        2.0000           -0.8422491             -22.9188
       ...           ...                  ...                  ...
        67        2.0000           -0.4370282             -11.8921
        68        2.0000           -0.4350271             -11.8377
        69        2.0000           -0.4330478             -11.7838
        70        2.0000           -0.4276935             -11.6381
        71        2.0000           -0.4206220             -11.4457
        72        2.0000           -0.4157124             -11.3121
        73        2.0000           -0.4100141             -11.1571
        74        2.0000           -0.4096445             -11.1470
        75        2.0000           -0.4087231             -11.1219
        76        2.0000           -0.4063839             -11.0583
        77        2.0000           -0.4062743             -11.0553
        78        2.0000           -0.4044162             -11.0047
        79        2.0000           -0.3913918             -10.6503 (HOMO)
        80                         -0.2795675              -7.6074 (LUMO)
        81                         -0.2517071              -6.8493
        82                         -0.2468658              -6.7176
        83                         -0.2214595              -6.0262
        84                         -0.2199356              -5.9848
        85                         -0.2156064              -5.8669
        86                         -0.2105717              -5.7299
        87                         -0.2042790              -5.5587
        88                         -0.1430359              -3.8922
        89                         -0.0891743              -2.4266
        90                          0.0122524               0.3334
       ...                                ...                  ...
       166                          0.7044493              19.1690
      -------------------------------------------------------------
                  HL-Gap            0.1118243 Eh            3.0429 eV

     #   Z          covCN         q      C6AA      α(0)
     1  35 Br       0.961    -0.199   190.524    22.255
     2   6 C        3.739     0.025    20.236     6.419
     3   6 C        3.844    -0.055    21.532     6.601
     4   6 C        3.802    -0.056    21.579     6.614
     5   6 C        3.803    -0.060    21.657     6.625
     6   6 C        3.802    -0.058    21.614     6.619
     7   6 C        3.811    -0.055    21.556     6.609
     8   6 C        3.935     0.013    20.301     6.403
     9   6 C        3.807    -0.056    21.578     6.613
    10   6 C        3.803    -0.055    21.559     6.610
    11   6 C        3.802    -0.056    21.582     6.614
    12   6 C        3.803    -0.059    21.626     6.621
    13   6 C        3.856    -0.053    21.482     6.592
    14   6 C        3.740     0.025    20.228     6.417
    15  35 Br       0.972    -0.198   190.500    22.254
    16   6 C        3.057     0.005    27.864     8.657
    17   6 C        2.989    -0.040    28.992     8.832
    18   6 C        2.920     0.079    26.243     8.401
    19  35 Br       1.068    -0.175   189.901    22.219
    20   6 C        2.992    -0.038    28.933     8.824
    21   6 C        2.917    -0.033    28.811     8.802
    22   6 C        3.037     0.001    27.969     8.674
    23   6 C        3.035    -0.000    28.005     8.680
    24   6 C        2.917    -0.032    28.795     8.800
    25   6 C        2.994    -0.038    28.925     8.822
    26   6 C        2.920     0.082    26.176     8.390
    27  35 Br       1.070    -0.165   189.626    22.203
    28   6 C        2.988    -0.039    28.966     8.828
    29   6 C        3.065     0.003    27.900     8.662
    30   1 H        0.926     0.054     2.270     2.356
    31   1 H        0.926     0.057     2.232     2.336
    32   1 H        0.924     0.053     2.279     2.361
    33   1 H        0.924     0.039     2.459     2.452
    34   1 H        0.924     0.032     2.564     2.504
    35   1 H        0.924     0.035     2.515     2.480
    36   1 H        0.924     0.040     2.444     2.445
    37   1 H        0.924     0.044     2.394     2.419
    38   1 H        0.924     0.034     2.526     2.485
    39   1 H        0.924     0.032     2.561     2.502
    40   1 H        0.924     0.036     2.496     2.471
    41   1 H        0.924     0.044     2.396     2.421
    42   1 H        0.924     0.040     2.445     2.445
    43   1 H        0.924     0.039     2.464     2.455
    44   1 H        0.924     0.027     2.622     2.532
    45   1 H        0.924     0.033     2.540     2.492
    46   1 H        0.924     0.028     2.620     2.531
    47   1 H        0.924     0.035     2.517     2.481
    48   1 H        0.924     0.051     2.302     2.373
    49   1 H        0.924     0.034     2.526     2.485
    50   1 H        0.924     0.047     2.358     2.401
    51   1 H        0.924     0.039     2.457     2.451
    52   1 H        0.926     0.056     2.242     2.342
    53   1 H        0.926     0.053     2.287     2.365
    54   1 H        0.926     0.053     2.281     2.362
    55   1 H        0.926     0.053     2.286     2.364
    56   1 H        0.926     0.044     2.390     2.418
    57   1 H        0.926     0.044     2.391     2.418
    58   1 H        0.926     0.055     2.259     2.350
    59   1 H        0.926     0.054     2.273     2.357

molecular dipole:
                 x           y           z       tot (Debye)
 q only:       -0.486      -0.628      -1.303
   full:       -0.898      -0.974      -2.490       7.169

 projected vibrational frequencies (cm⁻¹)
eigval :       -0.00    -0.00    -0.00    -0.00     0.00     0.00
eigval :        5.00     7.59     9.83    19.28    21.03    23.36
eigval :       28.72    33.22    51.46    63.90    80.82    83.10
eigval :       87.98    91.48   106.11   112.88   122.49   140.35
eigval :      157.34   163.09   169.10   184.75   193.05   205.86
eigval :      222.99   237.58   255.37   262.18   270.49   297.37
eigval :      310.77   317.47   350.64   354.07   373.68   386.84
eigval :      401.50   439.87   467.08   486.72   496.08   509.65
eigval :      526.88   550.22   552.17   565.95   577.63   596.93
eigval :      625.36   643.48   702.57   721.55   737.70   766.80
eigval :      776.90   781.80   788.00   798.53   816.24   826.85
eigval :      829.18   846.88   875.94   877.39   888.40   892.77
eigval :      907.50   909.53   910.31   921.32   948.01   967.00
eigval :      984.30   996.58  1011.07  1048.27  1060.12  1075.63
eigval :     1080.54  1084.78  1087.15  1091.83  1097.23  1099.23
eigval :     1103.38  1110.76  1124.45  1127.56  1134.70  1137.66
eigval :     1154.78  1158.02  1160.33  1198.09  1200.13  1211.26
eigval :     1220.80  1224.18  1228.45  1237.58  1250.99  1255.22
eigval :     1262.63  1267.73  1274.17  1277.08  1283.90  1287.58
eigval :     1288.80  1295.12  1302.16  1321.20  1325.10  1331.66
eigval :     1349.14  1351.48  1359.13  1362.98  1366.16  1377.86
eigval :     1378.71  1410.82  1412.13  1436.01  1439.70  1441.76
eigval :     1454.36  1473.21  1474.11  1481.06  1484.42  1490.97
eigval :     1493.23  1494.88  1497.42  1499.76  1501.77  1570.74
eigval :     1575.83  1593.71  1593.96  2953.90  2955.12  2955.78
eigval :     2958.54  2961.03  2965.00  2972.35  2973.09  2975.72
eigval :     2976.70  2978.50  2979.03  2981.17  2983.20  2984.61
eigval :     2985.32  2989.83  2993.74  2994.74  2997.03  2998.08
eigval :     2999.23  3003.79  3010.49  3091.13  3093.84  3098.70
eigval :     3103.62  3104.13  3105.24

   temp. (K)  partition function   enthalpy   heat capacity  entropy
                                   cal/mol     cal/K/mol   cal/K/mol   J/K/mol
 298.15  VIB  0.227E+18            18025.174     99.312    119.839
         ROT  0.980E+08              888.752      2.981     39.546
         INT  0.222E+26            18913.926    102.293    159.385
         TR   0.160E+29             1481.254      4.968     45.277
         TOT                       20395.1804   107.2613   204.6625   856.3079

       T/K    H(0)-H(T)+PV         H(T)/Eh          T*S/Eh         G(T)/Eh
   ------------------------------------------------------------------------
    298.15    0.325018E-01    0.512494E+00    0.972418E-01    0.415252E+00
   ------------------------------------------------------------------------

         :::::::::::::::::::::::::::::::::::::::::::::::::::::
         ::                  THERMODYNAMIC                  ::
         :::::::::::::::::::::::::::::::::::::::::::::::::::::
         :: total free energy         -84.810203889440 Eh   ::
         ::.................................................::
         :: total energy              -85.225455868016 Eh   ::
         :: zero point energy           0.479991942268 Eh   ::
         :: G(RRHO) w/o ZPVE           -0.064739963691 Eh   ::
         :: G(RRHO) contrib.            0.415251978577 Eh   ::
         :::::::::::::::::::::::::::::::::::::::::::::::::::::

           -------------------------------------------------
          | TOTAL ENERGY              -85.225455868016 Eh   |
          | TOTAL ENTHALPY            -84.712962136945 Eh   |
          | TOTAL FREE ENERGY         -84.810203889440 Eh   |
          | GRADIENT NORM               0.000110363340 Eh/α |
          | HOMO-LUMO GAP               3.042895203043 eV   |
           -------------------------------------------------

 * finished run on 2025/09/08 at 20:34:11.217
