   * xtb version 6.7.1 (edcfbbe) compiled by 'albert@albert-system' on 2024-07-22

   ID    Z sym.   atoms
    1   35 Br     1, 15, 19, 27
    2    6 C      2-14, 16-18, 20-26, 28, 29
    3    1 H      30-59

          program call               : xtb data2507/gas/cyclohexanone/cyclohexanone_gas_S0_finalOpt.xtbopt.xyz --gfn 2 --spinpol --tblite --uhf 2 --ohess vtight --parallel 40 --molden --ceasefiles --namespace data2507/gas/cyclohexanone/cyclohexanone_gas_T1_preOpt
 * total energy  :   -85.1258073 Eh     change        0.2204601E-07 Eh
 * total energy  :   -85.1362539 Eh     change       -0.1044660E-01 Eh
 * total energy  :   -85.1383409 Eh     change       -0.2087020E-02 Eh
 * total energy  :   -85.1384237 Eh     change       -0.8276881E-04 Eh
 * total energy  :   -85.1384596 Eh     change       -0.3598103E-04 Eh
 * total energy  :   -85.1384794 Eh     change       -0.1972124E-04 Eh
 * total energy  :   -85.1385029 Eh     change       -0.2349350E-04 Eh
 * total energy  :   -85.1385199 Eh     change       -0.1700931E-04 Eh
 * total energy  :   -85.1385290 Eh     change       -0.9183756E-05 Eh
 * total energy  :   -85.1385361 Eh     change       -0.7021639E-05 Eh
 * total energy  :   -85.1386144 Eh     change       -0.1264197E-06 Eh
 * total energy  :   -85.1386146 Eh     change       -0.1741203E-06 Eh
 * total energy  :   -85.1386148 Eh     change       -0.2456080E-06 Eh
 * total energy  :   -85.1386150 Eh     change       -0.1637928E-06 Eh
 * total energy  :   -85.1386153 Eh     change       -0.2629823E-06 Eh
 * total energy  :   -85.1386154 Eh     change       -0.1888423E-06 Eh
 * total energy  :   -85.1386156 Eh     change       -0.1654882E-06 Eh
 * total energy  :   -85.1386157 Eh     change       -0.1061730E-06 Eh
 * total energy  :   -85.1386158 Eh     change       -0.6662980E-07 Eh
   *** GEOMETRY OPTIMIZATION CONVERGED AFTER 59 ITERATIONS ***

 final structure:
================
59
 xtb: 6.7.1 (edcfbbe)
Br           4.84173576520292       -1.63410647937316        1.12615557495406
C            5.05394087146963       -2.15237117000032       -0.74384982106085
C            3.71077632896716       -2.46153826882761       -1.37860108542763
C            3.05540002013310       -3.70231843498712       -0.77390699266862
C            1.62355774508169       -3.94102615118784       -1.25865850487898
C            0.65495935190934       -2.78525040047997       -0.99754970026627
C            0.52380153041176       -2.42118799104106        0.48125646250658
C           -0.22117428898362       -1.08535885806262        0.69724100426995
C           -0.28549079556672       -0.79987111549253        2.21310376058580
C           -1.22728488167103        0.33353528923110        2.62307973876142
C           -0.76006282096101        1.71168565399880        2.16411418591247
C           -1.65032979111382        2.85668000275075        2.64779636512817
C           -3.11589937761835        2.76170279986772        2.21520820966526
C           -3.32307723765619        2.49082798470699        0.73671330077863
Br          -2.41311100362440        3.79067337365309       -0.39782956650047
C            0.47591215336331        0.00561466119706       -0.08052751163624
C            1.74923749085633        0.45692994598245        0.04170496236983
C            2.19384746521930        1.45227690187256       -0.85654406103750
Br           3.99512840674761        2.02192352733409       -0.77160508886877
C            1.34307941534873        2.00340732773962       -1.84393289914011
C            0.06376061647427        1.56401041333242       -1.97761152855816
C           -0.41060644087207        0.52695148280057       -1.11016752869608
C           -1.62488096157398       -0.12877889581525       -1.03560641656092
C           -2.82809655034290        0.01118915038093       -1.80234827489454
C           -3.90426113356189       -0.76157626144683       -1.49378573928918
C           -3.83723705190737       -1.69520728767955       -0.43493226005409
Br          -5.36207444146538       -2.74637074853461       -0.03583988865790
C           -2.66323323480776       -1.86673160687219        0.33449850590331
C           -1.58173295730640       -1.10232207012246        0.04223691681586
H            5.54445128451972       -1.30874940073346       -1.22786333705746
H            5.71583123718746       -3.01784438870622       -0.74285633808927
H            3.05916131542637       -1.59488388559684       -1.25585353685535
H            3.86895314924375       -2.61178059930532       -2.45026752714743
H            3.05596175897753       -3.61606788767578        0.31415568049805
H            3.65561493735332       -4.58063171634388       -1.02686001487764
H            1.24514220934738       -4.83997398665793       -0.76674588762929
H            1.63988761937566       -4.13587026366087       -2.33379871935746
H           -0.32802635731003       -3.06482714750307       -1.38505104691153
H            0.97652458435568       -1.90840525660884       -1.56256922678762
H           -0.00330280231770       -3.22019293638090        1.00587801369573
H            1.50967360395716       -2.31579321140317        0.93304619910984
H           -0.61615034501157       -1.71296753405730        2.71332845361408
H            0.72423436347321       -0.57824080254668        2.56369670134512
H           -2.22383271794413        0.12215638064730        2.23007567544738
H           -1.29919513284317        0.33516552308712        3.71399256898871
H           -0.70015117794587        1.74161261782778        1.07642094005713
H            0.25084736444414        1.88473864318548        2.54098846986937
H           -1.23191711845841        3.79241562616627        2.26884968292543
H           -1.62306541214657        2.90390658568100        3.73880722014393
H           -3.61544729893012        3.69583943521046        2.48554813464867
H           -3.61389455426959        1.95436205106173        2.75907846323618
H           -2.93173651972320        1.51997247251181        0.43848699790355
H           -4.37814651086273        2.55159871777775        0.47116053324084
H            2.42246876621343        0.08028599474347        0.79653586076339
H            1.72883966977201        2.77954060948001       -2.48674718792980
H           -0.59507534650116        1.98786620773217       -2.71749555618391
H           -2.86771486175844        0.72980927360897       -2.60543936482572
H           -4.82479395689484       -0.67574468898480       -2.05112061309882
H           -2.65168567056623       -2.59398678718375        1.13194806164457

 projected vibrational frequencies (cm⁻¹)
eigval :       -0.00    -0.00     0.00     0.00     0.00     0.00
eigval :        9.43    13.49    19.89    21.90    30.23    37.42
eigval :       39.76    40.39    57.29    69.51    80.70    83.55
eigval :       96.17   115.16   123.29   142.07   153.43   163.40
eigval :      165.83   168.04   193.14   221.01   225.88   239.06
eigval :      240.89   245.36   253.35   260.38   280.81   284.07
eigval :      296.05   301.69   320.27   341.20   351.21   369.07
eigval :      406.73   413.38   447.58   497.77   499.59   508.32
eigval :      518.95   527.65   545.32   559.90   562.14   575.47
eigval :      587.07   605.46   669.26   675.70   712.82   748.82
eigval :      757.02   765.33   768.00   774.03   796.85   805.68
eigval :      828.75   841.18   855.87   863.22   875.94   876.80
eigval :      891.29   893.94   904.58   938.23   940.51   951.34
eigval :      969.52   991.68  1000.87  1006.70  1014.56  1029.14
eigval :     1039.68  1053.65  1064.77  1072.45  1081.16  1085.99
eigval :     1104.11  1107.97  1119.02  1128.50  1133.14  1147.29
eigval :     1150.83  1151.42  1160.76  1163.53  1172.76  1183.51
eigval :     1188.57  1206.60  1213.36  1223.25  1239.93  1249.90
eigval :     1264.17  1268.68  1271.79  1274.51  1278.42  1284.21
eigval :     1286.36  1293.51  1295.63  1311.47  1317.82  1320.28
eigval :     1336.70  1339.22  1343.61  1346.09  1358.10  1358.37
eigval :     1363.04  1369.98  1375.59  1377.63  1435.50  1438.98
eigval :     1470.78  1476.27  1479.58  1481.05  1482.76  1485.51
eigval :     1486.78  1490.15  1495.50  1497.33  1504.29  1508.49
eigval :     1539.21  1559.31  1629.09  2957.53  2958.24  2959.19
eigval :     2961.26  2963.66  2966.99  2968.20  2970.22  2974.14
eigval :     2977.44  2978.42  2983.10  2984.38  2986.28  2988.05
eigval :     2989.72  2991.30  2992.30  2995.67  2999.15  3004.55
eigval :     3009.53  3009.99  3014.15  3089.94  3092.31  3096.10
eigval :     3096.98  3103.42  3112.26

   temp. (K)  partition function   enthalpy   heat capacity  entropy
                                   cal/mol     cal/K/mol   cal/K/mol   J/K/mol
 298.15  VIB  0.276E+16            17874.966    101.687    115.232
         ROT  0.516E+08              888.752      2.981     38.272
         INT  0.142E+24            18763.719    104.668    153.504
         TR   0.160E+29             1481.254      4.968     45.277
         TOT                       20244.9726   109.6357   198.7811   831.7002

       T/K    H(0)-H(T)+PV         H(T)/Eh          T*S/Eh         G(T)/Eh
   ------------------------------------------------------------------------
    298.15    0.322624E-01    0.509698E+00    0.944473E-01    0.415250E+00
   ------------------------------------------------------------------------

         :::::::::::::::::::::::::::::::::::::::::::::::::::::
         ::                  THERMODYNAMIC                  ::
         :::::::::::::::::::::::::::::::::::::::::::::::::::::
         :: total free energy         -84.723365530855 Eh   ::
         ::.................................................::
         :: total energy              -85.138615804070 Eh   ::
         :: zero point energy           0.477435175933 Eh   ::
         :: G(RRHO) w/o ZPVE           -0.062184902718 Eh   ::
         :: G(RRHO) contrib.            0.415250273215 Eh   ::
         :::::::::::::::::::::::::::::::::::::::::::::::::::::

           -------------------------------------------------
          | TOTAL ENERGY              -85.138615804070 Eh   |
          | TOTAL ENTHALPY            -84.628918210666 Eh   |
          | TOTAL FREE ENERGY         -84.723365530855 Eh   |
          | GRADIENT NORM               0.000023299656 Eh/α |
           -------------------------------------------------

 * finished run on 2025/09/08 at 20:53:59.239
