   * xtb version 6.7.1 (edcfbbe) compiled by 'albert@albert-system' on 2024-07-22

   ID    Z sym.   atoms
    1   35 Br     1, 15, 19, 27
    2    6 C      2-14, 16-18, 20-26, 28, 29
    3    1 H      30-59

          program call               : xtb data2507/gas/cyclohexanone/cyclohexanone_gas_S0_crest.xyz --gfn 2 --ohess vtight --parallel 40 --molden --ceasefiles --namespace data2507/gas/cyclohexanone/cyclohexanone_gas_S0_finalOpt
          :  Hamiltonian                  GFN2-xTB          :
 * total energy  :   -85.2364840 Eh     change       -0.4573337E-09 Eh
 * total energy  :   -85.2364856 Eh     change       -0.1556507E-05 Eh
 * total energy  :   -85.2364873 Eh     change       -0.1759857E-05 Eh
 * total energy  :   -85.2364907 Eh     change       -0.3382978E-05 Eh
 * total energy  :   -85.2364950 Eh     change       -0.4308800E-05 Eh
 * total energy  :   -85.2364991 Eh     change       -0.4050301E-05 Eh
 * total energy  :   -85.2365038 Eh     change       -0.4697285E-05 Eh
 * total energy  :   -85.2365090 Eh     change       -0.5271127E-05 Eh
 * total energy  :   -85.2365138 Eh     change       -0.4737564E-05 Eh
 * total energy  :   -85.2365183 Eh     change       -0.4562045E-05 Eh
 * total energy  :   -85.2366358 Eh     change       -0.7202977E-06 Eh
 * total energy  :   -85.2366364 Eh     change       -0.6590465E-06 Eh
 * total energy  :   -85.2366370 Eh     change       -0.5804363E-06 Eh
 * total energy  :   -85.2366375 Eh     change       -0.4815322E-06 Eh
 * total energy  :   -85.2366379 Eh     change       -0.4409896E-06 Eh
 * total energy  :   -85.2366384 Eh     change       -0.4724319E-06 Eh
 * total energy  :   -85.2366389 Eh     change       -0.5436026E-06 Eh
 * total energy  :   -85.2366395 Eh     change       -0.5654061E-06 Eh
 * total energy  :   -85.2366395 Eh     change       -0.4789328E-08 Eh
   *** GEOMETRY OPTIMIZATION CONVERGED AFTER 44 ITERATIONS ***

 final structure:
================
59
 xtb: 6.7.1 (edcfbbe)
Br           4.79202290476484       -1.69095599053712        1.16049650317541
C            5.03421415710109       -2.19552081787824       -0.70943876694805
C            3.70096077087995       -2.49874089391420       -1.36799702525600
C            3.02863137326862       -3.73637964930959       -0.77503332051549
C            1.59580095119315       -3.95769296277047       -1.26568333782482
C            0.64134734272240       -2.78553711688904       -1.02202858345490
C            0.52625244828798       -2.39230637268010        0.45106967356859
C           -0.19438666762395       -1.04251980429338        0.66408037697321
C           -0.23130725097490       -0.74594586860591        2.17782470721849
C           -1.18180729803935        0.37113971167153        2.61361751130409
C           -0.78705082093592        1.74957990365339        2.09124634257510
C           -1.66343501562953        2.88525113068691        2.62001941463640
C           -3.15692105013565        2.74970314984873        2.30894211993787
C           -3.47957355351376        2.40897159276206        0.86577900411128
Br          -2.65928634221963        3.64259908197131       -0.40355009289563
C            0.51170795429568        0.02509065028499       -0.13734352248187
C            1.81016957672785        0.46702127897986       -0.01157064102271
C            2.25691072520846        1.41988949198908       -0.91786722620353
Br           4.07460607068516        1.99436985337918       -0.81616475234538
C            1.43940533706005        1.94431932976071       -1.90670547439100
C            0.13205396328670        1.50237715310310       -2.02447646637414
C           -0.32259363188257        0.53047330777879       -1.14858913378493
C           -1.61299818337600       -0.12848557996634       -1.04270567965955
C           -2.77479028542740        0.03409343401392       -1.78114809528878
C           -3.88865611157591       -0.71834354888832       -1.44682350682159
C           -3.82154242574959       -1.61705445112823       -0.39286031797068
Br          -5.37700579971953       -2.63268067023257        0.05879667243506
C           -2.66387400043492       -1.79896097838258        0.35255083195705
C           -1.55908034456844       -1.04463556759287        0.02144296736857
H            5.53256844849730       -1.34844730048741       -1.17906961719418
H            5.69536304489756       -3.06148059384476       -0.70381905889697
H            3.05234516735333       -1.62833862224070       -1.25712081266749
H            3.87752013335056       -2.64917743866176       -2.43668556530680
H            3.02597960577910       -3.65824177736863        0.31368794842593
H            3.61986429334728       -4.61971136799016       -1.03117779110459
H            1.20215171894027       -4.84684328773660       -0.76803444391506
H            1.61426733278437       -4.16212240367894       -2.33890177088715
H           -0.34645504269439       -3.06403749088193       -1.39765416788129
H            0.96954824830452       -1.92608561068316       -1.60890444260956
H           -0.00827193440104       -3.17542335413065        0.99197323916273
H            1.51718119701373       -2.29676162033741        0.89375565234021
H           -0.53157795748488       -1.66172530841723        2.69231021588881
H            0.78268338589003       -0.50475031587908        2.50223599749789
H           -2.19465992296355        0.12096326097446        2.29153590266867
H           -1.18443462471382        0.39917969461906        3.70655041841563
H           -0.81448125986553        1.75853886006905        1.00303063368329
H            0.24547068558598        1.95427338913623        2.38432440864193
H           -1.29790397277298        3.81959862216901        2.18679702303214
H           -1.55076578313982        2.96067822490208        3.70382744249603
H           -3.64948668155514        3.68770289477501        2.57832380419097
H           -3.59578517451552        1.96018404131296        2.92525280258902
H           -3.11580026306333        1.42236756208730        0.58690197807399
H           -4.55217236657275        2.46375780624877        0.68185649201410
H            2.46689272646139        0.09196629737641        0.75831558988981
H            1.82363719873611        2.69251476084918       -2.58222384910581
H           -0.51223474623146        1.91276578149574       -2.78558937850242
H           -2.82036113684041        0.74149277539248       -2.59456053374491
H           -4.80844294961036       -0.60799398319562       -2.00019510160359
H           -2.64227758173688       -2.50729301412310        1.16646402447461

          :  Hamiltonian                  GFN2-xTB          :
         :: gradient norm              0.000044294107 Eh/a0 ::
         :: HOMO-LUMO gap              3.030895150246 eV    ::
         :: SCC energy               -86.390682467407 Eh    ::
         :: -> dispersion             -0.083556614427 Eh    ::
         :: repulsion energy           1.154042951403 Eh    ::

    * Orbital Energies and Occupations

         #    Occupation            Energy/Eh            Energy/eV
      -------------------------------------------------------------
         1        2.0000           -0.8421181             -22.9152
       ...           ...                  ...                  ...
        67        2.0000           -0.4344449             -11.8218
        68        2.0000           -0.4337741             -11.8036
        69        2.0000           -0.4328652             -11.7789
        70        2.0000           -0.4273111             -11.6277
        71        2.0000           -0.4171243             -11.3505
        72        2.0000           -0.4153850             -11.3032
        73        2.0000           -0.4107386             -11.1768
        74        2.0000           -0.4098948             -11.1538
        75        2.0000           -0.4093691             -11.1395
        76        2.0000           -0.4092432             -11.1361
        77        2.0000           -0.4075970             -11.0913
        78        2.0000           -0.4068569             -11.0711
        79        2.0000           -0.3910121             -10.6400 (HOMO)
        80                         -0.2796287              -7.6091 (LUMO)
        81                         -0.2522515              -6.8641
        82                         -0.2457169              -6.6863
        83                         -0.2218009              -6.0355
        84                         -0.2181357              -5.9358
        85                         -0.2174688              -5.9176
        86                         -0.2104203              -5.7258
        87                         -0.2043310              -5.5601
        88                         -0.1431558              -3.8955
        89                         -0.0888106              -2.4167
        90                          0.0152430               0.4148
       ...                                ...                  ...
       166                          0.7044023              19.1678
      -------------------------------------------------------------
                  HL-Gap            0.1113834 Eh            3.0309 eV

     #   Z          covCN         q      C6AA      α(0)
     1  35 Br       0.982    -0.195   190.441    22.251
     2   6 C        3.741     0.027    20.200     6.412
     3   6 C        3.865    -0.053    21.478     6.590
     4   6 C        3.802    -0.059    21.635     6.622
     5   6 C        3.800    -0.059    21.633     6.622
     6   6 C        3.800    -0.054    21.542     6.608
     7   6 C        3.810    -0.061    21.663     6.625
     8   6 C        3.935     0.013    20.291     6.401
     9   6 C        3.805    -0.060    21.652     6.624
    10   6 C        3.800    -0.055    21.570     6.612
    11   6 C        3.801    -0.058    21.620     6.620
    12   6 C        3.801    -0.056    21.581     6.614
    13   6 C        3.851    -0.051    21.445     6.587
    14   6 C        3.740     0.029    20.166     6.407
    15  35 Br       0.969    -0.198   190.519    22.255
    16   6 C        3.064     0.006    27.830     8.651
    17   6 C        2.989    -0.043    29.069     8.844
    18   6 C        2.920     0.080    26.211     8.396
    19  35 Br       1.069    -0.172   189.820    22.214
    20   6 C        2.993    -0.038    28.928     8.823
    21   6 C        2.916    -0.030    28.758     8.794
    22   6 C        3.035     0.000    27.990     8.678
    23   6 C        3.037     0.001    27.968     8.674
    24   6 C        2.916    -0.033    28.818     8.803
    25   6 C        2.991    -0.040    28.980     8.831
    26   6 C        2.919     0.077    26.283     8.407
    27  35 Br       1.064    -0.177   189.960    22.223
    28   6 C        2.985    -0.041    29.016     8.836
    29   6 C        3.058     0.005    27.854     8.655
    30   1 H        0.926     0.057     2.234     2.337
    31   1 H        0.926     0.049     2.333     2.388
    32   1 H        0.924     0.051     2.308     2.376
    33   1 H        0.924     0.037     2.493     2.469
    34   1 H        0.924     0.051     2.309     2.376
    35   1 H        0.924     0.031     2.576     2.510
    36   1 H        0.924     0.036     2.503     2.474
    37   1 H        0.924     0.032     2.562     2.503
    38   1 H        0.924     0.028     2.616     2.529
    39   1 H        0.924     0.029     2.600     2.521
    40   1 H        0.924     0.038     2.477     2.461
    41   1 H        0.925     0.056     2.249     2.345
    42   1 H        0.924     0.039     2.457     2.451
    43   1 H        0.924     0.047     2.355     2.400
    44   1 H        0.924     0.026     2.648     2.545
    45   1 H        0.924     0.035     2.517     2.481
    46   1 H        0.925     0.038     2.481     2.463
    47   1 H        0.924     0.034     2.529     2.487
    48   1 H        0.924     0.047     2.357     2.401
    49   1 H        0.924     0.034     2.532     2.488
    50   1 H        0.924     0.043     2.412     2.429
    51   1 H        0.924     0.039     2.465     2.455
    52   1 H        0.927     0.051     2.313     2.378
    53   1 H        0.926     0.049     2.336     2.390
    54   1 H        0.926     0.066     2.131     2.283
    55   1 H        0.926     0.054     2.273     2.358
    56   1 H        0.926     0.051     2.311     2.377
    57   1 H        0.926     0.050     2.322     2.383
    58   1 H        0.926     0.052     2.300     2.371
    59   1 H        0.926     0.051     2.312     2.378

molecular dipole:
                 x           y           z       tot (Debye)
 q only:       -0.016      -0.683      -0.077
   full:       -0.251      -1.176      -0.492       3.303

 projected vibrational frequencies (cm⁻¹)
eigval :       -0.00    -0.00    -0.00     0.00     0.00     0.00
eigval :        7.05    14.13    21.35    23.36    31.25    37.76
eigval :       42.05    43.33    57.50    71.82    82.30    93.56
eigval :       96.34   114.54   124.45   146.99   159.97   164.95
eigval :      168.18   205.10   217.47   223.73   225.86   238.10
eigval :      239.82   252.83   258.08   259.88   282.57   283.45
eigval :      302.59   320.64   338.87   353.04   372.71   403.48
eigval :      427.91   464.75   473.30   501.00   510.26   527.45
eigval :      532.57   552.43   560.39   564.04   570.62   579.72
eigval :      617.04   637.93   701.54   718.20   733.05   749.14
eigval :      756.58   779.97   799.33   805.46   817.66   829.54
eigval :      831.77   842.04   864.94   878.37   881.10   894.91
eigval :      906.62   907.50   911.04   940.89   947.53   975.87
eigval :      986.17  1004.03  1011.42  1016.86  1036.78  1056.38
eigval :     1071.10  1082.75  1083.07  1084.66  1091.12  1103.05
eigval :     1104.68  1120.40  1133.19  1142.09  1144.82  1151.34
eigval :     1154.41  1157.34  1163.40  1170.88  1184.61  1191.03
eigval :     1212.27  1221.24  1223.36  1234.81  1245.71  1255.12
eigval :     1266.34  1270.40  1274.51  1277.97  1280.21  1286.44
eigval :     1293.40  1302.88  1318.45  1323.91  1329.50  1345.36
eigval :     1347.46  1357.30  1359.26  1360.25  1372.66  1376.58
eigval :     1381.24  1409.64  1411.11  1435.64  1439.11  1442.61
eigval :     1451.81  1472.36  1478.03  1480.75  1486.54  1488.03
eigval :     1491.54  1498.28  1499.15  1507.97  1511.72  1568.95
eigval :     1575.63  1591.86  1593.13  2958.71  2958.73  2960.21
eigval :     2963.33  2964.76  2967.25  2969.76  2971.93  2975.25
eigval :     2978.03  2979.84  2984.79  2985.81  2987.65  2990.65
eigval :     2991.07  2991.70  2995.29  2996.19  3000.23  3006.58
eigval :     3012.44  3020.07  3033.66  3095.06  3097.57  3099.94
eigval :     3100.84  3105.71  3110.30

   temp. (K)  partition function   enthalpy   heat capacity  entropy
                                   cal/mol     cal/K/mol   cal/K/mol   J/K/mol
 298.15  VIB  0.128E+16            17465.401     99.930    112.657
         ROT  0.513E+08              888.752      2.981     38.260
         INT  0.657E+23            18354.154    102.911    150.917
         TR   0.160E+29             1481.254      4.968     45.277
         TOT                       19835.4077   107.8792   196.1940   820.8757

       T/K    H(0)-H(T)+PV         H(T)/Eh          T*S/Eh         G(T)/Eh
   ------------------------------------------------------------------------
    298.15    0.316097E-01    0.513034E+00    0.932181E-01    0.419816E+00
   ------------------------------------------------------------------------

         :::::::::::::::::::::::::::::::::::::::::::::::::::::
         ::                  THERMODYNAMIC                  ::
         :::::::::::::::::::::::::::::::::::::::::::::::::::::
         :: total free energy         -84.816823281086 Eh   ::
         ::.................................................::
         :: total energy              -85.236639516010 Eh   ::
         :: zero point energy           0.481424606919 Eh   ::
         :: G(RRHO) w/o ZPVE           -0.061608371995 Eh   ::
         :: G(RRHO) contrib.            0.419816234924 Eh   ::
         :::::::::::::::::::::::::::::::::::::::::::::::::::::

           -------------------------------------------------
          | TOTAL ENERGY              -85.236639516010 Eh   |
          | TOTAL ENTHALPY            -84.723605174814 Eh   |
          | TOTAL FREE ENERGY         -84.816823281086 Eh   |
          | GRADIENT NORM               0.000044334323 Eh/α |
          | HOMO-LUMO GAP               3.030896264426 eV   |
           -------------------------------------------------

 * finished run on 2025/09/08 at 20:53:53.191
