   * xtb version 6.7.1 (edcfbbe) compiled by 'albert@albert-system' on 2024-07-22

   ID    Z sym.   atoms
    1   35 Br     1, 15, 19, 27
    2    6 C      2-14, 16-18, 20-26, 28, 29
    3    1 H      30-59

          program call               : xtb data2507/gas/cyclohexanone/cyclohexanone_gas_T1_crest.xyz --gfn 2 --spinpol --tblite --uhf 2 --ohess vtight --parallel 40 --molden --ceasefiles --namespace data2507/gas/cyclohexanone/cyclohexanone_gas_T1_finalOpt
 * total energy  :   -85.1385994 Eh     change       -0.2067949E-08 Eh
 * total energy  :   -85.1386056 Eh     change       -0.6200697E-05 Eh
 * total energy  :   -85.1386073 Eh     change       -0.1692450E-05 Eh
 * total energy  :   -85.1386082 Eh     change       -0.9225819E-06 Eh
 * total energy  :   -85.1386095 Eh     change       -0.1292526E-05 Eh
 * total energy  :   -85.1386094 Eh     change        0.4922856E-07 Eh
 * total energy  :   -85.1386106 Eh     change       -0.1185055E-05 Eh
 * total energy  :   -85.1386116 Eh     change       -0.1002506E-05 Eh
 * total energy  :   -85.1386123 Eh     change       -0.7297278E-06 Eh
 * total energy  :   -85.1386132 Eh     change       -0.8148777E-06 Eh
 * total energy  :   -85.1386141 Eh     change       -0.9695023E-06 Eh
 * total energy  :   -85.1386150 Eh     change       -0.8650284E-06 Eh
 * total energy  :   -85.1386156 Eh     change       -0.5887886E-06 Eh
 * total energy  :   -85.1386159 Eh     change       -0.3585899E-06 Eh
 * total energy  :   -85.1386160 Eh     change       -0.3154844E-07 Eh
   *** GEOMETRY OPTIMIZATION CONVERGED AFTER 15 ITERATIONS ***

 final structure:
================
59
 xtb: 6.7.1 (edcfbbe)
Br           4.85725521809562       -1.51118894192390        1.17274806337332
C            5.10522722935145       -1.98618603748412       -0.70439590761606
C            3.77890694621731       -2.32601183583011       -1.35859807327575
C            3.15729087201554       -3.59799652754883       -0.78382501879383
C            1.73855356009826       -3.87289058744955       -1.28773953298121
C            0.73142992047753       -2.75240197222541       -1.01837371445890
C            0.57560657485507       -2.41532595197596        0.46445677198182
C           -0.20994078321713       -1.10532791562152        0.69339493560928
C           -0.29662835990128       -0.84501812393811        2.21265554868358
C           -1.26585729422607        0.26284396492181        2.62863563332343
C           -0.81400645116782        1.65846432682553        2.20864319262270
C           -1.73039962693389        2.77763367266948        2.70363277374221
C           -3.18630762517573        2.67091960970063        2.24233736900699
C           -3.36261305311994        2.43712329574661        0.75351209695888
Br          -2.45377597066059        3.78186565026033       -0.32875156158582
C            0.46088487517692        0.01777508920205       -0.06127656771704
C            1.72011016378165        0.50282901931323        0.07719567921767
C            2.14129654164310        1.52681073309574       -0.79985055349883
Br           3.92479778071179        2.14620657489160       -0.69239935522707
C            1.28112294686915        2.07118753692697       -1.78269681741490
C            0.01568345741491        1.59801382483491       -1.93249158440577
C           -0.43429673672067        0.53269575048761       -1.08657263588421
C           -1.63033323597231       -0.15760349510765       -1.03068002828189
C           -2.83348407082180       -0.03657412694550       -1.80086456901476
C           -3.88768005570150       -0.84744392694980       -1.51522072031544
C           -3.79817311846069       -1.80164439125318       -0.47662574931882
Br          -5.29196458030635       -2.90789285361751       -0.11096686509211
C           -2.62418120615257       -1.95357147791079        0.29695164101628
C           -1.56477554672846       -1.15074525133332        0.02790838006875
H            5.57298243584432       -1.11823480792984       -1.16749933874135
H            5.79452865162940       -2.82994707405481       -0.71266710038084
H            3.09874792868347       -1.48293464089626       -1.22701082729515
H            3.95259415531728       -2.45112549105674       -2.43107138810200
H            3.14445650300012       -3.53214047505903        0.30559318676387
H            3.78757502550875       -4.45203959555456       -1.04658660371280
H            1.38353364186393       -4.79130998766906       -0.81472446574641
H            1.77192710398056       -4.04916265315968       -2.36568254256332
H           -0.23867027027689       -3.05683957596862       -1.41937883665107
H            1.03017339327931       -1.85728262152512       -1.56704922074301
H            0.06727807409520       -3.23733816352923        0.97173992189536
H            1.55366858232593       -2.28837073473914        0.92751875487706
H           -0.61454090645198       -1.77248891848517        2.69433686094716
H            0.70428808340882       -0.60874345288266        2.57859389531164
H           -2.25094863699271        0.04306111067795        2.21191685030812
H           -1.35844131534051        0.23968794480428        3.71773814210455
H           -0.73736728786673        1.71428407601548        1.12302514983293
H            0.18782132449273        1.83886787383512        2.60580147074611
H           -1.32003014564885        3.72865389863031        2.35516345376841
H           -1.72315056967675        2.79846596677685        3.79577105619921
H           -3.70589047701778        3.58930448037785        2.52843148921871
H           -3.68039854602395        1.84122305556984        2.75521497132292
H           -2.95024867730311        1.48101071452695        0.43627587294131
H           -4.41364430609525        2.48838707915580        0.47053598331944
H            2.39878244633159        0.13269268819539        0.83032782973871
H            1.64826102416326        2.86933381251653       -2.40922047721221
H           -0.64999020975559        2.01560462972567       -2.66982769193340
H           -2.89036181228611        0.69758871919136       -2.58877113934978
H           -4.80754362495740       -0.77684321953053       -2.07580544814608
H           -2.59549852817444       -2.69672428762030        1.07914798305491

 projected vibrational frequencies (cm⁻¹)
eigval :       -0.00    -0.00    -0.00     0.00     0.00     0.00
eigval :        9.22    13.09    19.97    22.26    30.31    37.68
eigval :       39.67    41.15    57.57    69.71    80.82    83.15
eigval :       96.34   115.26   123.00   141.96   154.09   163.14
eigval :      165.62   167.88   193.18   220.96   225.83   238.95
eigval :      241.04   245.64   253.82   260.81   281.37   284.08
eigval :      296.13   301.67   320.33   341.67   351.37   369.39
eigval :      406.82   413.33   447.34   497.75   499.58   508.48
eigval :      518.99   527.60   545.24   559.93   561.99   575.43
eigval :      587.03   605.28   669.30   675.63   712.85   748.85
eigval :      757.12   765.38   768.10   774.09   796.86   805.68
eigval :      828.71   841.39   855.58   863.45   876.13   876.73
eigval :      891.36   893.98   904.68   937.95   940.57   951.69
eigval :      969.50   991.72  1000.78  1006.83  1014.61  1029.06
eigval :     1039.91  1053.74  1064.96  1072.43  1081.30  1085.89
eigval :     1104.14  1108.14  1119.06  1128.63  1132.98  1147.40
eigval :     1150.97  1151.52  1160.88  1163.19  1172.82  1183.72
eigval :     1188.56  1206.58  1213.47  1223.32  1240.12  1249.94
eigval :     1264.28  1268.97  1272.20  1274.75  1278.70  1284.30
eigval :     1286.56  1293.80  1295.87  1311.51  1317.93  1320.23
eigval :     1337.01  1339.54  1343.94  1346.44  1358.43  1358.64
eigval :     1363.20  1370.58  1375.79  1377.85  1435.63  1439.08
eigval :     1471.33  1476.66  1479.77  1481.14  1483.18  1485.89
eigval :     1487.33  1490.49  1495.48  1497.78  1504.71  1509.08
eigval :     1539.39  1559.25  1629.07  2957.61  2958.08  2959.23
eigval :     2961.24  2963.56  2967.19  2968.34  2970.02  2974.12
eigval :     2977.26  2978.93  2983.30  2984.28  2986.07  2988.11
eigval :     2989.46  2991.19  2992.35  2995.37  2998.83  3004.77
eigval :     3008.48  3009.96  3014.17  3089.81  3092.55  3096.38
eigval :     3097.47  3103.06  3112.22

   temp. (K)  partition function   enthalpy   heat capacity  entropy
                                   cal/mol     cal/K/mol   cal/K/mol   J/K/mol
 298.15  VIB  0.276E+16            17871.274    101.704    115.247
         ROT  0.517E+08              888.752      2.981     38.276
         INT  0.143E+24            18760.027    104.684    153.523
         TR   0.160E+29             1481.254      4.968     45.277
         TOT                       20241.2807   109.6526   198.8009   831.7832

       T/K    H(0)-H(T)+PV         H(T)/Eh          T*S/Eh         G(T)/Eh
   ------------------------------------------------------------------------
    298.15    0.322565E-01    0.509725E+00    0.944567E-01    0.415268E+00
   ------------------------------------------------------------------------

         :::::::::::::::::::::::::::::::::::::::::::::::::::::
         ::                  THERMODYNAMIC                  ::
         :::::::::::::::::::::::::::::::::::::::::::::::::::::
         :: total free energy         -84.723347968478 Eh   ::
         ::.................................................::
         :: total energy              -85.138615982223 Eh   ::
         :: zero point energy           0.477468224182 Eh   ::
         :: G(RRHO) w/o ZPVE           -0.062200210437 Eh   ::
         :: G(RRHO) contrib.            0.415268013746 Eh   ::
         :::::::::::::::::::::::::::::::::::::::::::::::::::::

           -------------------------------------------------
          | TOTAL ENERGY              -85.138615982223 Eh   |
          | TOTAL ENTHALPY            -84.628891224088 Eh   |
          | TOTAL FREE ENERGY         -84.723347968478 Eh   |
          | GRADIENT NORM               0.000197201379 Eh/α |
           -------------------------------------------------

 * finished run on 2025/09/08 at 21:11:50.515
