   * xtb version 6.7.1 (edcfbbe) compiled by 'albert@albert-system' on 2024-07-22

   ID    Z sym.   atoms
    1    7 N      1, 11, 17, 35, 45
    2    6 C      2-10, 12-16, 18-34, 36-44, 46-52
    3    1 H      53-81

          program call               : xtb data2507/toluene/2PyCNICz/2PyCNICz_toluene_T1_crest.xyz --gfn 2 --uhf 2 --gbsa toluene --ohess vtight --parallel 40 --molden --ceasefiles --namespace data2507/toluene/2PyCNICz/2PyCNICz_toluene_T1_finalOpt
      * Solvation model:               GBSA
        Solvent                        toluene
        Solvent mass                       9.2140E+01 g/mol
          :  Hamiltonian                  GFN2-xTB          :
 * total energy  :  -130.0716788 Eh     change       -0.1980510E-08 Eh
 * total energy  :  -130.0718154 Eh     change       -0.1366408E-03 Eh
 * total energy  :  -130.0718791 Eh     change       -0.6362861E-04 Eh
 * total energy  :  -130.0718887 Eh     change       -0.9627533E-05 Eh
 * total energy  :  -130.0718999 Eh     change       -0.1121112E-04 Eh
 * total energy  :  -130.0719054 Eh     change       -0.5492549E-05 Eh
 * total energy  :  -130.0719155 Eh     change       -0.1011501E-04 Eh
 * total energy  :  -130.0719206 Eh     change       -0.5051108E-05 Eh
 * total energy  :  -130.0719238 Eh     change       -0.3203242E-05 Eh
 * total energy  :  -130.0719274 Eh     change       -0.3574473E-05 Eh
 * total energy  :  -130.0719319 Eh     change       -0.3919382E-06 Eh
 * total energy  :  -130.0719324 Eh     change       -0.4583461E-06 Eh
 * total energy  :  -130.0719329 Eh     change       -0.5464417E-06 Eh
 * total energy  :  -130.0719335 Eh     change       -0.5716512E-06 Eh
 * total energy  :  -130.0719340 Eh     change       -0.4734509E-06 Eh
 * total energy  :  -130.0719343 Eh     change       -0.3316675E-06 Eh
 * total energy  :  -130.0719346 Eh     change       -0.2510441E-06 Eh
 * total energy  :  -130.0719347 Eh     change       -0.1707337E-06 Eh
 * total energy  :  -130.0719347 Eh     change       -0.3304166E-08 Eh
   *** GEOMETRY OPTIMIZATION CONVERGED AFTER 22 ITERATIONS ***

 final structure:
================
81
 xtb: 6.7.1 (edcfbbe)
N           -7.69957513157135        1.94834576515957       -0.55838700092692
C           -6.72087503100470        1.38627866815479       -0.28534888787932
C           -5.53554015154589        0.74381874179363        0.00113251618063
C           -4.52488482442810        1.31365709558135        0.85100629306526
C           -4.79432938416699        2.49181871558452        1.68127687342125
C           -6.03491296452251        2.69830385927572        2.28109717623780
C           -6.24844237187298        3.81312767563755        3.07049228377835
C           -5.23293466487838        4.73440163331264        3.27004914870825
C           -3.99278436265846        4.53004844650782        2.68507023586552
C           -3.77111930456743        3.41584611361975        1.90031793890396
N           -3.33250927064116        0.80125137210859        0.91644811958397
C           -2.98874714763029       -0.30207394330499        0.21602783708471
C           -1.66459880284223       -0.81353822641489        0.29324378934807
C           -1.29070045748884       -1.96750349157951       -0.42547681371775
C           -0.00584852432887       -2.44712870869670       -0.36685552105336
C            0.95520887668053       -1.78794841505124        0.40624981109963
N            2.26497488428227       -2.28783871110288        0.49600203596629
C            2.56480023071322       -3.53201418754373        1.03478570058603
C            1.71135233285337       -4.56019974728491        1.39748274019060
C            2.27732195456598       -5.70765533016965        1.93276324188422
C            3.65110289903481       -5.82134617216469        2.11370458579297
C            4.50458287771449       -4.78412728760216        1.77410429069637
C            3.95914963416230       -3.62968772539894        1.23166283641991
C            4.51860090928829       -2.37779312510779        0.80008187038954
C            5.82222586310252       -1.89962911929403        0.80607982871108
C            6.07839864348126       -0.61789463084856        0.35687963279517
C            5.02010912633860        0.14341661611306       -0.13911998853080
C            3.68635702890306       -0.32858779508636       -0.22803067266477
C            2.94919123395070        0.67768877895728       -0.94040754771259
C            1.65329496085311        0.77710568468559       -1.44185716322749
C            1.27836237994518        1.92909330370575       -2.10172426211008
C            2.16817380002093        2.99117530582353       -2.27851125508670
C            3.47012423866944        2.90599399275067       -1.83548111461554
C            3.86395012532425        1.73550812552804       -1.19442698925713
N            5.09786536708862        1.39987947686097       -0.70109780884803
C            6.25582066487753        2.19564532948269       -0.76688928564754
C            6.68427290035910        2.70551088302266       -1.98871880930118
C            7.81718316097759        3.49721659502084       -2.04357329269103
C            8.53040489282034        3.77732083853237       -0.88909826540258
C            8.10733533706033        3.26362383864034        0.32630055631332
C            6.97217537593417        2.47631742054460        0.39297676991640
C            3.42649964880125       -1.58867083120105        0.32980709650943
C            0.59552700681417       -0.64927318030421        1.13719023830841
C           -0.68846304439336       -0.17146947749369        1.08281300857711
N           -3.92037320781004       -0.92845698525794       -0.53550846111929
C           -5.13559510136439       -0.48002001173944       -0.64128495822610
C           -6.07497975985945       -1.26234469729119       -1.45006873543430
C           -7.42210487245910       -1.36723424743726       -1.10919841026279
C           -8.27933413571447       -2.12264705939456       -1.88752069808950
C           -7.80784671882844       -2.77942875788095       -3.01278362395116
C           -6.46615748037522       -2.69060237107141       -3.35064568418515
C           -5.60364939902666       -1.94250142433331       -2.57434670910751
H           -6.82866316924796        1.97850980013059        2.14385341671819
H           -7.21402601994645        3.96064482557186        3.53150736097372
H           -5.40741314524598        5.60681005890550        3.88198842164497
H           -3.19619571780083        5.24287386258243        2.84058571945772
H           -2.81039931879637        3.24813741989526        1.43661723774548
H           -2.03904658572154       -2.46092668742907       -1.02654086028787
H            0.28003328094202       -3.31871679435129       -0.93754513010631
H            0.64280807899701       -4.47201204071409        1.27611685625749
H            1.63463552745921       -6.52686669714861        2.21857036945374
H            4.05583967310930       -6.73036443744557        2.53281712604418
H            5.56892204645197       -4.87015864922947        1.92997686616242
H            6.62499823159249       -2.52339832924444        1.16551196929218
H            7.08124959129129       -0.22119722696700        0.35779266257869
H            0.94921257480161       -0.02881535292836       -1.32980076516433
H            0.27269496242193        2.01308740834968       -2.48661718680791
H            1.83192695418442        3.88615343329269       -2.78023215225757
H            4.16403994205656        3.71946857340360       -1.98012095473944
H            6.13601647849267        2.46727072831625       -2.88785289206853
H            8.14781930041317        3.89071793768272       -2.99315492191294
H            9.41464088630244        4.39468237420575       -0.93668861068109
H            8.65898953417902        3.48242774831774        1.22834719731742
H            6.62639105621730        2.08974038595093        1.34009698376741
H            1.33922752774728       -0.15782451815968        1.74698790388071
H           -0.97999344505003        0.69986814506497        1.64851414287319
H           -7.79652554800095       -0.87098923347601       -0.22572698796290
H           -9.32100896589917       -2.19686280395667       -1.61184606015261
H           -8.48352955732525       -3.36133693955357       -3.62174558245184
H           -6.09222020182718       -3.20470583985595       -4.22396047852728
H           -4.55772048614040       -1.86236266926006       -2.83031592233166

          :  Hamiltonian                  GFN2-xTB          :
         :: gradient norm              0.000041267377 Eh/a0 ::
         :: HOMO-LUMO gap              0.405174329930 eV    ::
         :: SCC energy              -132.519563869719 Eh    ::
         :: -> dispersion             -0.117626350965 Eh    ::
         :: -> Gsolv                  -0.066171627797 Eh    ::
         :: repulsion energy           2.447629131306 Eh    ::

    * Orbital Energies and Occupations

         #    Occupation            Energy/Eh            Energy/eV
      -------------------------------------------------------------
         1        2.0000           -0.6927811             -18.8515
       ...           ...                  ...                  ...
       110        2.0000           -0.4115755             -11.1995
       111        2.0000           -0.4110535             -11.1853
       112        2.0000           -0.4107019             -11.1758
       113        2.0000           -0.4082745             -11.1097
       114        2.0000           -0.4071652             -11.0795
       115        2.0000           -0.4045551             -11.0085
       116        2.0000           -0.4003090             -10.8930
       117        2.0000           -0.3975249             -10.8172
       118        2.0000           -0.3869471             -10.5294
       119        1.9944           -0.3739330             -10.1752
       120        1.6690           -0.3696809             -10.0595
       121        1.3366           -0.3683677             -10.0238
       122        0.9996           -0.2902534              -7.8982 (HOMO)
       123        0.0004           -0.2753632              -7.4930 (LUMO)
       124                         -0.2611918              -7.1074
       125                         -0.2512156              -6.8359
       126                         -0.2444883              -6.6529
       127                         -0.2413588              -6.5677
       128                         -0.2383184              -6.4850
       129                         -0.2292309              -6.2377
       130                         -0.2287904              -6.2257
       131                         -0.2259590              -6.1487
       132                         -0.2223147              -6.0495
       133                         -0.2186421              -5.9496
       ...                                ...                  ...
       237                          1.1665634              31.7438
      -------------------------------------------------------------
                  HL-Gap            0.0148901 Eh            0.4052 eV

     #   Z          covCN         q      C6AA      α(0)
     1   7 N        0.911    -0.364    29.377     7.839
     2   6 C        1.903     0.098    28.661     8.646
     3   6 C        2.959    -0.060    29.478     8.905
     4   6 C        2.944     0.110    25.571     8.294
     5   6 C        2.982     0.001    28.010     8.681
     6   6 C        2.922    -0.029    28.733     8.790
     7   6 C        2.919    -0.028    28.695     8.784
     8   6 C        2.920    -0.028    28.711     8.787
     9   6 C        2.918    -0.029    28.714     8.787
    10   6 C        2.925    -0.028    28.708     8.787
    11   7 N        1.851    -0.246    27.280     7.741
    12   6 C        2.903     0.144    24.872     8.177
    13   6 C        2.977    -0.008    28.225     8.715
    14   6 C        2.922    -0.039    28.975     8.827
    15   6 C        2.915    -0.041    29.025     8.834
    16   6 C        2.915     0.045    26.990     8.519
    17   7 N        2.801    -0.011    21.470     6.882
    18   6 C        3.080     0.045    26.904     8.504
    19   6 C        2.910    -0.041    29.013     8.832
    20   6 C        2.924    -0.030    28.743     8.792
    21   6 C        2.919    -0.035    28.864     8.810
    22   6 C        2.912    -0.028    28.694     8.784
    23   6 C        3.060    -0.012    28.260     8.718
    24   6 C        3.068    -0.014    28.283     8.720
    25   6 C        2.913    -0.031    28.777     8.797
    26   6 C        2.912    -0.045    29.110     8.847
    27   6 C        3.082     0.044    26.928     8.507
    28   6 C        3.050    -0.033    28.780     8.798
    29   6 C        3.063    -0.008    28.163     8.702
    30   6 C        2.912    -0.035    28.870     8.811
    31   6 C        2.919    -0.033    28.825     8.804
    32   6 C        2.922    -0.030    28.737     8.791
    33   6 C        2.909    -0.047    29.156     8.854
    34   6 C        3.082     0.049    26.816     8.489
    35   7 N        2.803    -0.017    21.575     6.899
    36   6 C        2.914     0.061    26.633     8.463
    37   6 C        2.921    -0.039    28.958     8.825
    38   6 C        2.920    -0.025    28.630     8.774
    39   6 C        2.919    -0.028    28.702     8.785
    40   6 C        2.920    -0.025    28.633     8.775
    41   6 C        2.922    -0.039    28.965     8.826
    42   6 C        3.057     0.050    26.822     8.493
    43   6 C        2.916    -0.037    28.931     8.820
    44   6 C        2.922    -0.038    28.935     8.821
    45   7 N        1.851    -0.246    27.262     7.738
    46   6 C        2.944     0.110    25.576     8.294
    47   6 C        2.982     0.000    28.014     8.682
    48   6 C        2.922    -0.029    28.732     8.790
    49   6 C        2.919    -0.028    28.694     8.784
    50   6 C        2.920    -0.028    28.711     8.787
    51   6 C        2.918    -0.029    28.714     8.787
    52   6 C        2.925    -0.028    28.712     8.787
    53   1 H        0.926     0.026     2.650     2.546
    54   1 H        0.926     0.039     2.465     2.455
    55   1 H        0.926     0.043     2.406     2.426
    56   1 H        0.926     0.044     2.397     2.421
    57   1 H        0.926     0.042     2.424     2.435
    58   1 H        0.926     0.042     2.417     2.431
    59   1 H        0.926     0.043     2.408     2.427
    60   1 H        0.926     0.041     2.429     2.437
    61   1 H        0.926     0.041     2.436     2.441
    62   1 H        0.926     0.041     2.437     2.441
    63   1 H        0.926     0.045     2.385     2.415
    64   1 H        0.926     0.052     2.294     2.369
    65   1 H        0.926     0.051     2.310     2.377
    66   1 H        0.926     0.039     2.467     2.456
    67   1 H        0.926     0.032     2.560     2.502
    68   1 H        0.926     0.039     2.458     2.452
    69   1 H        0.926     0.043     2.410     2.428
    70   1 H        0.926     0.048     2.348     2.396
    71   1 H        0.926     0.046     2.367     2.406
    72   1 H        0.926     0.045     2.381     2.413
    73   1 H        0.926     0.047     2.359     2.402
    74   1 H        0.926     0.048     2.341     2.392
    75   1 H        0.926     0.039     2.458     2.451
    76   1 H        0.926     0.043     2.409     2.427
    77   1 H        0.926     0.026     2.648     2.545
    78   1 H        0.926     0.039     2.465     2.455
    79   1 H        0.926     0.043     2.408     2.427
    80   1 H        0.926     0.044     2.400     2.423
    81   1 H        0.926     0.042     2.425     2.435

molecular dipole:
                 x           y           z       tot (Debye)
 q only:        7.393      -0.784       0.188
   full:        7.218      -0.768       0.248      18.461

 projected vibrational frequencies (cm⁻¹)
eigval :       -0.00    -0.00    -0.00     0.00     0.00     0.00
eigval :        8.74    11.50    19.06    27.02    29.38    35.40
eigval :       37.97    41.53    42.20    58.65    61.58    65.87
eigval :       70.01    79.99    92.95    96.74   110.22   125.44
eigval :      129.59   136.91   147.60   156.13   160.67   190.55
eigval :      213.47   216.55   223.61   230.98   232.97   237.63
eigval :      248.21   261.21   277.84   293.89   306.18   321.72
eigval :      331.93   356.60   371.17   372.60   374.50   379.32
eigval :      380.68   383.50   393.29   400.65   417.23   423.65
eigval :      428.26   442.49   449.15   465.19   471.16   475.44
eigval :      479.14   495.29   515.78   535.99   550.42   554.72
eigval :      568.90   573.03   573.75   584.07   587.68   588.02
eigval :      591.22   594.55   596.25   605.61   609.78   614.29
eigval :      627.68   644.29   652.83   663.99   668.87   670.58
eigval :      674.52   676.04   681.28   686.74   702.11   709.93
eigval :      717.04   752.41   756.92   758.06   768.21   774.61
eigval :      775.04   805.13   814.42   824.63   829.85   837.84
eigval :      848.20   868.53   869.56   870.14   872.12   876.64
eigval :      880.77   890.06   898.09   898.38   902.28   905.53
eigval :      906.89   910.58   914.20   916.10   922.14   923.91
eigval :      925.00   926.12   926.72   926.94   927.37   933.13
eigval :      936.02   958.08   975.55   985.60   997.74  1005.10
eigval :     1008.77  1043.35  1066.64  1068.81  1076.47  1080.71
eigval :     1081.36  1082.09  1096.34  1104.31  1116.61  1119.46
eigval :     1124.16  1124.68  1135.47  1139.67  1148.57  1162.48
eigval :     1172.58  1177.23  1177.76  1178.66  1179.11  1179.32
eigval :     1187.89  1195.51  1197.53  1202.11  1217.00  1229.09
eigval :     1246.79  1254.25  1262.00  1270.70  1276.88  1277.22
eigval :     1279.84  1282.16  1292.11  1297.55  1314.57  1321.08
eigval :     1322.53  1325.38  1326.95  1330.46  1341.40  1351.31
eigval :     1356.97  1381.67  1387.69  1393.44  1411.14  1419.20
eigval :     1424.13  1424.62  1426.47  1431.75  1444.19  1453.15
eigval :     1458.84  1463.88  1468.31  1471.45  1477.72  1480.82
eigval :     1500.43  1523.83  1536.35  1553.85  1560.01  1572.45
eigval :     1572.76  1573.44  1577.53  1580.15  1583.53  1586.06
eigval :     1587.06  1590.09  1593.64  2243.95  3073.93  3074.33
eigval :     3075.72  3076.14  3079.49  3079.71  3081.36  3081.47
eigval :     3082.22  3083.44  3083.57  3083.84  3087.66  3088.15
eigval :     3088.30  3088.84  3090.65  3094.41  3094.44  3094.80
eigval :     3095.31  3096.55  3098.35  3098.53  3099.25  3100.59
eigval :     3100.76  3108.57  3141.14

   temp. (K)  partition function   enthalpy   heat capacity  entropy
                                   cal/mol     cal/K/mol   cal/K/mol   J/K/mol
 298.15  VIB  0.657E+19            23996.332    150.881    149.553
         ROT  0.122E+09              888.752      2.981     39.977
         INT  0.799E+27            24885.084    153.861    189.530
         TR   0.165E+29             1481.254      4.968     45.339
         TOT                       26366.3383   158.8296   234.8689   982.6916

       T/K    H(0)-H(T)+PV         H(T)/Eh          T*S/Eh         G(T)/Eh
   ------------------------------------------------------------------------
    298.15    0.420174E-01    0.648203E+00    0.111594E+00    0.536610E+00
   ------------------------------------------------------------------------

         :::::::::::::::::::::::::::::::::::::::::::::::::::::
         ::                  THERMODYNAMIC                  ::
         :::::::::::::::::::::::::::::::::::::::::::::::::::::
         :: total free energy        -129.535325234959 Eh   ::
         ::.................................................::
         :: total energy             -130.071934737476 Eh   ::
         :: zero point energy           0.606185880618 Eh   ::
         :: G(RRHO) w/o ZPVE           -0.069576378101 Eh   ::
         :: G(RRHO) contrib.            0.536609502517 Eh   ::
         :::::::::::::::::::::::::::::::::::::::::::::::::::::

           -------------------------------------------------
          | TOTAL ENERGY             -130.071934737476 Eh   |
          | TOTAL ENTHALPY           -129.423731422311 Eh   |
          | TOTAL FREE ENERGY        -129.535325234959 Eh   |
          | GRADIENT NORM               0.000042475958 Eh/α |
          | HOMO-LUMO GAP               0.405180431450 eV   |
           -------------------------------------------------

 * finished run on 2025/09/08 at 15:19:47.581
