   * xtb version 6.7.1 (edcfbbe) compiled by 'albert@albert-system' on 2024-07-22

   ID    Z sym.   atoms
    1    7 N      1, 11, 17, 35, 45
    2    6 C      2-10, 12-16, 18-34, 36-44, 46-52
    3    1 H      53-81

          program call               : xtb data2507/toluene/2PyCNICz/2PyCNICz_toluene_S0_crest.xyz --gfn 2 --gbsa toluene --ohess vtight --parallel 40 --molden --ceasefiles --namespace data2507/toluene/2PyCNICz/2PyCNICz_toluene_S0_finalOpt
      * Solvation model:               GBSA
        Solvent                        toluene
        Solvent mass                       9.2140E+01 g/mol
          :  Hamiltonian                  GFN2-xTB          :
 * total energy  :  -130.1425496 Eh     change       -0.2487837E-08 Eh
 * total energy  :  -130.1425891 Eh     change       -0.3948660E-04 Eh
 * total energy  :  -130.1426074 Eh     change       -0.1834231E-04 Eh
 * total energy  :  -130.1425893 Eh     change        0.1808197E-04 Eh
 * total energy  :  -130.1426128 Eh     change       -0.2344454E-04 Eh
 * total energy  :  -130.1426221 Eh     change       -0.9348054E-05 Eh
 * total energy  :  -130.1426284 Eh     change       -0.6289742E-05 Eh
 * total energy  :  -130.1426384 Eh     change       -0.9981604E-05 Eh
 * total energy  :  -130.1426451 Eh     change       -0.6694792E-05 Eh
 * total energy  :  -130.1426502 Eh     change       -0.5077145E-05 Eh
 * total energy  :  -130.1427040 Eh     change       -0.1154594E-05 Eh
 * total energy  :  -130.1427051 Eh     change       -0.1029460E-05 Eh
 * total energy  :  -130.1427061 Eh     change       -0.9959287E-06 Eh
 * total energy  :  -130.1427071 Eh     change       -0.1037962E-05 Eh
 * total energy  :  -130.1427082 Eh     change       -0.1138747E-05 Eh
 * total energy  :  -130.1427095 Eh     change       -0.1254703E-05 Eh
 * total energy  :  -130.1427108 Eh     change       -0.1275466E-05 Eh
 * total energy  :  -130.1427120 Eh     change       -0.1259597E-05 Eh
 * total energy  :  -130.1427120 Eh     change       -0.4201553E-08 Eh
   *** GEOMETRY OPTIMIZATION CONVERGED AFTER 44 ITERATIONS ***

 final structure:
================
81
 xtb: 6.7.1 (edcfbbe)
N           -7.65062952370022        1.98799525768906        0.56661541068379
C           -6.68871464869383        1.43089122943345        0.26978745089057
C           -5.47838691050071        0.78326128232817       -0.01948507588600
C           -5.15942057578475       -0.47251127103180        0.54411031752336
C           -6.13789709402353       -1.27715716920493        1.28234587071819
C           -5.71782511564566       -2.00164912093750        2.39722899485386
C           -6.62007419651785       -2.76689637675571        3.11036941440553
C           -7.94551289880942       -2.83109238674296        2.70967884162440
C           -8.36432475784289       -2.13269636426527        1.58868149484403
C           -7.46814732731551       -1.35681192404247        0.87666458462413
N           -3.93948216204501       -0.97241020278871        0.43555462037659
C           -3.01936818456950       -0.27972288059191       -0.23307046692169
C           -1.66786610034833       -0.82178646968071       -0.29090813510702
C           -0.67099847079297       -0.15882009403643       -1.01044748503473
C            0.61025894191471       -0.66219870838773       -1.04998739346935
C            0.92247419531643       -1.84057905896545       -0.36854568541913
N            2.21669153282468       -2.36326682456078       -0.43490018555385
C            2.50599695636880       -3.61243589781597       -0.96681944282301
C            1.65156397714612       -4.65137007272939       -1.30295043601044
C            2.20768957822798       -5.79505339653780       -1.84645911012657
C            3.57900481760620       -5.90328886796901       -2.06439917407361
C            4.43016294671342       -4.85977024232478       -1.75876894071553
C            3.89366468509717       -3.70211135995186       -1.20922513678410
C            4.46227946839732       -2.44446844732070       -0.81364282618156
C            5.77300648710183       -1.96893708981445       -0.85784942580272
C            6.04452652821965       -0.68855550523828       -0.43501856910210
C            5.00272237729243        0.07922266902678        0.08683865612522
C            3.67218273550758       -0.39276668489199        0.21730631655369
C            2.95387496765735        0.62076488643762        0.94403488447893
C            1.67650607911505        0.71971645360286        1.48951685958534
C            1.31501559168987        1.87730394512313        2.14913298462266
C            2.20270795873430        2.94276053642642        2.28068447897636
C            3.49264887107221        2.85415694153269        1.79734113527024
C            3.87016402864448        1.68042949963487        1.15965064857963
N            5.09493050719009        1.34106045437417        0.63222341794910
C            6.25227432664197        2.13882727457408        0.66244232612745
C            6.93981291887141        2.41351834404160       -0.51585905469892
C            8.07582327402164        3.20185533421635       -0.48395261950618
C            8.52778056754956        3.72723876766178        0.71565787424202
C            7.84328481395410        3.45514969654851        1.88893289658322
C            6.71213023147073        2.65922025713885        1.86813755745200
C            3.39808388937162       -1.65199163626915       -0.32761666163293
C           -0.07226856265231       -2.50979406015924        0.34525397659043
C           -1.35375079274135       -2.00368264965045        0.38338515419445
N           -3.25569948650359        0.87016132645301       -0.86083922858987
C           -4.46156983921199        1.40777850631810       -0.77627411090046
C           -4.66942256939158        2.67260104448316       -1.48765655910887
C           -3.62215047103359        3.59103875580818       -1.55639152163967
C           -3.79221997105139        4.79175421795283       -2.21789884737153
C           -5.00087703989771        5.08196363361430       -2.83149383923047
C           -6.03745638105358        4.16363617639116       -2.78730240007254
C           -5.87647786340117        2.96360963764059       -2.11938631017554
H           -4.68291173157209       -1.94017968946422        2.69767053238165
H           -6.28953431116687       -3.31539423606923        3.97973465687683
H           -8.65065103036684       -3.43003889110987        3.26621075033691
H           -9.39254607148619       -2.19191361335019        1.26463737244120
H           -7.79722636790113       -0.83151409636797       -0.00833897375719
H           -0.92462853543290        0.74659233348891       -1.53843157600042
H            1.38224783238780       -0.15195572841417       -1.60546148804005
H            0.58474706461257       -4.57373614993030       -1.15940950229403
H            1.56273352350563       -6.62016853987870       -2.11130983777968
H            3.97649238666201       -6.81393117105683       -2.48830216440877
H            5.49085945939524       -4.93654251472863       -1.94530187171125
H            6.56251658813110       -2.60305004713686       -1.23040148402420
H            7.04687892519612       -0.29118883709806       -0.47242681886711
H            0.97608030794553       -0.09523428866677        1.42027191757808
H            0.32332513496709        1.95858934277297        2.57058017025148
H            1.88243864926762        3.84384645982675        2.78307550141852
H            4.18868154415640        3.67099470210629        1.91418352772848
H            6.57373068681219        2.01534319662984       -1.45068821190391
H            8.60560703160251        3.41252864962495       -1.40130855970277
H            9.41194539153700        4.34660086593412        0.73640495187065
H            8.19570612982370        3.85770484516354        2.82717666323446
H            6.18590522735647        2.42861055749554        2.78258446649174
H            0.17615976043247       -3.40947142125634        0.88761049196628
H           -2.12925724832313       -2.50746903109991        0.93858892196556
H           -2.68748933660558        3.35130835915104       -1.07243683363714
H           -2.98026093983054        5.50240831278868       -2.25668403706983
H           -5.13378096359572        6.02039327108542       -3.34859661030164
H           -6.97567879566583        4.37930557078417       -3.27609261893196
H           -6.68190591015379        2.24355250280117       -2.10847529274654

          :  Hamiltonian                  GFN2-xTB          :
         :: gradient norm              0.000129962624 Eh/a0 ::
         :: HOMO-LUMO gap              1.426035288361 eV    ::
         :: SCC energy              -132.599171606612 Eh    ::
         :: -> dispersion             -0.117992400665 Eh    ::
         :: -> Gsolv                  -0.058005136251 Eh    ::
         :: repulsion energy           2.456459578583 Eh    ::

    * Orbital Energies and Occupations

         #    Occupation            Energy/Eh            Energy/eV
      -------------------------------------------------------------
         1        2.0000           -0.6964530             -18.9515
       ...           ...                  ...                  ...
       109        2.0000           -0.4185637             -11.3897
       110        2.0000           -0.4175517             -11.3622
       111        2.0000           -0.4162499             -11.3267
       112        2.0000           -0.4151696             -11.2973
       113        2.0000           -0.4126345             -11.2284
       114        2.0000           -0.4116762             -11.2023
       115        2.0000           -0.4093011             -11.1376
       116        2.0000           -0.4067942             -11.0694
       117        2.0000           -0.3935159             -10.7081
       118        2.0000           -0.3853925             -10.4871
       119        2.0000           -0.3807095             -10.3596
       120        2.0000           -0.3628508              -9.8737
       121        2.0000           -0.3571978              -9.7198 (HOMO)
       122                         -0.3047919              -8.2938 (LUMO)
       123                         -0.2919581              -7.9446
       124                         -0.2560721              -6.9681
       125                         -0.2488951              -6.7728
       126                         -0.2391303              -6.5071
       127                         -0.2381361              -6.4800
       128                         -0.2369123              -6.4467
       129                         -0.2361855              -6.4269
       130                         -0.2325491              -6.3280
       131                         -0.2315003              -6.2994
       132                         -0.2248470              -6.1184
       ...                                ...                  ...
       237                          1.1493884              31.2764
      -------------------------------------------------------------
                  HL-Gap            0.0524058 Eh            1.4260 eV

     #   Z          covCN         q      C6AA      α(0)
     1   7 N        0.911    -0.284    27.323     7.560
     2   6 C        1.905     0.115    28.265     8.586
     3   6 C        2.963    -0.029    28.717     8.790
     4   6 C        2.968     0.121    25.329     8.255
     5   6 C        2.981    -0.002    28.059     8.689
     6   6 C        2.925    -0.023    28.587     8.768
     7   6 C        2.918    -0.025    28.638     8.776
     8   6 C        2.920    -0.022    28.565     8.764
     9   6 C        2.919    -0.025    28.636     8.775
    10   6 C        2.922    -0.027    28.674     8.781
    11   7 N        1.850    -0.283    28.187     7.869
    12   6 C        2.939     0.193    23.894     8.017
    13   6 C        2.984    -0.007    28.183     8.708
    14   6 C        2.922    -0.023    28.587     8.768
    15   6 C        2.920    -0.036    28.890     8.814
    16   6 C        2.915     0.076    26.306     8.410
    17   7 N        2.802    -0.041    22.032     6.971
    18   6 C        3.072     0.044    26.935     8.510
    19   6 C        2.910    -0.052    29.287     8.874
    20   6 C        2.924    -0.036    28.899     8.816
    21   6 C        2.920    -0.041    29.025     8.835
    22   6 C        2.913    -0.036    28.896     8.815
    23   6 C        3.066    -0.015    28.320     8.726
    24   6 C        3.067    -0.028    28.631     8.774
    25   6 C        2.916    -0.037    28.925     8.819
    26   6 C        2.911    -0.061    29.505     8.907
    27   6 C        3.081     0.044    26.921     8.506
    28   6 C        3.052    -0.038    28.888     8.815
    29   6 C        3.062    -0.018    28.392     8.738
    30   6 C        2.913    -0.040    28.984     8.828
    31   6 C        2.919    -0.043    29.070     8.842
    32   6 C        2.923    -0.036    28.886     8.814
    33   6 C        2.910    -0.052    29.292     8.875
    34   6 C        3.080     0.046    26.879     8.500
    35   7 N        2.802    -0.042    22.055     6.975
    36   6 C        2.913     0.064    26.568     8.452
    37   6 C        2.922    -0.041    29.020     8.834
    38   6 C        2.920    -0.028    28.694     8.784
    39   6 C        2.919    -0.032    28.800     8.800
    40   6 C        2.920    -0.028    28.693     8.784
    41   6 C        2.922    -0.041    29.023     8.835
    42   6 C        3.057     0.042    26.994     8.520
    43   6 C        2.919    -0.041    29.015     8.833
    44   6 C        2.923    -0.025    28.634     8.775
    45   7 N        1.850    -0.283    28.177     7.867
    46   6 C        2.967     0.121    25.329     8.255
    47   6 C        2.981    -0.002    28.061     8.689
    48   6 C        2.925    -0.023    28.584     8.768
    49   6 C        2.918    -0.025    28.637     8.775
    50   6 C        2.920    -0.022    28.562     8.764
    51   6 C        2.919    -0.025    28.638     8.776
    52   6 C        2.922    -0.027    28.678     8.782
    53   1 H        0.926     0.048     2.340     2.392
    54   1 H        0.926     0.050     2.323     2.384
    55   1 H        0.926     0.050     2.320     2.382
    56   1 H        0.926     0.046     2.367     2.406
    57   1 H        0.926     0.029     2.596     2.520
    58   1 H        0.926     0.061     2.191     2.315
    59   1 H        0.926     0.052     2.299     2.371
    60   1 H        0.926     0.031     2.575     2.510
    61   1 H        0.926     0.030     2.580     2.512
    62   1 H        0.926     0.029     2.603     2.523
    63   1 H        0.926     0.031     2.567     2.505
    64   1 H        0.926     0.035     2.522     2.483
    65   1 H        0.926     0.032     2.559     2.502
    66   1 H        0.926     0.024     2.668     2.555
    67   1 H        0.926     0.021     2.719     2.578
    68   1 H        0.926     0.029     2.603     2.523
    69   1 H        0.926     0.031     2.571     2.508
    70   1 H        0.926     0.043     2.414     2.430
    71   1 H        0.926     0.041     2.432     2.439
    72   1 H        0.926     0.040     2.448     2.447
    73   1 H        0.926     0.041     2.439     2.442
    74   1 H        0.926     0.042     2.425     2.435
    75   1 H        0.926     0.056     2.250     2.346
    76   1 H        0.926     0.061     2.187     2.312
    77   1 H        0.926     0.049     2.330     2.387
    78   1 H        0.926     0.050     2.325     2.384
    79   1 H        0.926     0.050     2.319     2.381
    80   1 H        0.926     0.046     2.366     2.406
    81   1 H        0.926     0.030     2.591     2.517

molecular dipole:
                 x           y           z       tot (Debye)
 q only:        1.804       0.038      -0.163
   full:        1.698       0.063      -0.235       4.361

 projected vibrational frequencies (cm⁻¹)
eigval :       -0.00    -0.00     0.00     0.00     0.00     0.00
eigval :        6.77    11.59    17.17    26.74    30.54    36.24
eigval :       41.15    42.49    45.08    58.81    60.09    65.73
eigval :       74.04    81.67    89.28    96.34   111.74   127.08
eigval :      129.28   133.68   152.21   159.56   164.47   198.39
eigval :      214.79   216.66   225.83   230.20   233.51   236.13
eigval :      243.98   261.39   272.30   298.20   308.58   321.56
eigval :      337.12   354.26   370.60   373.20   376.65   379.70
eigval :      381.20   383.63   390.32   408.66   419.25   426.75
eigval :      438.58   449.63   453.55   472.65   479.10   490.69
eigval :      501.20   517.25   526.59   536.40   553.68   559.93
eigval :      577.24   582.85   583.84   586.60   590.79   595.78
eigval :      598.12   607.92   613.69   616.38   625.07   632.35
eigval :      639.91   647.50   667.45   671.88   673.51   675.63
eigval :      680.16   687.34   699.07   701.88   707.09   726.51
eigval :      748.58   759.41   766.10   769.28   772.75   774.29
eigval :      775.23   817.02   828.02   832.05   841.35   866.51
eigval :      870.14   872.61   873.49   875.74   877.68   880.45
eigval :      881.97   893.68   901.98   903.44   905.94   907.01
eigval :      908.63   915.69   920.99   922.76   924.75   927.43
eigval :      929.98   931.85   931.92   932.15   933.07   935.57
eigval :      936.45   970.25   985.27   987.74  1006.71  1012.56
eigval :     1064.97  1070.99  1073.14  1078.41  1080.81  1082.99
eigval :     1085.30  1101.81  1116.23  1119.36  1120.43  1124.47
eigval :     1139.38  1144.59  1151.60  1170.16  1176.13  1177.42
eigval :     1177.75  1178.20  1179.81  1180.45  1182.96  1189.30
eigval :     1196.78  1197.82  1206.39  1224.22  1239.53  1245.54
eigval :     1251.65  1253.59  1261.98  1273.56  1277.22  1280.04
eigval :     1286.63  1308.13  1310.82  1315.18  1320.62  1320.97
eigval :     1324.99  1344.10  1358.27  1361.47  1362.39  1373.46
eigval :     1383.10  1386.01  1394.47  1403.27  1411.18  1424.88
eigval :     1427.41  1428.45  1432.90  1433.60  1463.77  1471.49
eigval :     1473.59  1476.27  1477.92  1480.45  1481.85  1489.38
eigval :     1500.33  1556.61  1567.64  1573.80  1579.04  1579.22
eigval :     1581.82  1585.09  1588.19  1592.79  1592.81  1593.11
eigval :     1595.14  1604.56  1606.34  2332.03  3069.52  3072.15
eigval :     3076.27  3076.38  3077.38  3078.28  3078.76  3079.33
eigval :     3081.29  3081.49  3086.70  3087.05  3087.45  3087.79
eigval :     3088.73  3090.39  3091.66  3093.99  3094.77  3095.07
eigval :     3095.11  3096.05  3096.95  3100.02  3100.10  3100.33
eigval :     3109.46  3111.50  3127.14

   temp. (K)  partition function   enthalpy   heat capacity  entropy
                                   cal/mol     cal/K/mol   cal/K/mol   J/K/mol
 298.15  VIB  0.590E+19            23752.196    149.300    148.587
         ROT  0.121E+09              888.752      2.981     39.961
         INT  0.712E+27            24640.949    152.281    188.548
         TR   0.165E+29             1481.254      4.968     45.339
         TOT                       26122.2025   157.2495   233.8869   978.5828

       T/K    H(0)-H(T)+PV         H(T)/Eh          T*S/Eh         G(T)/Eh
   ------------------------------------------------------------------------
    298.15    0.416284E-01    0.651819E+00    0.111127E+00    0.540691E+00
   ------------------------------------------------------------------------

         :::::::::::::::::::::::::::::::::::::::::::::::::::::
         ::                  THERMODYNAMIC                  ::
         :::::::::::::::::::::::::::::::::::::::::::::::::::::
         :: total free energy        -129.602020593850 Eh   ::
         ::.................................................::
         :: total energy             -130.142712025640 Eh   ::
         :: zero point energy           0.610190263048 Eh   ::
         :: G(RRHO) w/o ZPVE           -0.069498831258 Eh   ::
         :: G(RRHO) contrib.            0.540691431790 Eh   ::
         :::::::::::::::::::::::::::::::::::::::::::::::::::::

           -------------------------------------------------
          | TOTAL ENERGY             -130.142712025640 Eh   |
          | TOTAL ENTHALPY           -129.490893383124 Eh   |
          | TOTAL FREE ENERGY        -129.602020593850 Eh   |
          | GRADIENT NORM               0.000130701354 Eh/α |
          | HOMO-LUMO GAP               1.426034504962 eV   |
           -------------------------------------------------

 * finished run on 2025/09/08 at 15:11:21.818
