   * xtb version 6.7.1 (edcfbbe) compiled by 'albert@albert-system' on 2024-07-22

   ID    Z sym.   atoms
    1    7 N      1, 11, 17, 35, 45
    2    6 C      2-10, 12-16, 18-34, 36-44, 46-52
    3    1 H      53-81

          program call               : xtb data2507/toluene/2PyCNICz/2PyCNICz_toluene_S0_finalOpt.xtbopt.xyz --gfn 2 --uhf 2 --gbsa toluene --ohess vtight --parallel 40 --molden --ceasefiles --namespace data2507/toluene/2PyCNICz/2PyCNICz_toluene_T1_preOpt
      * Solvation model:               GBSA
        Solvent                        toluene
        Solvent mass                       9.2140E+01 g/mol
          :  Hamiltonian                  GFN2-xTB          :
 * total energy  :  -130.0666738 Eh     change       -0.3252222E-07 Eh
 * total energy  :  -130.0701041 Eh     change       -0.3430245E-02 Eh
 * total energy  :  -130.0716300 Eh     change       -0.1525952E-02 Eh
 * total energy  :  -130.0717274 Eh     change       -0.9736787E-04 Eh
 * total energy  :  -130.0717864 Eh     change       -0.5896227E-04 Eh
 * total energy  :  -130.0718056 Eh     change       -0.1923361E-04 Eh
 * total energy  :  -130.0718200 Eh     change       -0.1436717E-04 Eh
 * total energy  :  -130.0718367 Eh     change       -0.1667728E-04 Eh
 * total energy  :  -130.0718415 Eh     change       -0.4836841E-05 Eh
 * total energy  :  -130.0718472 Eh     change       -0.5727266E-05 Eh
 * total energy  :  -130.0718954 Eh     change       -0.7080523E-06 Eh
 * total energy  :  -130.0718962 Eh     change       -0.7439951E-06 Eh
 * total energy  :  -130.0718972 Eh     change       -0.9837319E-06 Eh
 * total energy  :  -130.0718985 Eh     change       -0.1357186E-05 Eh
 * total energy  :  -130.0719000 Eh     change       -0.1471731E-05 Eh
 * total energy  :  -130.0719011 Eh     change       -0.1129511E-05 Eh
 * total energy  :  -130.0719018 Eh     change       -0.6683627E-06 Eh
 * total energy  :  -130.0719022 Eh     change       -0.4190463E-06 Eh
 * total energy  :  -130.0719022 Eh     change       -0.4098155E-08 Eh
   *** GEOMETRY OPTIMIZATION CONVERGED AFTER 44 ITERATIONS ***

 final structure:
================
81
 xtb: 6.7.1 (edcfbbe)
N           -7.71042893100361        1.97441042085582        0.58273698222491
C           -6.72555372603387        1.42634381186739        0.30343675620569
C           -5.53647405069349        0.79340268444859        0.01107256830739
C           -5.16117393184966       -0.46535226314023        0.59777337070776
C           -6.12415763596118       -1.27754379879950        1.34811265082988
C           -5.68463264723517       -2.00681615847178        2.45408120838091
C           -6.56951342186408       -2.78467279115849        3.17404964152654
C           -7.90159837619056       -2.85474739151566        2.79637470373207
C           -8.34114001066035       -2.14909353040564        1.68789164552287
C           -7.46160244929890       -1.36317930500616        0.96668763728956
N           -3.94878851501331       -0.92145448475453        0.49415358850163
C           -2.99706009007040       -0.26989086321282       -0.21020252801812
C           -1.67853823751048       -0.79462871586517       -0.29284723342063
C           -0.69032852536664       -0.14556090424927       -1.06150833664726
C            0.58762660460320       -0.63849297221631       -1.12235154720788
C            0.93059285183241       -1.79739133424941       -0.41519137653112
N            2.23303477645127       -2.31348734815972       -0.51134470186110
C            2.51454884275261       -3.56140973245763       -1.05231759291708
C            1.64692696862484       -4.57699692862337       -1.41718856016945
C            2.19664854243233       -5.73180905847801       -1.95360727591072
C            3.56864202596668       -5.86499993974117       -2.13449327146771
C            4.43637918027707       -4.83980535965522       -1.79469012588125
C            3.90711580154550       -3.67842234072161       -1.25109809299534
C            4.48464456442969       -2.43460668103300       -0.82027567871997
C            5.79465149297464       -1.97445437694203       -0.83130199444424
C            6.06968725428893       -0.69554694926121       -0.38535076954632
C            5.02357714910999        0.08022916852856        0.11396709661691
C            3.68442374863176       -0.37473193188070        0.21110929935974
C            2.96464829114233        0.64143064409576        0.92721096068801
C            1.67416906748725        0.75638530475524        1.43931684586074
C            1.31719047075393        1.91464733976498        2.09818393687466
C            2.21995797062025        2.96753693527898        2.26396294678818
C            3.51768185355864        2.86601471034332        1.81204461883881
C            3.89360261071077        1.68895759455024        1.17230569802391
N            5.12028620235433        1.33703194867992        0.67225216662974
C            6.28780186766185        2.11953376727699        0.72613684887946
C            7.00011714101039        2.38463645833871       -0.43990771007101
C            8.14451290374486        3.15937875951269       -0.38533608410218
C            8.58085912150871        3.67616561044033        0.82404298668105
C            7.87178001386669        3.41145864925427        1.98467307664305
C            6.72978560217672        2.63214311344452        1.94197411456865
C            3.40483084908980       -1.63086196004906       -0.34649928364568
C           -0.04200220386290       -2.46085683713132        0.33999383369343
C           -1.32197251454409       -1.96908914685744        0.40108042139914
N           -3.31410320350881        0.87430865144941       -0.85447053551814
C           -4.50021241405984        1.40031058671704       -0.78100732066661
C           -4.73119327915216        2.63850395738264       -1.53142774180041
C           -3.68459389908221        3.55298525307705       -1.66443586440786
C           -3.87030974723239        4.73069063859298       -2.36057472617354
C           -5.09695458608126        5.00886546609289       -2.94370729472277
C           -6.13422891098628        4.09689653410485       -2.83328021053887
C           -5.95667353629866        2.91819567047392       -2.13264917915693
H           -4.64589267027836       -1.94092730921703        2.74161741958951
H           -6.22057498999890       -3.33719243232220        4.03415086948563
H           -8.59462712368416       -3.46026426204513        3.36121657201942
H           -9.37497146036494       -2.20890970230128        1.38084254812491
H           -7.81038754655072       -0.82774474034504        0.09567829996394
H           -0.96833011900675        0.74245936574618       -1.60776751525826
H            1.33934074382588       -0.14314074355012       -1.71895664724822
H            0.57958026990001       -4.47423191244743       -1.29729860976471
H            1.54237304246949       -6.54151181871207       -2.24025052598870
H            3.96055779748218       -6.77942441641327       -2.55400067200838
H            5.49937115020559       -4.94014158694016       -1.95118109613608
H            6.58749629280998       -2.60952459276495       -1.19293943222498
H            7.07763594978935       -0.31205309007689       -0.39125426452387
H            0.96069787283698       -0.04253675782469        1.33639676659391
H            0.31566810071708        2.01102240014884        2.49087513374420
H            1.89744644546505        3.86813160843522        2.76466361428980
H            4.22173231673800        3.67211233437267        1.94884894972773
H            6.64414584555519        1.99601807517880       -1.38240262006473
H            8.69308349647664        3.36589638197149       -1.29215251831156
H            9.47224794357436        4.28383107979350        0.86219040068875
H            8.21268609447386        3.80732325006214        2.92962290783899
H            6.18475822824458        2.40566813566960        2.84608586644138
H            0.23130694469464       -3.34603971283677        0.89563986280135
H           -2.07907138443949       -2.46714878576679        0.98712453327276
H           -2.73522264998712        3.32758597585464       -1.20172111412083
H           -3.05643175762659        5.43546124860216       -2.44824381470415
H           -5.24390846302085        5.93159606194110       -3.48496957121307
H           -7.08888563611951        4.30152083100365       -3.29520840867446
H           -6.76738785600546        2.20763774786823       -2.06471487836632

          :  Hamiltonian                  GFN2-xTB          :
         :: gradient norm              0.000071649472 Eh/a0 ::
         :: HOMO-LUMO gap              0.403384397240 eV    ::
         :: SCC energy              -132.519421206285 Eh    ::
         :: -> dispersion             -0.117664475316 Eh    ::
         :: -> Gsolv                  -0.066149687491 Eh    ::
         :: repulsion energy           2.447518979498 Eh    ::

    * Orbital Energies and Occupations

         #    Occupation            Energy/Eh            Energy/eV
      -------------------------------------------------------------
         1        2.0000           -0.6927547             -18.8508
       ...           ...                  ...                  ...
       110        2.0000           -0.4114412             -11.1959
       111        2.0000           -0.4110429             -11.1850
       112        2.0000           -0.4106379             -11.1740
       113        2.0000           -0.4083742             -11.1124
       114        2.0000           -0.4071203             -11.0783
       115        2.0000           -0.4044411             -11.0054
       116        2.0000           -0.4002945             -10.8926
       117        2.0000           -0.3974680             -10.8157
       118        2.0000           -0.3870578             -10.5324
       119        1.9944           -0.3738681             -10.1735
       120        1.6636           -0.3695906             -10.0571
       121        1.3419           -0.3683230             -10.0226
       122        0.9996           -0.2901612              -7.8957 (HOMO)
       123        0.0004           -0.2753371              -7.4923 (LUMO)
       124                         -0.2612048              -7.1077
       125                         -0.2512729              -6.8375
       126                         -0.2443593              -6.6494
       127                         -0.2413189              -6.5666
       128                         -0.2382856              -6.4841
       129                         -0.2292266              -6.2376
       130                         -0.2287491              -6.2246
       131                         -0.2259148              -6.1475
       132                         -0.2222376              -6.0474
       133                         -0.2187765              -5.9532
       ...                                ...                  ...
       237                          1.1664647              31.7411
      -------------------------------------------------------------
                  HL-Gap            0.0148241 Eh            0.4034 eV

     #   Z          covCN         q      C6AA      α(0)
     1   7 N        0.911    -0.364    29.375     7.839
     2   6 C        1.903     0.098    28.660     8.646
     3   6 C        2.959    -0.060    29.478     8.905
     4   6 C        2.944     0.110    25.568     8.293
     5   6 C        2.982     0.000    28.012     8.682
     6   6 C        2.925    -0.028    28.709     8.787
     7   6 C        2.918    -0.029    28.713     8.787
     8   6 C        2.920    -0.028    28.709     8.787
     9   6 C        2.919    -0.028    28.693     8.784
    10   6 C        2.922    -0.029    28.729     8.790
    11   7 N        1.851    -0.246    27.275     7.740
    12   6 C        2.903     0.144    24.872     8.177
    13   6 C        2.977    -0.008    28.225     8.715
    14   6 C        2.922    -0.038    28.936     8.821
    15   6 C        2.916    -0.037    28.930     8.820
    16   6 C        2.915     0.045    26.991     8.519
    17   7 N        2.801    -0.011    21.461     6.880
    18   6 C        3.079     0.045    26.908     8.504
    19   6 C        2.910    -0.041    29.014     8.833
    20   6 C        2.924    -0.030    28.744     8.792
    21   6 C        2.919    -0.035    28.863     8.810
    22   6 C        2.912    -0.028    28.695     8.784
    23   6 C        3.060    -0.012    28.259     8.718
    24   6 C        3.068    -0.014    28.283     8.720
    25   6 C        2.913    -0.031    28.778     8.797
    26   6 C        2.912    -0.045    29.110     8.847
    27   6 C        3.083     0.044    26.928     8.507
    28   6 C        3.050    -0.033    28.780     8.798
    29   6 C        3.063    -0.008    28.163     8.702
    30   6 C        2.912    -0.035    28.866     8.810
    31   6 C        2.919    -0.033    28.826     8.804
    32   6 C        2.922    -0.030    28.737     8.791
    33   6 C        2.909    -0.047    29.156     8.854
    34   6 C        3.082     0.049    26.816     8.489
    35   7 N        2.803    -0.017    21.577     6.899
    36   6 C        2.914     0.061    26.633     8.463
    37   6 C        2.922    -0.039    28.966     8.826
    38   6 C        2.920    -0.025    28.633     8.775
    39   6 C        2.919    -0.028    28.703     8.785
    40   6 C        2.920    -0.025    28.630     8.774
    41   6 C        2.921    -0.039    28.959     8.825
    42   6 C        3.057     0.050    26.827     8.494
    43   6 C        2.915    -0.041    29.029     8.835
    44   6 C        2.922    -0.039    28.976     8.827
    45   7 N        1.851    -0.246    27.272     7.740
    46   6 C        2.944     0.110    25.579     8.295
    47   6 C        2.982     0.000    28.013     8.682
    48   6 C        2.925    -0.028    28.710     8.787
    49   6 C        2.918    -0.029    28.716     8.788
    50   6 C        2.920    -0.028    28.712     8.787
    51   6 C        2.919    -0.028    28.695     8.784
    52   6 C        2.922    -0.029    28.737     8.791
    53   1 H        0.926     0.042     2.428     2.437
    54   1 H        0.926     0.044     2.399     2.422
    55   1 H        0.926     0.043     2.406     2.426
    56   1 H        0.926     0.039     2.463     2.454
    57   1 H        0.926     0.026     2.648     2.544
    58   1 H        0.926     0.043     2.409     2.427
    59   1 H        0.926     0.039     2.456     2.451
    60   1 H        0.926     0.042     2.425     2.435
    61   1 H        0.926     0.041     2.436     2.441
    62   1 H        0.926     0.041     2.437     2.441
    63   1 H        0.926     0.045     2.385     2.415
    64   1 H        0.926     0.052     2.295     2.369
    65   1 H        0.926     0.051     2.311     2.377
    66   1 H        0.926     0.038     2.469     2.457
    67   1 H        0.926     0.032     2.559     2.502
    68   1 H        0.926     0.039     2.458     2.451
    69   1 H        0.926     0.043     2.410     2.428
    70   1 H        0.926     0.048     2.341     2.393
    71   1 H        0.926     0.047     2.360     2.402
    72   1 H        0.926     0.045     2.382     2.413
    73   1 H        0.926     0.046     2.368     2.406
    74   1 H        0.926     0.048     2.348     2.396
    75   1 H        0.926     0.043     2.406     2.426
    76   1 H        0.926     0.042     2.419     2.432
    77   1 H        0.926     0.042     2.422     2.434
    78   1 H        0.926     0.044     2.398     2.422
    79   1 H        0.926     0.043     2.408     2.427
    80   1 H        0.926     0.039     2.467     2.456
    81   1 H        0.926     0.026     2.647     2.544

molecular dipole:
                 x           y           z       tot (Debye)
 q only:        7.396      -0.843      -0.208
   full:        7.225      -0.818      -0.270      18.494

 projected vibrational frequencies (cm⁻¹)
eigval :       -0.00    -0.00     0.00     0.00     0.00     0.00
eigval :        9.64    11.30    18.01    24.62    26.60    32.11
eigval :       37.63    41.16    42.86    58.48    61.91    66.79
eigval :       72.32    78.95    92.85    96.68   111.23   125.86
eigval :      129.32   136.90   147.94   157.47   161.64   191.27
eigval :      213.57   216.37   224.37   230.59   232.99   237.37
eigval :      248.53   261.33   277.88   294.34   306.02   321.16
eigval :      331.21   356.40   372.14   374.34   374.86   378.43
eigval :      381.27   383.69   392.93   400.29   417.74   422.89
eigval :      428.18   441.88   449.26   465.43   471.21   475.38
eigval :      479.18   495.02   515.75   535.96   550.05   554.54
eigval :      569.12   573.09   573.94   584.16   587.73   588.01
eigval :      591.14   594.23   596.25   605.47   609.85   614.39
eigval :      627.11   644.36   652.86   664.07   668.92   670.50
eigval :      674.43   675.99   681.17   686.76   702.03   709.85
eigval :      716.67   752.02   755.90   757.26   767.90   773.58
eigval :      774.67   804.72   814.38   824.60   829.59   837.79
eigval :      847.61   867.94   868.64   869.52   871.44   876.55
eigval :      880.27   889.92   897.93   898.86   901.42   904.65
eigval :      906.47   910.29   913.92   916.57   921.90   922.44
eigval :      923.67   925.80   926.46   927.49   928.07   931.83
eigval :      935.80   958.17   975.27   985.54   997.74  1005.01
eigval :     1007.65  1043.40  1066.48  1068.85  1076.35  1081.11
eigval :     1081.31  1082.65  1096.10  1104.33  1116.46  1120.31
eigval :     1124.63  1124.91  1135.33  1139.29  1148.90  1162.22
eigval :     1172.12  1177.39  1177.91  1178.65  1178.96  1179.44
eigval :     1187.54  1196.68  1198.37  1201.72  1216.77  1228.92
eigval :     1246.39  1254.31  1262.08  1270.46  1276.55  1277.69
eigval :     1280.82  1282.74  1291.99  1297.51  1314.58  1320.97
eigval :     1322.46  1325.81  1327.21  1330.36  1341.29  1351.03
eigval :     1356.79  1381.66  1387.82  1393.47  1411.10  1419.48
eigval :     1424.14  1424.53  1426.46  1431.64  1444.09  1453.47
eigval :     1459.02  1463.44  1468.49  1471.40  1477.69  1480.76
eigval :     1500.02  1523.57  1536.21  1553.84  1559.81  1572.65
eigval :     1572.78  1573.34  1577.39  1580.03  1583.44  1586.27
eigval :     1586.95  1590.03  1593.74  2243.78  3074.46  3074.75
eigval :     3076.27  3076.75  3079.58  3079.99  3080.34  3081.29
eigval :     3082.30  3083.37  3084.34  3084.41  3087.17  3088.24
eigval :     3088.39  3090.07  3090.48  3094.27  3094.62  3095.04
eigval :     3095.45  3096.45  3098.19  3098.57  3099.24  3100.34
eigval :     3100.51  3108.71  3139.86

   temp. (K)  partition function   enthalpy   heat capacity  entropy
                                   cal/mol     cal/K/mol   cal/K/mol   J/K/mol
 298.15  VIB  0.800E+19            24002.711    150.812    149.562
         ROT  0.121E+09              888.752      2.981     39.974
         INT  0.972E+27            24891.463    153.793    189.536
         TR   0.165E+29             1481.254      4.968     45.339
         TOT                       26372.7171   158.7607   234.8755   982.7191

       T/K    H(0)-H(T)+PV         H(T)/Eh          T*S/Eh         G(T)/Eh
   ------------------------------------------------------------------------
    298.15    0.420276E-01    0.648179E+00    0.111597E+00    0.536582E+00
   ------------------------------------------------------------------------

         :::::::::::::::::::::::::::::::::::::::::::::::::::::
         ::                  THERMODYNAMIC                  ::
         :::::::::::::::::::::::::::::::::::::::::::::::::::::
         :: total free energy        -129.535320488248 Eh   ::
         ::.................................................::
         :: total energy             -130.071902220120 Eh   ::
         :: zero point energy           0.606151058262 Eh   ::
         :: G(RRHO) w/o ZPVE           -0.069569326390 Eh   ::
         :: G(RRHO) contrib.            0.536581731872 Eh   ::
         :::::::::::::::::::::::::::::::::::::::::::::::::::::

           -------------------------------------------------
          | TOTAL ENERGY             -130.071902220120 Eh   |
          | TOTAL ENTHALPY           -129.423723561916 Eh   |
          | TOTAL FREE ENERGY        -129.535320488248 Eh   |
          | GRADIENT NORM               0.000072312726 Eh/α |
          | HOMO-LUMO GAP               0.403384426219 eV   |
           -------------------------------------------------

 * finished run on 2025/09/08 at 15:11:30.833
