   * xtb version 6.7.1 (edcfbbe) compiled by 'albert@albert-system' on 2024-07-22

   ID    Z sym.   atoms
    1    7 N      1, 11, 17, 35, 45
    2    6 C      2-10, 12-16, 18-34, 36-44, 46-52
    3    1 H      53-81

          program call               : xtb data2507/toluene/2PyCNICz/2PyCNICz.xyz --gfn 2 --gbsa toluene --ohess vtight --parallel 40 --molden --ceasefiles --namespace data2507/toluene/2PyCNICz/2PyCNICz_toluene_S0_preOpt
      * Solvation model:               GBSA
        Solvent                        toluene
        Solvent mass                       9.2140E+01 g/mol
          :  Hamiltonian                  GFN2-xTB          :
 * total energy  :  -130.1076644 Eh     change       -0.1283951E-08 Eh
 * total energy  :  -130.1265006 Eh     change       -0.1883622E-01 Eh
 * total energy  :  -130.1321566 Eh     change       -0.5655978E-02 Eh
 * total energy  :  -130.1342044 Eh     change       -0.2047840E-02 Eh
 * total energy  :  -130.1359150 Eh     change       -0.1710512E-02 Eh
 * total energy  :  -130.1369814 Eh     change       -0.1066409E-02 Eh
 * total energy  :  -130.1377164 Eh     change       -0.7350730E-03 Eh
 * total energy  :  -130.1384093 Eh     change       -0.6928472E-03 Eh
 * total energy  :  -130.1389196 Eh     change       -0.5103409E-03 Eh
 * total energy  :  -130.1394863 Eh     change       -0.5666349E-03 Eh
 * total energy  :  -130.1417786 Eh     change       -0.5704226E-06 Eh
 * total energy  :  -130.1417792 Eh     change       -0.5824063E-06 Eh
 * total energy  :  -130.1417799 Eh     change       -0.6861761E-06 Eh
 * total energy  :  -130.1417807 Eh     change       -0.8261173E-06 Eh
 * total energy  :  -130.1417815 Eh     change       -0.7749556E-06 Eh
 * total energy  :  -130.1417819 Eh     change       -0.4259001E-06 Eh
 * total energy  :  -130.1417820 Eh     change       -0.1048645E-06 Eh
 * total energy  :  -130.1417822 Eh     change       -0.2090418E-06 Eh
 * total energy  :  -130.1417822 Eh     change       -0.1890206E-07 Eh
   *** GEOMETRY OPTIMIZATION CONVERGED AFTER 70 ITERATIONS ***

 final structure:
================
81
 xtb: 6.7.1 (edcfbbe)
N           -7.92756412887600        1.87451787722300       -0.13056199410980
C           -6.87874390660148        1.40439628577627       -0.17969520492960
C           -5.59763159351262        0.83537216039393       -0.23929095046810
C           -5.28974059816920       -0.38454314476367        0.40358012533362
C           -6.28051387908166       -1.16943712884566        1.14914714038647
C           -5.88815651165855       -1.79740485676936        2.33093088722407
C           -6.79426017515317       -2.54753990901643        3.05517816816449
C           -8.09529088203859       -2.69403567423139        2.59987785531500
C           -8.48428835981678       -2.09357457528831        1.41349214891826
C           -7.58447742622648       -1.33355149463074        0.68841614226585
N           -4.06098928616935       -0.87432833043081        0.37203957260754
C           -3.13155299561471       -0.23531296613393       -0.33489729975975
C           -1.79042991667978       -0.80458284834060       -0.36954670231415
C           -0.75724436905282       -0.13603142576249       -1.03025968204380
C            0.51342669480624       -0.66665056872204       -1.05017711682668
C            0.77818733269917       -1.87875494964469       -0.40894869823954
N            2.06355416737453       -2.42547676295236       -0.45696313432885
C            2.34785476105472       -3.65413689759994       -1.03733110235721
C            1.48750749564859       -4.66534670566865       -1.43670526735428
C            2.04055923568064       -5.79349602695996       -2.01486570700879
C            3.41498186965928       -5.91254382932991       -2.20579552740648
C            4.27293413614080       -4.89524229496678       -1.83694091718536
C            3.73963747964783       -3.75397389070827       -1.25119582342758
C            4.31686939414662       -2.52470956613613       -0.78497723157613
C            5.63489956663772       -2.06759671418254       -0.77589626212548
C            5.91447311919885       -0.81364580531226       -0.28457076621002
C            4.87149699791867       -0.05630521668140        0.25001092419739
C            3.53129465092761       -0.51270898712833        0.32428260280178
C            2.80880452903529        0.47656208774292        1.07956256001103
C            1.51810344034645        0.57188109369906        1.59327137135178
C            1.15588486319493        1.70430084744676        2.29481956607709
C            2.05624518126846        2.74685976964469        2.50154109537661
C            3.35807420648201        2.65867099998761        2.05108304644378
C            3.73482187569444        1.50971516786983        1.36943841666076
N            4.96793692747592        1.17597042301734        0.85823755874448
C            6.13557608815090        1.95298918106155        0.95816803326741
C            6.85303653543692        2.28288536243149       -0.18755003268157
C            7.99840794108399        3.05161529391785       -0.08631570650752
C            8.43043917613405        3.50128058177601        1.15080439352576
C            7.71608305305895        3.17404189327456        2.29173387465752
C            6.57467634043954        2.39793842164770        2.20115276586644
C            3.25273486336727       -1.73949298102528       -0.28775270084736
C           -0.25256955273838       -2.55250716567018        0.24706483965010
C           -1.52320855268801       -2.01826999541026        0.26756362355441
N           -3.34688289982342        0.89195483971578       -1.01026252725053
C           -4.54273273574223        1.45297264269708       -0.94808249728321
C           -4.70285783120049        2.72269626422411       -1.66761758229623
C           -4.10990748024018        2.86364549798286       -2.92145046695717
C           -4.24284730249874        4.04516864953028       -3.62505454718332
C           -4.94991364625477        5.10391843345077       -3.07690262564021
C           -5.51827723860612        4.97879113785749       -1.81964721025010
C           -5.39951458451978        3.79428383035774       -1.11532392294067
H           -4.87145872583236       -1.67497729931263        2.67251949426897
H           -6.48491698757767       -3.02083154415151        3.97508419784262
H           -8.80376959296140       -3.28119570087192        3.16470158336634
H           -9.49206491565372       -2.21787385006881        1.04659217117495
H           -7.88943265009920       -0.88890537883858       -0.24746223366276
H           -0.97211347311399        0.80018022639813       -1.52049411494494
H            1.31402419554505       -0.15101916699240       -1.55822317614331
H            0.41886432523218       -4.57856024878667       -1.31345729451904
H            1.39102611047584       -6.59793146442511       -2.32788242083125
H            3.80996857332254       -6.81069502858035       -2.65776582689583
H            5.33672784884878       -4.97998004272652       -2.00121782715961
H            6.42395549260909       -2.69491082273587       -1.16069384483509
H            6.92284980719316       -0.42989786317264       -0.27976715896225
H            0.80653773823256       -0.22619011991112        1.46540894155502
H            0.15353960432076        1.78352576374758        2.69053845746323
H            1.73576812061783        3.62911099774183        3.03615150839728
H            4.06332715990791        3.45719276625356        2.22540149931956
H            6.50266147419276        1.94283187927931       -1.15092374748408
H            8.55157985673210        3.30615708484720       -0.97837455105702
H            9.32242802249513        4.10497632992770        1.22574301865972
H            8.05287176795544        3.51773418950802        3.25871843291281
H            6.02367610297865        2.12518581978056        3.08903989282252
H           -0.04133728454676       -3.47877717974508        0.75955242670357
H           -2.32627289105620       -2.52486640149179        0.77953167454064
H           -3.55957347713452        2.03160176563442       -3.33422470813445
H           -3.79169431213679        4.14167208954668       -4.60130495452534
H           -5.05250862596799        6.02816539016705       -3.62552952603425
H           -6.05675179630804        5.80582624022967       -1.38176349848723
H           -5.82682153803009        3.71122453827178       -0.12671492024123

          :  Hamiltonian                  GFN2-xTB          :
         :: gradient norm              0.000128014596 Eh/a0 ::
         :: HOMO-LUMO gap              1.425909169548 eV    ::
         :: SCC energy              -132.598140624273 Eh    ::
         :: -> dispersion             -0.117607995501 Eh    ::
         :: -> Gsolv                  -0.057845816586 Eh    ::
         :: repulsion energy           2.456358414298 Eh    ::

    * Orbital Energies and Occupations

         #    Occupation            Energy/Eh            Energy/eV
      -------------------------------------------------------------
         1        2.0000           -0.6968958             -18.9635
       ...           ...                  ...                  ...
       109        2.0000           -0.4184710             -11.3872
       110        2.0000           -0.4182130             -11.3802
       111        2.0000           -0.4153954             -11.3035
       112        2.0000           -0.4136039             -11.2547
       113        2.0000           -0.4128676             -11.2347
       114        2.0000           -0.4126379             -11.2284
       115        2.0000           -0.4093599             -11.1392
       116        2.0000           -0.4072395             -11.0816
       117        2.0000           -0.3934612             -10.7066
       118        2.0000           -0.3853775             -10.4867
       119        2.0000           -0.3807890             -10.3618
       120        2.0000           -0.3627585              -9.8712
       121        2.0000           -0.3571478              -9.7185 (HOMO)
       122                         -0.3047466              -8.2926 (LUMO)
       123                         -0.2912859              -7.9263
       124                         -0.2547763              -6.9328
       125                         -0.2487729              -6.7695
       126                         -0.2391626              -6.5079
       127                         -0.2377726              -6.4701
       128                         -0.2365619              -6.4372
       129                         -0.2360383              -6.4229
       130                         -0.2325410              -6.3278
       131                         -0.2315168              -6.2999
       132                         -0.2256071              -6.1391
       ...                                ...                  ...
       237                          1.1508845              31.3172
      -------------------------------------------------------------
                  HL-Gap            0.0524012 Eh            1.4259 eV

     #   Z          covCN         q      C6AA      α(0)
     1   7 N        0.911    -0.282    27.275     7.553
     2   6 C        1.905     0.116    28.249     8.584
     3   6 C        2.962    -0.029    28.720     8.790
     4   6 C        2.966     0.122    25.327     8.255
     5   6 C        2.982    -0.002    28.058     8.689
     6   6 C        2.926    -0.024    28.593     8.769
     7   6 C        2.918    -0.026    28.642     8.776
     8   6 C        2.920    -0.023    28.571     8.765
     9   6 C        2.919    -0.025    28.634     8.775
    10   6 C        2.922    -0.028    28.692     8.784
    11   7 N        1.850    -0.282    28.169     7.866
    12   6 C        2.939     0.193    23.890     8.016
    13   6 C        2.984    -0.007    28.182     8.708
    14   6 C        2.922    -0.023    28.585     8.768
    15   6 C        2.920    -0.036    28.890     8.814
    16   6 C        2.915     0.076    26.301     8.410
    17   7 N        2.802    -0.041    22.040     6.973
    18   6 C        3.072     0.044    26.933     8.509
    19   6 C        2.910    -0.052    29.287     8.874
    20   6 C        2.924    -0.036    28.899     8.816
    21   6 C        2.920    -0.041    29.026     8.835
    22   6 C        2.913    -0.036    28.896     8.815
    23   6 C        3.067    -0.015    28.319     8.726
    24   6 C        3.067    -0.028    28.631     8.774
    25   6 C        2.916    -0.037    28.926     8.819
    26   6 C        2.911    -0.060    29.504     8.907
    27   6 C        3.080     0.044    26.920     8.506
    28   6 C        3.053    -0.038    28.887     8.815
    29   6 C        3.062    -0.018    28.393     8.738
    30   6 C        2.913    -0.040    28.984     8.828
    31   6 C        2.919    -0.043    29.069     8.841
    32   6 C        2.923    -0.036    28.885     8.814
    33   6 C        2.910    -0.052    29.292     8.875
    34   6 C        3.080     0.046    26.879     8.500
    35   7 N        2.803    -0.042    22.058     6.976
    36   6 C        2.913     0.064    26.567     8.452
    37   6 C        2.922    -0.041    29.018     8.834
    38   6 C        2.920    -0.028    28.694     8.784
    39   6 C        2.919    -0.032    28.799     8.800
    40   6 C        2.920    -0.028    28.693     8.784
    41   6 C        2.922    -0.041    29.020     8.834
    42   6 C        3.058     0.042    26.992     8.520
    43   6 C        2.919    -0.041    29.013     8.833
    44   6 C        2.922    -0.025    28.633     8.775
    45   7 N        1.850    -0.282    28.174     7.867
    46   6 C        2.968     0.122    25.313     8.253
    47   6 C        2.982    -0.001    28.056     8.689
    48   6 C        2.925    -0.024    28.595     8.769
    49   6 C        2.918    -0.026    28.643     8.776
    50   6 C        2.920    -0.023    28.578     8.767
    51   6 C        2.919    -0.025    28.635     8.775
    52   6 C        2.922    -0.028    28.689     8.784
    53   1 H        0.926     0.048     2.341     2.393
    54   1 H        0.926     0.049     2.327     2.385
    55   1 H        0.926     0.050     2.323     2.384
    56   1 H        0.926     0.046     2.369     2.407
    57   1 H        0.926     0.031     2.579     2.511
    58   1 H        0.926     0.061     2.189     2.314
    59   1 H        0.926     0.052     2.300     2.372
    60   1 H        0.926     0.031     2.576     2.510
    61   1 H        0.926     0.030     2.581     2.512
    62   1 H        0.926     0.029     2.603     2.523
    63   1 H        0.926     0.031     2.567     2.506
    64   1 H        0.926     0.035     2.521     2.483
    65   1 H        0.926     0.032     2.560     2.502
    66   1 H        0.926     0.024     2.667     2.554
    67   1 H        0.926     0.021     2.719     2.579
    68   1 H        0.926     0.029     2.606     2.525
    69   1 H        0.926     0.031     2.574     2.509
    70   1 H        0.926     0.043     2.414     2.430
    71   1 H        0.926     0.041     2.431     2.438
    72   1 H        0.926     0.040     2.446     2.446
    73   1 H        0.926     0.041     2.438     2.442
    74   1 H        0.926     0.042     2.426     2.436
    75   1 H        0.926     0.056     2.248     2.345
    76   1 H        0.926     0.061     2.182     2.310
    77   1 H        0.926     0.047     2.358     2.401
    78   1 H        0.926     0.049     2.330     2.387
    79   1 H        0.926     0.050     2.325     2.384
    80   1 H        0.926     0.046     2.368     2.406
    81   1 H        0.926     0.030     2.585     2.514

molecular dipole:
                 x           y           z       tot (Debye)
 q only:        1.852       0.023       0.025
   full:        1.781       0.097       0.038       4.536

 projected vibrational frequencies (cm⁻¹)
eigval :       -0.00    -0.00    -0.00     0.00     0.00     0.00
eigval :        8.10     9.79    16.79    21.48    28.72    32.85
eigval :       36.87    41.70    46.23    58.15    59.58    61.61
eigval :       70.22    74.41    93.80   102.37   110.52   123.16
eigval :      129.71   133.30   152.12   161.19   167.31   199.83
eigval :      214.21   217.17   219.94   231.23   237.11   239.75
eigval :      244.03   261.56   274.93   297.06   299.78   322.07
eigval :      323.88   353.71   368.46   371.58   376.55   378.70
eigval :      380.59   386.26   392.98   408.95   420.96   431.03
eigval :      438.14   448.85   454.14   470.34   479.54   490.25
eigval :      501.27   517.76   526.62   537.37   554.46   559.17
eigval :      576.68   583.22   584.86   585.14   591.01   595.92
eigval :      597.88   608.43   613.71   619.44   622.50   627.02
eigval :      643.47   649.18   668.99   672.12   673.40   675.50
eigval :      680.17   687.41   699.80   702.65   707.63   724.34
eigval :      747.70   757.03   764.72   770.92   772.56   774.95
eigval :      775.43   818.33   827.04   831.64   841.39   866.23
eigval :      870.31   871.29   873.13   875.81   877.12   880.35
eigval :      882.05   894.88   902.54   903.31   904.02   908.06
eigval :      909.24   916.06   921.45   923.01   924.63   926.83
eigval :      929.14   931.09   931.66   931.99   933.59   933.98
eigval :      934.40   970.14   985.47   987.87  1006.84  1012.35
eigval :     1065.03  1070.86  1072.94  1078.58  1081.07  1083.00
eigval :     1084.94  1101.75  1117.30  1119.43  1120.65  1123.80
eigval :     1139.20  1144.44  1151.59  1169.58  1175.77  1177.21
eigval :     1178.22  1179.88  1180.18  1180.41  1182.90  1189.39
eigval :     1197.26  1198.59  1206.21  1224.19  1239.58  1243.92
eigval :     1251.56  1252.97  1261.70  1273.61  1277.52  1278.48
eigval :     1286.44  1308.19  1310.80  1315.20  1318.80  1319.76
eigval :     1324.62  1343.92  1358.03  1361.37  1362.61  1373.35
eigval :     1383.55  1385.16  1394.68  1403.41  1410.85  1424.76
eigval :     1427.21  1427.33  1432.65  1433.93  1463.70  1471.48
eigval :     1473.45  1476.24  1477.88  1480.57  1481.93  1489.13
eigval :     1500.69  1556.54  1567.71  1574.07  1578.68  1579.16
eigval :     1581.99  1584.97  1588.09  1592.75  1592.84  1593.06
eigval :     1595.42  1604.62  1606.48  2333.08  3070.26  3070.71
eigval :     3077.13  3078.10  3078.71  3079.26  3079.51  3080.44
eigval :     3080.84  3082.75  3086.30  3086.97  3087.24  3088.51
eigval :     3088.88  3090.56  3091.06  3093.32  3094.28  3094.47
eigval :     3095.04  3095.80  3097.32  3099.12  3099.79  3100.19
eigval :     3108.51  3111.32  3127.69

   temp. (K)  partition function   enthalpy   heat capacity  entropy
                                   cal/mol     cal/K/mol   cal/K/mol   J/K/mol
 298.15  VIB  0.107E+20            23791.990    149.010    148.954
         ROT  0.121E+09              888.752      2.981     39.968
         INT  0.129E+28            24680.743    151.991    188.922
         TR   0.165E+29             1481.254      4.968     45.339
         TOT                       26161.9966   156.9587   234.2613   980.1491

       T/K    H(0)-H(T)+PV         H(T)/Eh          T*S/Eh         G(T)/Eh
   ------------------------------------------------------------------------
    298.15    0.416918E-01    0.651786E+00    0.111305E+00    0.540481E+00
   ------------------------------------------------------------------------

         :::::::::::::::::::::::::::::::::::::::::::::::::::::
         ::                  THERMODYNAMIC                  ::
         :::::::::::::::::::::::::::::::::::::::::::::::::::::
         :: total free energy        -129.601301700076 Eh   ::
         ::.................................................::
         :: total energy             -130.141782209740 Eh   ::
         :: zero point energy           0.610093795272 Eh   ::
         :: G(RRHO) w/o ZPVE           -0.069613285609 Eh   ::
         :: G(RRHO) contrib.            0.540480509664 Eh   ::
         :::::::::::::::::::::::::::::::::::::::::::::::::::::

           -------------------------------------------------
          | TOTAL ENERGY             -130.141782209740 Eh   |
          | TOTAL ENTHALPY           -129.489996619046 Eh   |
          | TOTAL FREE ENERGY        -129.601301700076 Eh   |
          | GRADIENT NORM               0.000128013394 Eh/α |
          | HOMO-LUMO GAP               1.425908563007 eV   |
           -------------------------------------------------

 * finished run on 2025/09/08 at 15:06:03.941
