   * xtb version 6.7.1 (edcfbbe) compiled by 'albert@albert-system' on 2024-07-22

   ID    Z sym.   atoms
    1    6 C      1-4, 6-11, 13-15, 19-25, 27-32, 34-41, 43-48, 50, 51
    2    7 N      5, 12, 16-18, 26, 33, 42, 49
    3    1 H      52-78

          program call               : xtb data2507/gas/BMZ-TZ/BMZ-TZ_gas_S0_finalOpt.xtbopt.xyz --gfn 2 --spinpol --tblite --uhf 2 --ohess vtight --parallel 40 --molden --ceasefiles --namespace data2507/gas/BMZ-TZ/BMZ-TZ_gas_T1_preOpt
 * total energy  :  -129.9829783 Eh     change       -0.1342718E-07 Eh
 * total energy  :  -129.9863417 Eh     change       -0.3363410E-02 Eh
 * total energy  :  -129.9881994 Eh     change       -0.1857652E-02 Eh
 * total energy  :  -129.9887758 Eh     change       -0.5763986E-03 Eh
 * total energy  :  -129.9878189 Eh     change        0.9568911E-03 Eh
 * total energy  :  -129.9905075 Eh     change       -0.2688611E-02 Eh
 * total energy  :  -129.9908555 Eh     change       -0.3480626E-03 Eh
 * total energy  :  -129.9914176 Eh     change       -0.5620474E-03 Eh
 * total energy  :  -129.9917775 Eh     change       -0.3599520E-03 Eh
 * total energy  :  -129.9925044 Eh     change       -0.7268843E-03 Eh
 * total energy  :  -129.9939214 Eh     change       -0.7614038E-06 Eh
 * total energy  :  -129.9939221 Eh     change       -0.6676789E-06 Eh
 * total energy  :  -129.9939228 Eh     change       -0.6873925E-06 Eh
 * total energy  :  -129.9939236 Eh     change       -0.8031080E-06 Eh
 * total energy  :  -129.9939246 Eh     change       -0.9878030E-06 Eh
 * total energy  :  -129.9939254 Eh     change       -0.8578556E-06 Eh
 * total energy  :  -129.9939262 Eh     change       -0.7625943E-06 Eh
 * total energy  :  -129.9939269 Eh     change       -0.6470000E-06 Eh
 * total energy  :  -129.9939269 Eh     change       -0.9099637E-08 Eh
   *** GEOMETRY OPTIMIZATION CONVERGED AFTER 68 ITERATIONS ***

 final structure:
================
78
 xtb: 6.7.1 (edcfbbe)
C           -4.10962598685771        4.29433465388807        1.43160370542078
C           -4.65796241759131        3.13008226589243        0.91648944661200
C           -3.82265054898133        2.21596454272950        0.27046253843551
C           -4.35797284839900        0.97572781114129       -0.26505480811238
N           -3.69349145962173       -0.14885804250201       -0.37787549756697
C           -4.56862461231281       -1.05999279429508       -0.91509459479608
C           -4.39312010551670       -2.39958617593703       -1.24808169423286
C           -5.47554400978058       -3.07196812478568       -1.77432660590766
C           -6.70729654385683       -2.44523173294436       -1.97499425078542
C           -6.90164053981468       -1.11621342606098       -1.65687634808211
C           -5.81929504597648       -0.43499951150064       -1.12573239220058
N           -5.65024891709238        0.85521208476665       -0.69639693716486
C           -2.46436660490117        2.47161883375229        0.14557153433516
C           -1.88838221216964        3.62378850408933        0.70220191181014
C           -0.48854919774508        3.92192691234005        0.70137670794989
N           -0.16806830634343        5.17906808185767        1.25291889488610
N            1.00528739803372        5.52084861807376        1.31748965458775
N            2.06876263314282        4.96897938262860        1.00761158260304
C            1.93109716068839        3.67746012540163        0.45842420379649
C            3.18073875822880        3.01729472623605        0.13986896362742
C            4.27912730793442        3.78488883779853       -0.26585062348748
C            5.46925127198451        3.17424302749756       -0.61076441503509
C            5.59071317970355        1.79718896037198       -0.57029496724147
C            4.51461580628690        1.01537421598137       -0.14096162898444
C            4.65084709791517       -0.42891391713917       -0.11771383189962
N            5.79630175841937       -1.05777633404921       -0.22665100520342
C            5.50782983784509       -2.39069967812719       -0.18545308072159
C            6.33806215344604       -3.50745341085772       -0.25368360179997
C            5.74218548897086       -4.74811462677241       -0.19572143113910
C            4.35609595739178       -4.89890785381966       -0.07460575685216
C            3.51177815217812       -3.80984861006691       -0.00350741564009
C            4.10728665472420       -2.56042316286562       -0.05571405347604
N            3.59278663163783       -1.29445638204380       -0.00905339638119
C            3.33157085863964        1.63224635607915        0.24451195874428
C            0.64339720910237        3.18465556607722        0.26729787047384
C            0.55086436228043        1.90874845534350       -0.47621041522178
C            1.04921238896976        1.85494282538221       -1.77425089017056
C            1.13404208298015        0.64358403322730       -2.43785667451548
C            0.71806049776240       -0.52036705700918       -1.81909990144068
C            0.17162282396094       -0.46667300262472       -0.53930501663657
C           -0.32470010878656       -1.67578733239708        0.10991660626622
N            0.35926929709548       -2.77649466953520        0.28736967813222
C           -0.49549398284170       -3.63468917318918        0.93081072241289
C           -0.30694851884991       -4.94281882959713        1.36400499542745
C           -1.37357032455274       -5.57423558099011        1.96670581179588
C           -2.60379333284027       -4.93541522907844        2.14446314453652
C           -2.81067010414217       -3.63568032244998        1.73086123711275
C           -1.74325452721384       -2.99084751106561        1.12609194536731
N           -1.59116008823614       -1.73120543683188        0.61248512235652
C            0.09250468910462        0.74788232732318        0.13309954043962
C           -2.75978200831431        4.53774186413151        1.33507528888625
H           -4.74812610745277        5.01137922611981        1.92645121976051
H           -5.71099791700574        2.92581305116868        1.04132114543304
H           -3.44596584343345       -2.89279301970152       -1.10153030024704
H           -5.37134515108278       -4.11307804691748       -2.04042190516767
H           -7.52504478918672       -3.01495145056490       -2.38990468567347
H           -7.85233621820213       -0.62912046270005       -1.81366660094753
H           -6.33273141109989        1.59305197627521       -0.73250338634792
H           -1.87493887648447        1.76272862581386       -0.40743239253325
H            4.17563494635116        4.85808825076822       -0.30771802199108
H            6.30805243603274        3.77815849254345       -0.92346724563292
H            6.50567933814925        1.30159991106966       -0.85139660226066
H            7.40597249403100       -3.39226563687776       -0.34787364653410
H            6.35792374947383       -5.63446535073360       -0.24568225683696
H            3.94226276656882       -5.89600143797643       -0.03692681588052
H            2.44004757542391       -3.89950245466389        0.08613766929379
H            2.61064086635823       -1.07800838399030        0.03995956722989
H            2.53242234645425        1.03906028498747        0.65739115374243
H            1.38815341885617        2.76153080758413       -2.25267019247098
H            1.53679696665013        0.60940918375064       -3.43849527778632
H            0.79840194362968       -1.47421685499623       -2.31680486491433
H            0.64093189399279       -5.43903638084073        1.22718023241764
H           -1.26182534289097       -6.59184771172938        2.31115442569054
H           -3.41051484339109       -5.47523991498256        2.61805336696995
H           -3.76038724586957       -3.13954143941673        1.86399282524618
H           -2.32778334271054       -1.04298516038263        0.42363846518231
H           -0.28990685962548        0.77997878445000        1.14352446141764
H           -2.34042667668107        5.43802162601142        1.75529112417262

 projected vibrational frequencies (cm⁻¹)
eigval :       -0.00    -0.00    -0.00    -0.00     0.00     0.00
eigval :       12.55    16.46    27.13    29.23    31.64    35.43
eigval :       40.47    45.72    51.35    58.70    63.96    71.66
eigval :       76.50    86.41    96.69   107.63   118.60   135.91
eigval :      147.00   166.99   175.03   188.93   192.81   211.11
eigval :      237.09   240.29   242.87   246.82   253.19   257.55
eigval :      274.29   278.35   296.35   299.13   302.69   319.64
eigval :      328.84   336.88   349.87   361.81   379.11   399.08
eigval :      399.71   404.07   427.85   429.29   430.78   451.89
eigval :      462.54   480.86   496.18   509.95   524.06   532.42
eigval :      535.11   537.15   538.87   541.90   545.25   546.94
eigval :      559.26   562.66   571.84   583.91   598.51   602.33
eigval :      608.19   611.86   612.97   633.25   642.43   647.21
eigval :      658.96   661.13   671.89   673.84   679.53   683.05
eigval :      687.89   713.83   715.02   716.28   733.93   770.16
eigval :      771.93   773.57   775.35   777.60   786.75   792.01
eigval :      799.59   809.46   849.98   854.49   858.81   864.73
eigval :      865.26   865.97   867.34   868.12   868.37   871.01
eigval :      872.05   874.25   889.95   893.43   898.36   898.66
eigval :      900.37   905.79   909.81   919.73   920.58   921.93
eigval :      924.09   925.98   926.73   932.81   943.69   958.15
eigval :      986.06   997.80  1002.16  1023.98  1051.70  1059.91
eigval :     1064.01  1069.13  1075.87  1096.26  1100.55  1117.45
eigval :     1125.55  1131.91  1132.33  1138.61  1140.66  1141.81
eigval :     1166.59  1170.82  1173.79  1175.20  1179.74  1184.06
eigval :     1186.21  1188.91  1196.54  1218.17  1221.83  1222.82
eigval :     1232.37  1239.53  1258.19  1261.53  1265.38  1286.60
eigval :     1286.70  1288.27  1294.76  1302.31  1304.37  1307.49
eigval :     1312.11  1322.64  1335.03  1339.24  1354.25  1355.70
eigval :     1358.95  1368.93  1371.07  1378.51  1389.23  1396.01
eigval :     1407.11  1411.47  1413.34  1421.79  1428.60  1439.42
eigval :     1459.05  1466.99  1489.48  1490.89  1492.31  1514.24
eigval :     1518.64  1541.08  1544.70  1547.89  1563.28  1566.33
eigval :     1568.68  1582.17  1582.54  1590.72  1598.04  1607.74
eigval :     1622.33  1624.46  1639.29  3074.32  3074.85  3075.64
eigval :     3079.66  3081.05  3082.29  3084.45  3085.37  3086.08
eigval :     3087.11  3087.18  3091.04  3096.10  3096.79  3098.08
eigval :     3100.78  3102.13  3103.24  3105.12  3106.97  3107.64
eigval :     3113.52  3115.22  3117.20  3153.23  3459.77  3481.52

   temp. (K)  partition function   enthalpy   heat capacity  entropy
                                   cal/mol     cal/K/mol   cal/K/mol   J/K/mol
 298.15  VIB  0.214E+18            22992.463    146.468    141.756
         ROT  0.805E+08              888.752      2.981     39.156
         INT  0.172E+26            23881.215    149.449    180.913
         TR   0.163E+29             1481.254      4.968     45.312
         TOT                       25362.4689   154.4171   226.2249   946.5251

       T/K    H(0)-H(T)+PV         H(T)/Eh          T*S/Eh         G(T)/Eh
   ------------------------------------------------------------------------
    298.15    0.404177E-01    0.619418E+00    0.107487E+00    0.511931E+00
   ------------------------------------------------------------------------

         :::::::::::::::::::::::::::::::::::::::::::::::::::::
         ::                  THERMODYNAMIC                  ::
         :::::::::::::::::::::::::::::::::::::::::::::::::::::
         :: total free energy        -129.481995812000 Eh   ::
         ::.................................................::
         :: total energy             -129.993926869262 Eh   ::
         :: zero point energy           0.579000150545 Eh   ::
         :: G(RRHO) w/o ZPVE           -0.067069093284 Eh   ::
         :: G(RRHO) contrib.            0.511931057261 Eh   ::
         :::::::::::::::::::::::::::::::::::::::::::::::::::::

           -------------------------------------------------
          | TOTAL ENERGY             -129.993926869262 Eh   |
          | TOTAL ENTHALPY           -129.374509051877 Eh   |
          | TOTAL FREE ENERGY        -129.481995812000 Eh   |
          | GRADIENT NORM               0.000077062172 Eh/α |
           -------------------------------------------------

 * finished run on 2025/09/14 at 10:53:05.957
