   * xtb version 6.7.1 (edcfbbe) compiled by 'albert@albert-system' on 2024-07-22

   ID    Z sym.   atoms
    1    6 C      1-4, 6-11, 13-15, 19-25, 27-32, 34-41, 43-48, 50, 51
    2    7 N      5, 12, 16-18, 26, 33, 42, 49
    3    1 H      52-78

          program call               : xtb data2507/gas/BMZ-TZ/BMZ-TZ_gas_T1_crest.xyz --gfn 2 --spinpol --tblite --uhf 2 --ohess vtight --parallel 40 --molden --ceasefiles --namespace data2507/gas/BMZ-TZ/BMZ-TZ_gas_T1_finalOpt
 * total energy  :  -129.9938736 Eh     change       -0.2088177E-07 Eh
 * total energy  :  -129.9939043 Eh     change       -0.3076669E-04 Eh
 * total energy  :  -129.9939237 Eh     change       -0.1938406E-04 Eh
 * total energy  :  -129.9939271 Eh     change       -0.3383891E-05 Eh
 * total energy  :  -129.9939285 Eh     change       -0.1409923E-05 Eh
 * total energy  :  -129.9939299 Eh     change       -0.1379348E-05 Eh
 * total energy  :  -129.9939315 Eh     change       -0.1624041E-05 Eh
 * total energy  :  -129.9939328 Eh     change       -0.1295207E-05 Eh
 * total energy  :  -129.9939334 Eh     change       -0.6187806E-06 Eh
 * total energy  :  -129.9939340 Eh     change       -0.5167466E-06 Eh
 * total energy  :  -129.9939350 Eh     change       -0.2433677E-06 Eh
 * total energy  :  -129.9939352 Eh     change       -0.1960784E-06 Eh
 * total energy  :  -129.9939352 Eh     change        0.7047078E-08 Eh
 * total energy  :  -129.9939354 Eh     change       -0.1454427E-06 Eh
 * total energy  :  -129.9939355 Eh     change       -0.1258892E-06 Eh
 * total energy  :  -129.9939356 Eh     change       -0.1246176E-06 Eh
 * total energy  :  -129.9939358 Eh     change       -0.1412621E-06 Eh
 * total energy  :  -129.9939359 Eh     change       -0.1374304E-06 Eh
 * total energy  :  -129.9939359 Eh     change       -0.3296435E-08 Eh
   *** GEOMETRY OPTIMIZATION CONVERGED AFTER 21 ITERATIONS ***

 final structure:
================
78
 xtb: 6.7.1 (edcfbbe)
C           -4.18839933767188        4.25260670841024        1.33069662718197
C           -4.71563668064339        3.06402039173128        0.85028857538835
C           -3.86492653268906        2.14929627310984        0.22569179204166
C           -4.37682965403378        0.88357072244603       -0.27185162079895
N           -3.69040994092817       -0.23053619081929       -0.35250885771011
C           -4.54816080048368       -1.17435094467925       -0.86054310578658
C           -4.34674502456815       -2.51959541505199       -1.15368288465165
C           -5.41626353723846       -3.22839955046394       -1.65808921759943
C           -6.66031888867547       -2.63219548097333       -1.87523317691964
C           -6.88050973496561       -1.29844977886179       -1.59612944644900
C           -5.81119098500138       -0.58061435117415       -1.08730872242971
N           -5.66709748121460        0.72487737013006       -0.69671657797011
C           -2.51278212896656        2.42877477934000        0.08657739878718
C           -1.95750544987591        3.60718480969942        0.60814888637444
C           -0.56406157281372        3.93342024456127        0.59081660069954
N           -0.26558138419931        5.21028840000357        1.10816788424214
N            0.90103364445614        5.57732448718550        1.15539398991150
N            1.97333018662945        5.03953190324695        0.85113485286442
C            1.85835968878674        3.73197965942818        0.33554533952998
C            3.11881152430464        3.09002560532870        0.02217651689441
C            4.19784124098178        3.86989709627256       -0.41128383892235
C            5.39676066029472        3.27528451051182       -0.75375000971712
C            5.54595638890949        1.90209070604220       -0.68429289268807
C            4.48986295552931        1.10897189779420       -0.22690173241542
C            4.65361880577078       -0.33173428203066       -0.17628487290628
N            5.80824551703100       -0.94202186746116       -0.29409486188014
C            5.54489739727834       -2.27887503662203       -0.22370862498046
C            6.39367412509415       -3.38187640748307       -0.28771085209343
C            5.82125323595225       -4.63166135872148       -0.19802551980983
C            4.44045648343769       -4.80482696511253       -0.04932557655174
C            3.57818102376830       -3.72976594728681        0.01864051046562
C            4.15018189604514       -2.47115261279105       -0.06581989100678
N            3.61368055483600       -1.21399957765138       -0.03278617886116
C            3.29867490710374        1.71106235093210        0.15708115749638
C            0.57965712757951        3.20836287582888        0.16720253820554
C            0.50662687190677        1.91156605234778       -0.54143962015741
C            0.99249829593384        1.83232882767684       -1.84283696695674
C            1.09392231101250        0.60519512918414       -2.47451607910248
C            0.70735504203178       -0.54945844451386       -1.82023972189044
C            0.17389596647140       -0.47173946973977       -0.53624008648581
C           -0.29025307622033       -1.67152857274273        0.15287423168628
N            0.41924922812143       -2.75131573484935        0.35633976971688
C           -0.40929315727121       -3.60668244115387        1.03675866036519
C           -0.18691618901063       -4.89561669264734        1.50957630149952
C           -1.23212246503785       -5.52971856371293        2.14604726300781
C           -2.47383700516254       -4.91201744991862        2.31847883025833
C           -2.71418464478702       -3.63133536710715        1.86535416766643
C           -1.66843872048136       -2.98373661114298        1.22666422249598
N           -1.54947348422307       -1.73801278827119        0.67195162684652
C            0.07796839401165        0.75886328425391        0.10394558217892
C           -2.84414246156121        4.52021329089472        1.22079108158372
H           -4.83888516465417        4.96985446701561        1.80937669122356
H           -5.76380010160069        2.84220084858440        0.98572653811432
H           -3.38995502561862       -2.98957378776276       -0.99387308812673
H           -5.29192605281428       -4.27470109910140       -1.89340256292157
H           -7.46713136941635       -3.22992606768295       -2.27174138521947
H           -7.84083702337630       -0.83504196201768       -1.76552023994140
H           -6.36400553143452        1.44779484273208       -0.75347159325463
H           -1.91197578075856        1.71673677742743       -0.44978887940209
H            4.07235215847490        4.93957360795999       -0.47652668877421
H            6.22044210336835        3.88849851122277       -1.08783044815196
H            6.46770917488730        1.41845417423300       -0.96403023204326
H            7.45749695678039       -3.24962485808950       -0.40328576900344
H            6.45176284138098       -5.50776598954620       -0.24431442950709
H            4.04523674322308       -5.80824111325028        0.01257928443495
H            2.50999369092117       -3.83658042256686        0.12946403965832
H            2.62882518228844       -1.01453479031636        0.03103662357108
H            2.51561211087810        1.11186110595083        0.59142066561178
H            1.30866707902508        2.73197382854365       -2.34912719204849
H            1.48667630528220        0.55170033742539       -3.47827882265194
H            0.80119528911495       -1.51462987822503       -2.29313730037000
H            0.77004895900893       -5.37529098581695        1.37703009571969
H           -1.09391203311375       -6.53276055185975        2.52217273436631
H           -3.26264976170150       -5.45311007995046        2.81997306098165
H           -3.67280001831431       -3.15155923559630        1.99462325342298
H           -2.30258657590543       -1.07190330063053        0.46951133721219
H           -0.29454761971233        0.81104430707866        1.11723023925634
H           -2.44098355746802        5.43966354476313        1.61454041709330

 projected vibrational frequencies (cm⁻¹)
eigval :       -0.00    -0.00     0.00     0.00     0.00     0.00
eigval :       12.28    16.40    27.00    29.09    31.51    35.49
eigval :       40.49    45.86    51.20    58.94    63.79    71.73
eigval :       76.08    86.25    96.54   107.30   118.46   136.17
eigval :      146.85   166.91   175.04   189.24   192.57   211.13
eigval :      236.92   240.21   242.86   246.71   253.26   257.73
eigval :      274.26   278.27   296.33   299.19   302.71   319.48
eigval :      328.87   337.07   350.26   361.88   378.99   398.98
eigval :      399.73   403.84   427.91   429.15   430.55   451.48
eigval :      462.47   481.02   496.20   510.13   524.02   532.54
eigval :      535.07   537.14   538.84   541.92   544.94   547.04
eigval :      559.27   562.11   571.64   583.56   598.62   602.39
eigval :      608.22   611.87   612.72   633.23   642.28   647.36
eigval :      659.06   661.13   671.97   673.65   679.48   683.10
eigval :      687.93   713.82   714.99   716.24   734.00   770.12
eigval :      771.74   773.49   775.45   776.90   786.93   792.08
eigval :      799.45   809.10   849.66   854.06   859.01   865.03
eigval :      865.46   865.94   867.41   868.32   868.56   870.96
eigval :      871.99   874.00   889.96   893.46   898.34   898.64
eigval :      900.29   905.93   909.61   919.76   920.60   921.89
eigval :      924.04   925.95   926.70   932.67   943.49   958.32
eigval :      986.14   997.95  1002.35  1024.20  1051.70  1059.92
eigval :     1064.04  1069.01  1075.43  1096.08  1100.87  1117.30
eigval :     1125.45  1131.93  1132.14  1138.53  1140.69  1141.90
eigval :     1166.33  1170.72  1173.62  1175.10  1179.58  1183.90
eigval :     1186.14  1188.75  1196.93  1218.14  1221.82  1222.83
eigval :     1232.32  1238.91  1258.27  1261.75  1265.29  1286.49
eigval :     1286.83  1288.21  1294.68  1302.49  1304.26  1307.45
eigval :     1312.03  1322.57  1335.10  1339.21  1354.31  1355.65
eigval :     1358.99  1368.89  1371.01  1378.55  1389.11  1395.93
eigval :     1407.02  1411.39  1413.26  1421.71  1428.56  1439.37
eigval :     1459.07  1466.99  1489.49  1490.87  1492.32  1514.11
eigval :     1518.69  1541.17  1544.84  1547.78  1563.23  1566.16
eigval :     1568.69  1582.11  1582.51  1590.72  1598.08  1607.71
eigval :     1622.32  1624.50  1638.74  3074.23  3074.87  3075.46
eigval :     3079.50  3080.90  3082.13  3084.32  3085.26  3085.92
eigval :     3086.99  3087.01  3090.88  3096.12  3096.63  3097.84
eigval :     3100.76  3102.17  3103.36  3105.01  3106.86  3107.62
eigval :     3113.27  3115.62  3117.10  3153.86  3460.15  3481.35

   temp. (K)  partition function   enthalpy   heat capacity  entropy
                                   cal/mol     cal/K/mol   cal/K/mol   J/K/mol
 298.15  VIB  0.223E+18            22995.707    146.470    141.811
         ROT  0.804E+08              888.752      2.981     39.154
         INT  0.180E+26            23884.459    149.451    180.965
         TR   0.163E+29             1481.254      4.968     45.312
         TOT                       25365.7134   154.4190   226.2770   946.7431

       T/K    H(0)-H(T)+PV         H(T)/Eh          T*S/Eh         G(T)/Eh
   ------------------------------------------------------------------------
    298.15    0.404228E-01    0.619402E+00    0.107512E+00    0.511891E+00
   ------------------------------------------------------------------------

         :::::::::::::::::::::::::::::::::::::::::::::::::::::
         ::                  THERMODYNAMIC                  ::
         :::::::::::::::::::::::::::::::::::::::::::::::::::::
         :: total free energy        -129.482045264081 Eh   ::
         ::.................................................::
         :: total energy             -129.993935945534 Eh   ::
         :: zero point energy           0.578979360195 Eh   ::
         :: G(RRHO) w/o ZPVE           -0.067088678741 Eh   ::
         :: G(RRHO) contrib.            0.511890681454 Eh   ::
         :::::::::::::::::::::::::::::::::::::::::::::::::::::

           -------------------------------------------------
          | TOTAL ENERGY             -129.993935945534 Eh   |
          | TOTAL ENTHALPY           -129.374533748057 Eh   |
          | TOTAL FREE ENERGY        -129.482045264081 Eh   |
          | GRADIENT NORM               0.000158142192 Eh/α |
           -------------------------------------------------

 * finished run on 2025/09/14 at 10:59:42.632
