   * xtb version 6.7.1 (edcfbbe) compiled by 'albert@albert-system' on 2024-07-22

   ID    Z sym.   atoms
    1    6 C      1-4, 6-11, 13-15, 19-25, 27-32, 34-41, 43-48, 50, 51
    2    7 N      5, 12, 16-18, 26, 33, 42, 49
    3    1 H      52-78

          program call               : xtb data2507/gas/BMZ-TZ/BMZ-TZ.xyz --gfn 2 --ohess vtight --parallel 40 --molden --ceasefiles --namespace data2507/gas/BMZ-TZ/BMZ-TZ_gas_S0_preOpt
          :  Hamiltonian                  GFN2-xTB          :
 * total energy  :  -130.0224500 Eh     change       -0.1640728E-08 Eh
 * total energy  :  -130.0365428 Eh     change       -0.1409277E-01 Eh
 * total energy  :  -130.0404776 Eh     change       -0.3934843E-02 Eh
 * total energy  :  -130.0415535 Eh     change       -0.1075860E-02 Eh
 * total energy  :  -130.0422732 Eh     change       -0.7197356E-03 Eh
 * total energy  :  -130.0426325 Eh     change       -0.3593326E-03 Eh
 * total energy  :  -130.0429380 Eh     change       -0.3054567E-03 Eh
 * total energy  :  -130.0431734 Eh     change       -0.2353828E-03 Eh
 * total energy  :  -130.0433430 Eh     change       -0.1696021E-03 Eh
 * total energy  :  -130.0434668 Eh     change       -0.1238530E-03 Eh
 * total energy  :  -130.0477589 Eh     change       -0.2312701E-06 Eh
 * total energy  :  -130.0477592 Eh     change       -0.2659907E-06 Eh
 * total energy  :  -130.0477596 Eh     change       -0.3821036E-06 Eh
 * total energy  :  -130.0477601 Eh     change       -0.5416383E-06 Eh
 * total energy  :  -130.0477606 Eh     change       -0.5265734E-06 Eh
 * total energy  :  -130.0477610 Eh     change       -0.3447971E-06 Eh
 * total energy  :  -130.0477612 Eh     change       -0.2667581E-06 Eh
 * total energy  :  -130.0477615 Eh     change       -0.2667008E-06 Eh
 * total energy  :  -130.0477615 Eh     change       -0.2682421E-07 Eh
   *** GEOMETRY OPTIMIZATION CONVERGED AFTER 152 ITERATIONS ***

 final structure:
================
78
 xtb: 6.7.1 (edcfbbe)
C           -3.52013157228776        2.43488457101014        0.62593064284225
C           -4.83144255319660        2.03450186432979        0.78974488396036
C           -5.31218191704030        0.90498753849036        0.12183503886833
C           -6.70358439351211        0.53209243661370        0.29080022421706
N           -7.50048917184500        1.06379780980744        1.18165281177883
C           -8.71333884553832        0.45861098108491        1.01590385023754
C           -9.91475430804596        0.64149207050872        1.69466409577717
C          -10.99376234300658       -0.11871923840246        1.29940762167696
C          -10.90016803744919       -1.04461466803849        0.25648551597269
C           -9.72006521385016       -1.24488347172126       -0.43027260814754
C           -8.63006709944377       -0.48467662727526       -0.03871125706686
N           -7.33513390161620       -0.41757669911252       -0.47525536054262
C           -4.44559914421382        0.17666328566432       -0.68512629493979
C           -3.11726044464223        0.56775246453395       -0.83102874292530
C           -2.25157134665626       -0.23446206442497       -1.69831477567453
N           -2.86241270878913       -0.88473148836946       -2.69944011713564
N           -2.20349833102857       -1.57024818473368       -3.55817431511441
N           -0.91890575458054       -1.69795554344884       -3.50921767375317
C           -0.22909598933671       -1.14822617002679       -2.51732566178450
C            1.23080927492713       -1.34433759075808       -2.44741249408168
C            2.05718003865974       -0.90350169737174       -3.47477921921996
C            3.42812016211540       -0.85079491785272       -3.28192091575770
C            3.98083140079150       -1.21043248223018       -2.06706794585837
C            3.16575475037669       -1.71943767617840       -1.05714771425094
C            3.70279052101509       -2.02595136473030        0.25932650469600
N            4.63575889195573       -1.32876395581156        0.85761749538390
C            4.78803819913067       -1.88103331690250        2.10268344575628
C            5.63137749073557       -1.52477417354033        3.14937973791871
C            5.56236434303285       -2.27489058294412        4.30390667088247
C            4.68219736577034       -3.35235954201106        4.42984706720457
C            3.83395636990389       -3.71939564817412        3.40439026972848
C            3.89597438269211       -2.96919035559673        2.24200730411522
N            3.21521640506858       -3.02703357641099        1.05297157950715
C            1.79583738108249       -1.81660698899885       -1.26913405038744
C           -0.86618658249760       -0.35818204956549       -1.53691214408631
C           -0.04866862137067        0.18742492887433       -0.44346202850801
C           -0.23191372084947       -0.24342297609163        0.86874234467059
C            0.72738124655052        0.04081062788242        1.82562242238216
C            1.88390858159079        0.71933782317989        1.48413818887654
C            2.04737751935181        1.20281306775159        0.18790012432505
C            3.27286669620645        1.85904420031551       -0.24525621772578
N            3.32719087538367        2.88700359024150       -1.05091824931572
C            4.66030752228278        3.13467195005862       -1.24012727845121
C            5.30073307368037        4.11124768928297       -1.99609066581207
C            6.67881625057685        4.10121471498859       -2.01713048488454
C            7.41938833057418        3.15092222319485       -1.30867835130953
C            6.80620716173998        2.17705372156253       -0.54744995372092
C            5.42082039476229        2.18116140273679       -0.51739186461937
N            4.50599366453457        1.39611466816623        0.12885724687482
C            1.06017246556398        0.96432399893923       -0.75847217378373
C           -2.65942171621454        1.71362904306506       -0.18396127144106
H           -3.16001214867970        3.32032439769932        1.12765653702787
H           -5.51366496557664        2.58202021229663        1.41993949546056
H           -9.98506248456619        1.35651225115335        2.49833995097320
H          -11.94102009532914       -0.00058559810930        1.80460963003885
H          -11.77466529260507       -1.61617776279177       -0.01693845361875
H           -9.64892314428904       -1.96029610636888       -1.23613313400253
H           -6.93783463067135       -0.93189670474009       -1.24277413943302
H           -4.76761162330405       -0.71053289120735       -1.20873054410572
H            1.61665909475716       -0.56471397361971       -4.39982412453848
H            4.06504894586773       -0.48602216434853       -4.07307451396430
H            5.03930572509095       -1.10648931438015       -1.88722967702455
H            6.31149088147170       -0.69375476637538        3.05118769701982
H            6.20395054849116       -2.02776343884055        5.13628147561507
H            4.66584194131557       -3.91020417289913        5.35391236504550
H            3.15302305961872       -4.55124342914140        3.50348415400176
H            2.52015485446391       -3.70579763928691        0.79216723164253
H            1.15445622632320       -2.19066055730941       -0.48380518329404
H           -1.10284838878206       -0.83070245654569        1.12385586178997
H            0.58752835876878       -0.30575423609938        2.83911939754479
H            2.65445089823360        0.88491847565268        2.22216300305774
H            4.72871447705026        4.84369966858926       -2.54291441063221
H            7.20694284299968        4.84506146865152       -2.59578340208888
H            8.49792984268408        3.18357909503556       -1.35954510757470
H            7.37583662948815        1.44207568800858        0.00142773105667
H            4.68781517645136        0.49267901351291        0.57107475637985
H            1.19971761910087        1.34410125056696       -1.75903665575939
H           -1.64494039153945        2.05226506927798       -0.32706119805652

          :  Hamiltonian                  GFN2-xTB          :
         :: gradient norm              0.000051117693 Eh/a0 ::
         :: HOMO-LUMO gap              1.904532687335 eV    ::
         :: SCC energy              -132.312255222395 Eh    ::
         :: -> dispersion             -0.117050877344 Eh    ::
         :: repulsion energy           2.264493687164 Eh    ::

    * Orbital Energies and Occupations

         #    Occupation            Energy/Eh            Energy/eV
      -------------------------------------------------------------
         1        2.0000           -0.7104167             -19.3314
       ...           ...                  ...                  ...
       108        2.0000           -0.4195968             -11.4178
       109        2.0000           -0.4114546             -11.1962
       110        2.0000           -0.4062408             -11.0544
       111        2.0000           -0.4052239             -11.0267
       112        2.0000           -0.3999542             -10.8833
       113        2.0000           -0.3876011             -10.5472
       114        2.0000           -0.3813661             -10.3775
       115        2.0000           -0.3794588             -10.3256
       116        2.0000           -0.3790845             -10.3154
       117        2.0000           -0.3782635             -10.2931
       118        2.0000           -0.3749941             -10.2041
       119        2.0000           -0.3708267             -10.0907
       120        2.0000           -0.3681907             -10.0190 (HOMO)
       121                         -0.2982005              -8.1144 (LUMO)
       122                         -0.2954604              -8.0399
       123                         -0.2793647              -7.6019
       124                         -0.2691016              -7.3226
       125                         -0.2598580              -7.0711
       126                         -0.2504784              -6.8159
       127                         -0.2422112              -6.5909
       128                         -0.2366607              -6.4399
       129                         -0.2280362              -6.2052
       130                         -0.2219849              -6.0405
       131                         -0.2177703              -5.9258
       ...                                ...                  ...
       231                          0.7078181              19.2607
      -------------------------------------------------------------
                  HL-Gap            0.0699902 Eh            1.9045 eV

     #   Z          covCN         q      C6AA      α(0)
     1   6 C        2.917    -0.025    28.623     8.773
     2   6 C        2.927    -0.023    28.579     8.767
     3   6 C        2.972     0.005    27.918     8.667
     4   6 C        3.178     0.139    24.595     8.097
     5   7 N        1.889    -0.285    28.244     7.879
     6   6 C        3.199     0.068    25.964     8.305
     7   6 C        2.910    -0.041    29.018     8.833
     8   6 C        2.923    -0.039    28.967     8.826
     9   6 C        2.927    -0.035    28.870     8.811
    10   6 C        2.907    -0.053    29.324     8.879
    11   6 C        3.082     0.043    26.939     8.509
    12   7 N        2.779    -0.125    23.718     7.233
    13   6 C        2.930    -0.033    28.827     8.805
    14   6 C        2.979     0.004    27.932     8.669
    15   6 C        2.936     0.096    25.863     8.341
    16   7 N        1.929    -0.161    25.264     7.453
    17   7 N        2.024    -0.025    22.366     7.015
    18   7 N        1.923    -0.159    25.234     7.448
    19   6 C        2.946     0.100    25.782     8.328
    20   6 C        2.978     0.009    27.820     8.652
    21   6 C        2.923    -0.022    28.546     8.762
    22   6 C        2.919    -0.022    28.549     8.762
    23   6 C        2.923    -0.025    28.625     8.774
    24   6 C        2.974    -0.003    28.104     8.696
    25   6 C        3.167     0.144    24.540     8.094
    26   7 N        1.891    -0.298    28.566     7.923
    27   6 C        3.191     0.066    26.044     8.324
    28   6 C        2.910    -0.042    29.055     8.839
    29   6 C        2.924    -0.037    28.913     8.818
    30   6 C        2.927    -0.033    28.833     8.806
    31   6 C        2.908    -0.051    29.278     8.872
    32   6 C        3.082     0.043    26.937     8.509
    33   7 N        2.782    -0.122    23.658     7.224
    34   6 C        2.932    -0.034    28.850     8.809
    35   6 C        2.974     0.000    28.022     8.683
    36   6 C        2.976     0.007    27.859     8.658
    37   6 C        2.922    -0.035    28.863     8.810
    38   6 C        2.918    -0.029    28.725     8.789
    39   6 C        2.922    -0.034    28.838     8.806
    40   6 C        2.974     0.005    27.904     8.665
    41   6 C        3.207     0.139    24.428     8.049
    42   7 N        1.885    -0.297    28.552     7.921
    43   6 C        3.205     0.065    25.977     8.302
    44   6 C        2.910    -0.043    29.067     8.841
    45   6 C        2.923    -0.041    29.018     8.834
    46   6 C        2.926    -0.038    28.933     8.821
    47   6 C        2.907    -0.053    29.328     8.880
    48   6 C        3.098     0.043    26.907     8.501
    49   7 N        2.772    -0.142    24.078     7.288
    50   6 C        2.935    -0.032    28.786     8.799
    51   6 C        2.921    -0.029    28.722     8.789
    52   1 H        0.926     0.045     2.382     2.413
    53   1 H        0.926     0.069     2.101     2.267
    54   1 H        0.926     0.045     2.385     2.415
    55   1 H        0.926     0.033     2.543     2.494
    56   1 H        0.926     0.033     2.544     2.494
    57   1 H        0.926     0.028     2.621     2.532
    58   1 H        0.860     0.166     1.297     1.784
    59   1 H        0.926     0.050     2.321     2.382
    60   1 H        0.926     0.055     2.259     2.351
    61   1 H        0.926     0.051     2.305     2.374
    62   1 H        0.926     0.055     2.255     2.348
    63   1 H        0.926     0.045     2.379     2.412
    64   1 H        0.926     0.039     2.468     2.457
    65   1 H        0.926     0.038     2.474     2.459
    66   1 H        0.926     0.031     2.577     2.510
    67   1 H        0.860     0.166     1.300     1.786
    68   1 H        0.926     0.027     2.635     2.538
    69   1 H        0.926     0.029     2.602     2.522
    70   1 H        0.926     0.036     2.498     2.472
    71   1 H        0.926     0.039     2.464     2.455
    72   1 H        0.926     0.040     2.445     2.445
    73   1 H        0.926     0.029     2.600     2.521
    74   1 H        0.926     0.029     2.602     2.523
    75   1 H        0.926     0.027     2.624     2.533
    76   1 H        0.860     0.196     1.129     1.664
    77   1 H        0.926     0.047     2.363     2.404
    78   1 H        0.926     0.043     2.410     2.428

molecular dipole:
                 x           y           z       tot (Debye)
 q only:        0.470      -1.201       0.798
   full:        0.851      -2.049       1.227       6.443

 projected vibrational frequencies (cm⁻¹)
eigval :       -0.00    -0.00     0.00     0.00     0.00     0.00
eigval :        7.53    12.29    16.31    24.64    25.55    33.93
eigval :       39.88    43.16    46.23    51.46    55.98    60.28
eigval :       71.31    90.21    95.91   102.80   111.24   112.98
eigval :      140.42   169.09   174.97   185.06   200.65   211.37
eigval :      222.90   239.98   241.37   242.81   249.21   272.87
eigval :      285.64   289.05   293.80   301.68   308.22   319.71
eigval :      328.85   338.44   348.69   363.26   373.03   399.29
eigval :      400.86   403.21   431.08   436.12   442.56   459.36
eigval :      483.73   490.85   516.54   524.53   533.66   536.46
eigval :      539.03   540.35   540.80   545.21   549.16   549.92
eigval :      563.12   596.77   602.31   604.61   606.04   610.48
eigval :      613.51   616.41   630.00   638.52   659.60   667.34
eigval :      672.20   677.13   679.49   680.14   684.41   688.94
eigval :      713.67   714.86   715.77   728.74   740.96   772.78
eigval :      773.49   774.13   778.13   794.36   798.47   803.54
eigval :      818.87   827.82   861.96   866.18   866.84   867.16
eigval :      867.72   870.34   871.42   872.90   881.35   890.08
eigval :      892.97   897.38   898.25   898.85   899.79   900.46
eigval :      903.09   907.99   921.55   922.41   924.02   926.49
eigval :      928.47   932.86   953.48   957.09   983.26   996.22
eigval :      998.35  1002.28  1056.29  1057.15  1059.16  1070.10
eigval :     1077.41  1083.85  1091.63  1106.79  1120.18  1123.71
eigval :     1126.84  1127.55  1137.10  1137.30  1140.44  1165.96
eigval :     1171.78  1172.89  1174.30  1179.85  1184.21  1186.73
eigval :     1189.63  1200.09  1205.43  1219.46  1221.99  1223.59
eigval :     1245.67  1256.60  1261.01  1265.49  1287.69  1288.87
eigval :     1291.40  1299.26  1304.57  1307.25  1310.94  1315.15
eigval :     1321.24  1328.63  1338.44  1356.89  1364.30  1365.77
eigval :     1368.86  1369.85  1372.47  1382.06  1397.58  1404.98
eigval :     1410.17  1412.92  1420.37  1424.67  1435.49  1455.06
eigval :     1463.30  1468.41  1486.22  1491.23  1492.51  1492.95
eigval :     1529.34  1534.63  1536.90  1571.45  1571.88  1572.43
eigval :     1581.42  1583.92  1585.59  1591.36  1594.43  1596.65
eigval :     1622.86  1622.89  1624.41  3072.39  3073.29  3075.03
eigval :     3076.07  3078.90  3080.91  3081.16  3083.11  3087.23
eigval :     3088.79  3089.55  3092.47  3092.98  3094.30  3094.81
eigval :     3097.75  3101.35  3102.52  3103.24  3104.72  3106.81
eigval :     3109.04  3109.23  3117.05  3167.66  3479.62  3479.98

   temp. (K)  partition function   enthalpy   heat capacity  entropy
                                   cal/mol     cal/K/mol   cal/K/mol   J/K/mol
 298.15  VIB  0.208E+19            22891.879    143.908    142.899
         ROT  0.106E+09              888.752      2.981     39.698
         INT  0.220E+27            23780.632    146.889    182.597
         TR   0.163E+29             1481.254      4.968     45.312
         TOT                       25261.8857   151.8572   227.9095   953.5735

       T/K    H(0)-H(T)+PV         H(T)/Eh          T*S/Eh         G(T)/Eh
   ------------------------------------------------------------------------
    298.15    0.402574E-01    0.622017E+00    0.108287E+00    0.513730E+00
   ------------------------------------------------------------------------

         :::::::::::::::::::::::::::::::::::::::::::::::::::::
         ::                  THERMODYNAMIC                  ::
         :::::::::::::::::::::::::::::::::::::::::::::::::::::
         :: total free energy        -129.534031326716 Eh   ::
         ::.................................................::
         :: total energy             -130.047761535222 Eh   ::
         :: zero point energy           0.581760007406 Eh   ::
         :: G(RRHO) w/o ZPVE           -0.068029798899 Eh   ::
         :: G(RRHO) contrib.            0.513730208506 Eh   ::
         :::::::::::::::::::::::::::::::::::::::::::::::::::::

           -------------------------------------------------
          | TOTAL ENERGY             -130.047761535222 Eh   |
          | TOTAL ENTHALPY           -129.425744150383 Eh   |
          | TOTAL FREE ENERGY        -129.534031326716 Eh   |
          | GRADIENT NORM               0.000051097789 Eh/α |
          | HOMO-LUMO GAP               1.904529815293 eV   |
           -------------------------------------------------

 * finished run on 2025/09/14 at 10:49:02.709
