   * xtb version 6.7.1 (edcfbbe) compiled by 'albert@albert-system' on 2024-07-22

   ID    Z sym.   atoms
    1    6 C      1-4, 6-11, 13-15, 19-25, 27-32, 34-41, 43-48, 50, 51
    2    7 N      5, 12, 16-18, 26, 33, 42, 49
    3    1 H      52-78

          program call               : xtb data2507/gas/BMZ-TZ/BMZ-TZ_gas_S0_crest.xyz --gfn 2 --ohess vtight --parallel 40 --molden --ceasefiles --namespace data2507/gas/BMZ-TZ/BMZ-TZ_gas_S0_finalOpt
          :  Hamiltonian                  GFN2-xTB          :
 * total energy  :  -130.0541797 Eh     change       -0.2459785E-08 Eh
 * total energy  :  -130.0541807 Eh     change       -0.1036615E-05 Eh
 * total energy  :  -130.0541827 Eh     change       -0.2022605E-05 Eh
 * total energy  :  -130.0541843 Eh     change       -0.1559817E-05 Eh
 * total energy  :  -130.0541856 Eh     change       -0.1294886E-05 Eh
 * total energy  :  -130.0541871 Eh     change       -0.1546544E-05 Eh
 * total energy  :  -130.0541885 Eh     change       -0.1396327E-05 Eh
 * total energy  :  -130.0541894 Eh     change       -0.9030034E-06 Eh
 * total energy  :  -130.0541903 Eh     change       -0.8622625E-06 Eh
 * total energy  :  -130.0541915 Eh     change       -0.1231572E-05 Eh
 * total energy  :  -130.0541971 Eh     change       -0.1538783E-05 Eh
 * total energy  :  -130.0541989 Eh     change       -0.1779854E-05 Eh
 * total energy  :  -130.0542005 Eh     change       -0.1578646E-05 Eh
 * total energy  :  -130.0542015 Eh     change       -0.1043094E-05 Eh
 * total energy  :  -130.0542022 Eh     change       -0.6821355E-06 Eh
 * total energy  :  -130.0542027 Eh     change       -0.5277472E-06 Eh
 * total energy  :  -130.0542033 Eh     change       -0.5376475E-06 Eh
 * total energy  :  -130.0542039 Eh     change       -0.6024596E-06 Eh
 * total energy  :  -130.0542039 Eh     change       -0.9002520E-08 Eh
   *** GEOMETRY OPTIMIZATION CONVERGED AFTER 22 ITERATIONS ***

 final structure:
================
78
 xtb: 6.7.1 (edcfbbe)
C           -3.84318497323794        3.96676254464272        2.00627577270747
C           -4.45266900886921        2.90068653850031        1.37054431082146
C           -3.73763225419330        2.15520213875824        0.43566583870837
C           -4.33670096260710        0.98540479365404       -0.18681678435296
N           -3.68729291056137       -0.11724643539583       -0.46270511753453
C           -4.61045776798519       -0.98613685966974       -0.98739674294518
C           -4.46570088465774       -2.29560854967529       -1.43429150407821
C           -5.59271170086643       -2.93112888832327       -1.90925750753354
C           -6.83650731914554       -2.29590067468836       -1.94694901721158
C           -7.00128397369953       -0.99806102202639       -1.50694670374006
C           -5.87415187974943       -0.35357200081315       -1.02459721715729
N           -5.66478713770191        0.89627095652097       -0.49947871652042
C           -2.42138749372053        2.49488002322473        0.13067037678907
C           -1.79628007000618        3.54576597415767        0.79090499022743
C           -0.39471988573472        3.94809101135105        0.57899460610585
N           -0.14393261351385        5.20898445714578        0.96159213027800
N            1.02313671729618        5.72822360346057        0.87287113682606
N            2.05528690467511        5.02734051575130        0.56139353468715
C            1.92902497683127        3.75929129175874        0.17578110593276
C            3.17793489182868        3.05714445306083       -0.13891756522899
C            4.22941443054736        3.78135426841597       -0.69966862297543
C            5.41005552308906        3.14244793710267       -1.03523994424489
C            5.54697638957396        1.78130508329734       -0.84427290766011
C            4.50641345344555        1.04388655299342       -0.27508135371900
C            4.65412851604818       -0.39232353809283       -0.12862455497818
N            5.80067210632881       -1.02054950271443       -0.19948760888700
C            5.51298772643992       -2.34954639838804       -0.06242455326754
C            6.34652115114949       -3.46535255965271       -0.06170902290752
C            5.75507420409133       -4.70146025017404        0.08081754210731
C            4.37037925531424       -4.84827447993262        0.21855526730528
C            3.52283299974459       -3.76006734088659        0.22441485511366
C            4.11476235342985       -2.51468464596060        0.08729440366261
N            3.59673606311589       -1.24975307640190        0.05223310981692
C            3.33942100616996        1.69676216107163        0.10678265211125
C            0.64740858285936        3.17193973071336        0.04707719904399
C            0.55414465393319        1.86807947614383       -0.62623979654380
C            1.08661998139694        1.75202237489027       -1.90993932224054
C            1.18501735738280        0.51426076316659       -2.51774260425064
C            0.75487955206640       -0.62122711925120       -1.85641057307563
C            0.17438789928147       -0.50992221834380       -0.59527844267716
C           -0.34069083547157       -1.69546504526107        0.08322386675099
N            0.33236762485475       -2.79147959067771        0.31636583215254
C           -0.54780880709197       -3.63020496290700        0.95145138273186
C           -0.37818769713200       -4.92502811710030        1.42963157651338
C           -1.46850630099237       -5.53817705667235        2.00867296380783
C           -2.70408209928008       -4.89483037178432        2.11868717867812
C           -2.89292701511154       -3.60763391368471        1.65928355796755
C           -1.80117445560655       -2.98094249673913        1.08019277989526
N           -1.62581863940562       -1.73642260620117        0.53875675295482
C            0.07597437173917        0.73300562535327        0.01916838655174
C           -2.52759369001094        4.28084716771040        1.72972910102785
H           -4.39333887246084        4.54699414056745        2.73147617434775
H           -5.46882007484280        2.63058027954598        1.61986373562348
H           -3.50786613906388       -2.78965301536995       -1.40665106327089
H           -5.51689415794633       -3.94840831624435       -2.26222105133057
H           -7.68947556987255       -2.83621379525776       -2.32867886048087
H           -7.96289999974904       -0.50831915174832       -1.53444356424286
H           -6.34727047053516        1.62952286465427       -0.40690088192355
H           -1.91822611743881        1.93120198824548       -0.63711888210967
H            4.10141767795682        4.83949466400788       -0.86684149032147
H            6.22222015938554        3.71107398426234       -1.46269625392961
H            6.44851820567849        1.25942473387811       -1.12234304248341
H            7.41334027001790       -3.35357881371009       -0.17145177156089
H            6.37347887094720       -5.58752781408751        0.08430994942855
H            3.95991402748741       -5.84232713526405        0.32135941794557
H            2.45191883606856       -3.84888559153446        0.32261891115387
H            2.61463761869139       -1.03093249677626        0.08251567584593
H            2.56750050691378        1.14875300937052        0.62419689714234
H            1.43801355403682        2.63650392719609       -2.42106752688854
H            1.61276262626161        0.43556342016600       -3.50537738590536
H            0.85151997331619       -1.59711523401087       -2.30592366369685
H            0.57344993514149       -5.42527072589102        1.34371254662308
H           -1.37155684018188       -6.54503751226804        2.38742828288325
H           -3.52958148816437       -5.42060756814777        2.57552097137042
H           -3.84699107845396       -3.10792868542389        1.73984378706466
H           -2.34802346171807       -1.04529339580055        0.31666677447875
H           -0.33470809996694        0.80843805333075        1.01648416077066
H           -2.04159236509632        5.10245822708522        2.23127532183822

          :  Hamiltonian                  GFN2-xTB          :
         :: gradient norm              0.000065247306 Eh/a0 ::
         :: HOMO-LUMO gap              1.764286580861 eV    ::
         :: SCC energy              -132.315071807876 Eh    ::
         :: -> dispersion             -0.118842273130 Eh    ::
         :: repulsion energy           2.260867927330 Eh    ::

    * Orbital Energies and Occupations

         #    Occupation            Energy/Eh            Energy/eV
      -------------------------------------------------------------
         1        2.0000           -0.7137289             -19.4216
       ...           ...                  ...                  ...
       108        2.0000           -0.4152294             -11.2990
       109        2.0000           -0.4098182             -11.1517
       110        2.0000           -0.4080311             -11.1031
       111        2.0000           -0.4073598             -11.0848
       112        2.0000           -0.4029347             -10.9644
       113        2.0000           -0.3837374             -10.4420
       114        2.0000           -0.3811874             -10.3726
       115        2.0000           -0.3798776             -10.3370
       116        2.0000           -0.3766739             -10.2498
       117        2.0000           -0.3737675             -10.1707
       118        2.0000           -0.3695102             -10.0549
       119        2.0000           -0.3669662              -9.9857
       120        2.0000           -0.3657250              -9.9519 (HOMO)
       121                         -0.3008886              -8.1876 (LUMO)
       122                         -0.2954055              -8.0384
       123                         -0.2818617              -7.6698
       124                         -0.2619383              -7.1277
       125                         -0.2583659              -7.0305
       126                         -0.2468078              -6.7160
       127                         -0.2449246              -6.6647
       128                         -0.2389267              -6.5015
       129                         -0.2254846              -6.1357
       130                         -0.2245150              -6.1094
       131                         -0.2205162              -6.0006
       ...                                ...                  ...
       231                          0.7124692              19.3873
      -------------------------------------------------------------
                  HL-Gap            0.0648363 Eh            1.7643 eV

     #   Z          covCN         q      C6AA      α(0)
     1   6 C        2.916    -0.025    28.620     8.773
     2   6 C        2.924    -0.031    28.775     8.797
     3   6 C        2.974    -0.003    28.094     8.694
     4   6 C        3.165     0.144    24.553     8.098
     5   7 N        1.892    -0.300    28.637     7.933
     6   6 C        3.188     0.066    26.073     8.330
     7   6 C        2.910    -0.041    29.028     8.835
     8   6 C        2.924    -0.036    28.886     8.814
     9   6 C        2.927    -0.033    28.814     8.803
    10   6 C        2.908    -0.052    29.282     8.873
    11   6 C        3.082     0.044    26.931     8.507
    12   7 N        2.782    -0.122    23.647     7.222
    13   6 C        2.926    -0.031    28.773     8.797
    14   6 C        2.979     0.009    27.800     8.649
    15   6 C        2.933     0.091    25.968     8.357
    16   7 N        1.938    -0.162    25.291     7.457
    17   7 N        2.020    -0.024    22.367     7.015
    18   7 N        1.932    -0.156    25.147     7.436
    19   6 C        2.944     0.098    25.819     8.334
    20   6 C        2.979     0.003    27.964     8.674
    21   6 C        2.925    -0.027    28.664     8.780
    22   6 C        2.916    -0.025    28.626     8.774
    23   6 C        2.926    -0.024    28.600     8.770
    24   6 C        2.973     0.003    27.948     8.672
    25   6 C        3.180     0.136    24.643     8.104
    26   7 N        1.889    -0.288    28.325     7.890
    27   6 C        3.197     0.066    26.021     8.316
    28   6 C        2.910    -0.043    29.073     8.841
    29   6 C        2.923    -0.041    29.007     8.832
    30   6 C        2.928    -0.035    28.873     8.812
    31   6 C        2.906    -0.057    29.422     8.894
    32   6 C        3.088     0.045    26.891     8.500
    33   7 N        2.778    -0.126    23.730     7.235
    34   6 C        2.927    -0.038    28.939     8.822
    35   6 C        2.970    -0.002    28.079     8.692
    36   6 C        2.975     0.009    27.802     8.649
    37   6 C        2.927    -0.031    28.780     8.798
    38   6 C        2.917    -0.026    28.649     8.777
    39   6 C        2.924    -0.029    28.728     8.790
    40   6 C        2.975     0.000    28.023     8.683
    41   6 C        3.210     0.140    24.375     8.037
    42   7 N        1.884    -0.308    28.823     7.959
    43   6 C        3.206     0.065    25.957     8.297
    44   6 C        2.910    -0.043    29.078     8.842
    45   6 C        2.923    -0.040    29.001     8.831
    46   6 C        2.926    -0.037    28.920     8.819
    47   6 C        2.907    -0.053    29.305     8.877
    48   6 C        3.101     0.043    26.920     8.502
    49   7 N        2.773    -0.142    24.072     7.287
    50   6 C        2.926    -0.037    28.911     8.818
    51   6 C        2.929    -0.024    28.600     8.770
    52   1 H        0.926     0.046     2.368     2.407
    53   1 H        0.926     0.034     2.532     2.488
    54   1 H        0.926     0.046     2.375     2.410
    55   1 H        0.926     0.040     2.451     2.448
    56   1 H        0.926     0.039     2.461     2.453
    57   1 H        0.926     0.031     2.566     2.505
    58   1 H        0.860     0.166     1.295     1.782
    59   1 H        0.926     0.054     2.270     2.356
    60   1 H        0.926     0.057     2.237     2.339
    61   1 H        0.926     0.045     2.380     2.412
    62   1 H        0.926     0.067     2.122     2.278
    63   1 H        0.926     0.040     2.447     2.446
    64   1 H        0.926     0.029     2.606     2.525
    65   1 H        0.926     0.029     2.597     2.520
    66   1 H        0.926     0.058     2.222     2.331
    67   1 H        0.860     0.167     1.293     1.781
    68   1 H        0.926     0.028     2.618     2.530
    69   1 H        0.926     0.033     2.543     2.494
    70   1 H        0.926     0.042     2.417     2.431
    71   1 H        0.926     0.051     2.309     2.376
    72   1 H        0.926     0.041     2.441     2.443
    73   1 H        0.926     0.030     2.585     2.514
    74   1 H        0.926     0.028     2.608     2.525
    75   1 H        0.926     0.022     2.703     2.571
    76   1 H        0.860     0.198     1.115     1.654
    77   1 H        0.926     0.034     2.529     2.487
    78   1 H        0.926     0.072     2.065     2.247

molecular dipole:
                 x           y           z       tot (Debye)
 q only:       -2.378       0.563      -0.591
   full:       -4.113       0.217      -0.731      10.633

 projected vibrational frequencies (cm⁻¹)
eigval :       -0.00    -0.00    -0.00     0.00     0.00     0.00
eigval :       10.12    16.00    22.44    26.82    30.34    33.12
eigval :       39.87    45.49    50.75    59.05    63.58    72.72
eigval :       73.58    82.32    92.91   106.91   123.30   128.42
eigval :      143.92   163.41   178.10   187.40   198.98   205.58
eigval :      241.72   241.90   243.64   246.41   255.78   259.67
eigval :      270.53   273.84   295.52   296.14   304.40   324.26
eigval :      330.06   341.76   359.63   369.63   381.23   400.01
eigval :      402.45   404.96   431.15   436.44   442.87   456.28
eigval :      470.13   491.26   511.30   528.39   535.88   538.46
eigval :      538.71   541.39   542.62   545.24   548.14   562.01
eigval :      567.75   595.34   603.20   605.67   609.82   611.50
eigval :      615.17   623.02   628.52   642.43   660.22   667.46
eigval :      674.74   677.60   678.73   681.19   682.97   689.53
eigval :      714.49   716.04   717.24   741.69   770.88   773.10
eigval :      773.80   774.49   779.67   794.98   802.14   804.61
eigval :      820.91   825.41   863.03   865.94   868.06   868.83
eigval :      870.20   873.39   877.38   884.51   885.80   887.91
eigval :      894.68   898.15   900.39   901.71   903.72   904.51
eigval :      905.34   906.27   922.01   924.76   925.06   927.94
eigval :      931.13   931.51   954.19   959.08   977.32   997.86
eigval :     1000.18  1003.31  1054.65  1059.66  1061.80  1067.23
eigval :     1075.21  1093.52  1099.77  1106.26  1119.70  1127.16
eigval :     1133.21  1134.08  1134.63  1139.40  1143.30  1160.82
eigval :     1170.74  1174.04  1174.20  1177.38  1185.97  1186.68
eigval :     1187.48  1204.13  1205.42  1220.67  1222.37  1227.89
eigval :     1246.45  1259.33  1261.69  1263.67  1286.52  1287.84
eigval :     1290.92  1292.99  1303.98  1306.24  1307.62  1313.82
eigval :     1318.71  1328.17  1330.55  1354.11  1361.23  1364.02
eigval :     1368.44  1370.10  1375.89  1380.43  1403.14  1407.89
eigval :     1411.28  1415.26  1424.90  1427.20  1435.00  1439.28
eigval :     1457.22  1464.11  1480.03  1491.39  1492.55  1494.33
eigval :     1527.91  1533.96  1543.25  1567.24  1569.24  1571.93
eigval :     1582.40  1584.23  1585.45  1591.67  1592.29  1599.43
eigval :     1621.13  1622.63  1625.88  3072.56  3073.25  3075.03
eigval :     3077.06  3079.56  3081.98  3082.57  3083.55  3087.28
eigval :     3089.45  3090.31  3093.34  3095.75  3099.39  3099.43
eigval :     3100.45  3103.34  3104.72  3105.37  3108.04  3110.38
eigval :     3114.56  3115.72  3126.32  3131.80  3464.03  3479.13

   temp. (K)  partition function   enthalpy   heat capacity  entropy
                                   cal/mol     cal/K/mol   cal/K/mol   J/K/mol
 298.15  VIB  0.362E+18            22758.761    144.234    141.091
         ROT  0.801E+08              888.752      2.981     39.148
         INT  0.290E+26            23647.513    147.215    180.239
         TR   0.163E+29             1481.254      4.968     45.312
         TOT                       25128.7672   152.1828   225.5511   943.7057

       T/K    H(0)-H(T)+PV         H(T)/Eh          T*S/Eh         G(T)/Eh
   ------------------------------------------------------------------------
    298.15    0.400452E-01    0.622309E+00    0.107167E+00    0.515142E+00
   ------------------------------------------------------------------------

         :::::::::::::::::::::::::::::::::::::::::::::::::::::
         ::                  THERMODYNAMIC                  ::
         :::::::::::::::::::::::::::::::::::::::::::::::::::::
         :: total free energy        -129.539061766579 Eh   ::
         ::.................................................::
         :: total energy             -130.054203880544 Eh   ::
         :: zero point energy           0.582263473784 Eh   ::
         :: G(RRHO) w/o ZPVE           -0.067121359820 Eh   ::
         :: G(RRHO) contrib.            0.515142113964 Eh   ::
         :::::::::::::::::::::::::::::::::::::::::::::::::::::

           -------------------------------------------------
          | TOTAL ENERGY             -130.054203880544 Eh   |
          | TOTAL ENTHALPY           -129.431895167169 Eh   |
          | TOTAL FREE ENERGY        -129.539061766579 Eh   |
          | GRADIENT NORM               0.000065247308 Eh/α |
          | HOMO-LUMO GAP               1.764286787821 eV   |
           -------------------------------------------------

 * finished run on 2025/09/14 at 10:52:50.084
