   * xtb version 6.7.1 (edcfbbe) compiled by 'albert@albert-system' on 2024-07-22

   ID    Z sym.   atoms
    1    6 C      1-81
    2    1 H      82-129

          program call               : xtb data2507/toluene/TSBFB/TSBFB_toluene_S0_crest.xyz --gfn 2 --gbsa toluene --ohess vtight --parallel 40 --molden --ceasefiles --namespace data2507/toluene/TSBFB/TSBFB_toluene_S0_finalOpt
      * Solvation model:               GBSA
        Solvent                        toluene
        Solvent mass                       9.2140E+01 g/mol
          :  Hamiltonian                  GFN2-xTB          :
 * total energy  :  -198.1051679 Eh     change       -0.3246015E-08 Eh
 * total energy  :  -198.1052208 Eh     change       -0.5293337E-04 Eh
 * total energy  :  -198.1052699 Eh     change       -0.4914180E-04 Eh
 * total energy  :  -198.1052971 Eh     change       -0.2714418E-04 Eh
 * total energy  :  -198.1053410 Eh     change       -0.4392262E-04 Eh
 * total energy  :  -198.1053647 Eh     change       -0.2367282E-04 Eh
 * total energy  :  -198.1053875 Eh     change       -0.2283960E-04 Eh
 * total energy  :  -198.1054096 Eh     change       -0.2207478E-04 Eh
 * total energy  :  -198.1054237 Eh     change       -0.1407699E-04 Eh
 * total energy  :  -198.1054360 Eh     change       -0.1227585E-04 Eh
 * total energy  :  -198.1055975 Eh     change       -0.4639591E-06 Eh
 * total energy  :  -198.1055980 Eh     change       -0.4339103E-06 Eh
 * total energy  :  -198.1055984 Eh     change       -0.4203519E-06 Eh
 * total energy  :  -198.1055988 Eh     change       -0.4546960E-06 Eh
 * total energy  :  -198.1055993 Eh     change       -0.4998792E-06 Eh
 * total energy  :  -198.1055999 Eh     change       -0.5514025E-06 Eh
 * total energy  :  -198.1056006 Eh     change       -0.6694157E-06 Eh
 * total energy  :  -198.1056013 Eh     change       -0.7715316E-06 Eh
 * total energy  :  -198.1056013 Eh     change       -0.8538080E-08 Eh
   *** GEOMETRY OPTIMIZATION CONVERGED AFTER 68 ITERATIONS ***

 final structure:
================
129
 xtb: 6.7.1 (edcfbbe)
C            6.09134848604298        3.21691379665457        1.97128919311412
C            5.03161901563770        3.65248065143789        2.75264567643087
C            3.85291665079681        4.09626304058518        2.16755501488794
C            3.76051168201672        4.09193284410287        0.79272359421113
C            4.82594593997752        3.64521834779062       -0.00206797470531
C            5.99944080936034        3.20590664979261        0.58871700422260
C            4.43918228680702        3.76329011518976       -1.39972203269718
C            5.12075281615893        3.45264597250082       -2.56524589587059
C            4.49534333526932        3.68007117588903       -3.78109611815076
C            3.21343736747684        4.20705556305310       -3.83455822535520
C            2.52312102919334        4.51871835833887       -2.67027467539368
C            3.14161597822977        4.29397256818888       -1.45945891870983
C            2.60661954024929        4.54758512888680       -0.07141533584032
C            2.22982524464401        5.98628819865309        0.19524281436593
C            3.01090157825787        7.11385675111654        0.06564466146770
C            2.45467250661376        8.34522499798739        0.38750375819149
C            1.14432505853008        8.43805434046667        0.83315569977590
C            0.35599956646317        7.30593290910453        0.96598983077253
C            0.90353995992530        6.07419542828274        0.64435604992586
C            0.33769565003318        4.73589223200384        0.67170568979677
C           -0.91929946457086        4.27574409430889        1.02967972617603
C           -1.18647350682000        2.92202803353587        0.93314967997499
C           -0.22653519035686        2.01504403779434        0.47876632021745
C           -0.55404179904879        0.58636186885076        0.35375509042444
C           -1.82358193239440        0.19171860502956       -0.05955256272043
C           -2.15119462589566       -1.15352451453669       -0.19011626707778
C           -3.49775775220137       -1.54627038221647       -0.63373790639849
C           -3.66595102426760       -2.56188249927502       -1.57550412587732
C           -4.92179755804616       -2.93076993106725       -2.02453930350855
C           -6.03237837667589       -2.27617168061982       -1.51579664767600
C           -5.86930061660264       -1.26494316119610       -0.55721333946990
C           -4.62030859815875       -0.89381186595165       -0.11825393318652
C           -7.20876782770182       -0.70176847584439       -0.14449916318483
C           -7.31205940871385        0.79228965481805       -0.33727448848165
C           -7.14284752837465        1.51975172070185       -1.49541422295611
C           -7.27533525539894        2.90113014126365       -1.43504882847634
C           -7.57088174710633        3.53475837913384       -0.23699950498815
C           -7.74120851639281        2.80643653312011        0.93000897038039
C           -7.61021647198534        1.42799435017232        0.87730637058043
C           -7.72364589357917        0.41284907593192        1.91358772001271
C           -8.00606634032583        0.51488197554518        3.26626643646877
C           -8.05062574378660       -0.64456580030367        4.02447208411421
C           -7.81651819489946       -1.88323641993800        3.44577018464504
C           -7.53317392022751       -1.99315348544613        2.09053398056530
C           -7.48881953178905       -0.84256789203077        1.33359679260848
C           -8.15732682885916       -1.50132367384329       -1.00620801251834
C           -9.53075564878490       -1.41588219987159       -1.07375854461834
C          -10.20497997286776       -2.26281283991560       -1.94411955977843
C           -9.51234480185927       -3.17464171151862       -2.72699872370040
C           -8.13090076355084       -3.26478187441810       -2.66059131321231
C           -7.45137611733846       -2.42226840693125       -1.79533205745747
C           -1.18796141590841       -2.11434795692832        0.09629097402184
C            0.08841202132514       -1.74422988022831        0.50783729919590
C            1.09995538082186       -2.77540570909597        0.78884936340744
C            0.75636265145359       -3.92636223343833        1.49922519799533
C            1.68221411570153       -4.92218329436349        1.75483452053498
C            2.97552805378561       -4.76886820783810        1.28123625206454
C            3.32670674108368       -3.61390565765965        0.56609683587431
C            2.40773899156693       -2.61987381207315        0.32251926277018
C            4.77425730936973       -3.67356788920519        0.13943380202267
C            5.60757585059569       -2.51438855287332        0.63174057169939
C            5.81900806573671       -2.10242669874955        1.92965472908570
C            6.64989669515151       -1.01182780684244        2.15065202577642
C            7.25432313252352       -0.35333846443518        1.09035427654997
C            7.03837460753451       -0.76031854566926       -0.21644304816088
C            6.20986985796992       -1.84678663833319       -0.44484947659257
C            5.80725507327876       -2.50367889346585       -1.67899721297793
C            6.12025131884080       -2.23509947967638       -3.00174199547104
C            5.58560688468540       -3.04794166947802       -3.98889976111373
C            4.75318334038826       -4.10889824198229       -3.66420702749542
C            4.43430706649935       -4.38342390737839       -2.34049806590954
C            4.96422529639267       -3.57740261140475       -1.35639944073001
C            5.20984438928487       -5.00296105449245        0.71072234659354
C            6.45037012170365       -5.59876412862697        0.64255999697267
C            6.62438660900441       -6.83692410825916        1.24744344976734
C            5.57398075957349       -7.46006363504092        1.90507705214656
C            4.32464185350723       -6.86422214835852        1.97511420281000
C            4.14388240730857       -5.62842793834631        1.37472999348618
C            0.39508424959057       -0.39311692899842        0.63392583198877
C            1.04461032613559        2.48355715234275        0.13374606185834
C            1.31457237519479        3.82822157546876        0.23570033375172
H            7.00088229774816        2.88413141540797        2.44981212306115
H            5.12483724552691        3.65091847462969        3.82905440382903
H            3.02889542926837        4.44082128876507        2.77604627609637
H            6.82677305607371        2.86552291780163       -0.01535210199224
H            6.11926056095551        3.04277733540514       -2.52853400405700
H            5.01235730703092        3.44475475147263       -4.70042029175537
H            2.74538244340299        4.37711817782399       -4.79336753942986
H            1.52382033807301        4.92780872876518       -2.71343849101998
H            4.03278272632861        7.04198504527540       -0.27861575860076
H            3.05066642413868        9.24112388821454        0.29069953893996
H            0.73360696748103        9.40673624704942        1.07947221258913
H           -0.66381343218645        7.38339174968615        1.31316251421100
H           -1.67967710471932        4.95835637480296        1.37960573057113
H           -2.15835152070133        2.55565139357896        1.23000410106740
H           -2.55674579132450        0.93944926690425       -0.32381972936022
H           -2.79134987087473       -3.05145198718890       -1.97919851145836
H           -5.03032684998080       -3.71121701230688       -2.76324154095361
H           -4.50635099549025       -0.11986005729910        0.62709212809680
H           -6.91142263326537        1.02715656713257       -2.42909097531421
H           -7.14619239299712        3.48879941478375       -2.33242670549838
H           -7.66910238053338        4.61072312382513       -0.21448294970865
H           -7.97049480308631        3.30441925421535        1.86066278987183
H           -8.18947681784272        1.47685903776192        3.72185617224717
H           -8.27048735215046       -0.58393849551915        5.08076641753936
H           -7.85632360921848       -2.77393706405991        4.05597954450686
H           -7.35246406954329       -2.95878255942384        1.64023180803867
H          -10.07123730980541       -0.70590285653636       -0.46414766943970
H          -11.28190351225414       -2.20966743715160       -2.01220240374820
H          -10.05830857796001       -3.82321824491696       -3.39710910211225
H           -7.59613025039591       -3.97615841126384       -3.27258377677915
H           -1.43261151706178       -3.16132480922729       -0.00562383915670
H           -0.25228348148984       -4.03020644736597        1.87259700576968
H            1.39770230078361       -5.80307761499257        2.31130359370925
H            2.68388770401577       -1.74141695571427       -0.24311683553414
H            5.35137600356185       -2.61809037328156        2.75637280252170
H            6.82956683517951       -0.67555073849011        3.16145455785341
H            7.90256458538017        0.48757612406320        1.28755120071112
H            7.51125965915730       -0.24557868438500       -1.03971093385943
H            6.76822417190134       -1.41060038423774       -3.26016141687754
H            5.82013296770388       -2.85374054353956       -5.02574253641808
H            4.34806777408653       -4.72982489056742       -4.45010457728870
H            3.78568200209384       -5.21021012677496       -2.08838006329996
H            7.26904804507297       -5.11392902260923        0.13012694578592
H            7.58977176927126       -7.32011663495132        1.20533949792418
H            5.73289320666042       -8.42335256424011        2.36826489700164
H            3.51008107657643       -7.35380662032611        2.48822140767410
H            1.37366755935224       -0.10443647762812        0.98917299886355
H            1.79891301363317        1.80198335665935       -0.23203886024175

          :  Hamiltonian                  GFN2-xTB          :
         :: gradient norm              0.000065431773 Eh/a0 ::
         :: HOMO-LUMO gap              3.015498027605 eV    ::
         :: SCC energy              -201.994702872639 Eh    ::
         :: -> dispersion             -0.199108806447 Eh    ::
         :: -> Gsolv                  -0.078904872232 Eh    ::
         :: repulsion energy           3.889101540570 Eh    ::

    * Orbital Energies and Occupations

         #    Occupation            Energy/Eh            Energy/eV
      -------------------------------------------------------------
         1        2.0000           -0.6625707             -18.0295
       ...           ...                  ...                  ...
       174        2.0000           -0.3985863             -10.8461
       175        2.0000           -0.3952741             -10.7560
       176        2.0000           -0.3949928             -10.7483
       177        2.0000           -0.3948536             -10.7445
       178        2.0000           -0.3946584             -10.7392
       179        2.0000           -0.3943070             -10.7296
       180        2.0000           -0.3940450             -10.7225
       181        2.0000           -0.3821779             -10.3996
       182        2.0000           -0.3809130             -10.3652
       183        2.0000           -0.3804826             -10.3535
       184        2.0000           -0.3763594             -10.2413
       185        2.0000           -0.3726274             -10.1397
       186        2.0000           -0.3714543             -10.1078 (HOMO)
       187                         -0.2606368              -7.0923 (LUMO)
       188                         -0.2603273              -7.0839
       189                         -0.2537199              -6.9041
       190                         -0.2525191              -6.8714
       191                         -0.2520255              -6.8580
       192                         -0.2517889              -6.8515
       193                         -0.2261157              -6.1529
       194                         -0.2258141              -6.1447
       195                         -0.2256130              -6.1392
       196                         -0.2254967              -6.1361
       197                         -0.2254729              -6.1354
       ...                                ...                  ...
       372                          0.7341381              19.9769
      -------------------------------------------------------------
                  HL-Gap            0.1108175 Eh            3.0155 eV

     #   Z          covCN         q      C6AA      α(0)
     1   6 C        2.921    -0.032    28.809     8.802
     2   6 C        2.923    -0.033    28.811     8.802
     3   6 C        2.914    -0.034    28.843     8.807
     4   6 C        3.057     0.006    27.837     8.653
     5   6 C        3.035     0.000    27.993     8.678
     6   6 C        2.915    -0.034    28.844     8.807
     7   6 C        3.036     0.000    27.987     8.677
     8   6 C        2.914    -0.034    28.856     8.809
     9   6 C        2.921    -0.033    28.829     8.805
    10   6 C        2.922    -0.033    28.812     8.802
    11   6 C        2.913    -0.034    28.835     8.805
    12   6 C        3.054     0.005    27.853     8.655
    13   6 C        3.978     0.010    20.343     6.408
    14   6 C        3.056     0.006    27.841     8.653
    15   6 C        2.913    -0.034    28.840     8.806
    16   6 C        2.923    -0.033    28.815     8.803
    17   6 C        2.921    -0.033    28.832     8.805
    18   6 C        2.914    -0.035    28.869     8.811
    19   6 C        3.035     0.001    27.981     8.676
    20   6 C        3.036    -0.002    28.035     8.685
    21   6 C        2.913    -0.035    28.883     8.813
    22   6 C        2.926    -0.038    28.935     8.821
    23   6 C        2.978     0.007    27.853     8.657
    24   6 C        2.973     0.009    27.821     8.652
    25   6 C        2.931    -0.041    29.028     8.836
    26   6 C        2.974     0.009    27.819     8.652
    27   6 C        2.980     0.008    27.844     8.656
    28   6 C        2.925    -0.038    28.938     8.822
    29   6 C        2.913    -0.035    28.876     8.812
    30   6 C        3.036    -0.002    28.039     8.685
    31   6 C        3.053     0.005    27.852     8.655
    32   6 C        2.919    -0.038    28.942     8.822
    33   6 C        3.977     0.010    20.344     6.408
    34   6 C        3.055     0.006    27.844     8.654
    35   6 C        2.913    -0.034    28.835     8.805
    36   6 C        2.922    -0.032    28.809     8.802
    37   6 C        2.921    -0.033    28.828     8.805
    38   6 C        2.914    -0.035    28.864     8.810
    39   6 C        3.035     0.000    27.989     8.678
    40   6 C        3.035     0.000    27.991     8.678
    41   6 C        2.914    -0.035    28.864     8.810
    42   6 C        2.921    -0.033    28.831     8.805
    43   6 C        2.923    -0.032    28.809     8.802
    44   6 C        2.913    -0.034    28.837     8.806
    45   6 C        3.055     0.006    27.838     8.653
    46   6 C        3.055     0.005    27.846     8.654
    47   6 C        2.913    -0.034    28.839     8.806
    48   6 C        2.923    -0.033    28.815     8.803
    49   6 C        2.921    -0.033    28.830     8.805
    50   6 C        2.914    -0.035    28.869     8.811
    51   6 C        3.036     0.001    27.980     8.676
    52   6 C        2.930    -0.042    29.034     8.837
    53   6 C        2.974     0.009    27.819     8.652
    54   6 C        2.980     0.008    27.846     8.656
    55   6 C        2.926    -0.038    28.942     8.822
    56   6 C        2.913    -0.035    28.880     8.812
    57   6 C        3.036    -0.002    28.039     8.685
    58   6 C        3.052     0.005    27.858     8.656
    59   6 C        2.919    -0.037    28.931     8.820
    60   6 C        3.978     0.010    20.342     6.408
    61   6 C        3.055     0.005    27.847     8.654
    62   6 C        2.914    -0.034    28.839     8.806
    63   6 C        2.923    -0.032    28.803     8.801
    64   6 C        2.921    -0.032    28.806     8.801
    65   6 C        2.915    -0.034    28.847     8.807
    66   6 C        3.036     0.000    27.994     8.678
    67   6 C        3.035     0.000    27.988     8.677
    68   6 C        2.914    -0.035    28.860     8.809
    69   6 C        2.921    -0.033    28.831     8.805
    70   6 C        2.922    -0.033    28.812     8.802
    71   6 C        2.913    -0.034    28.838     8.806
    72   6 C        3.055     0.006    27.844     8.654
    73   6 C        3.056     0.006    27.843     8.654
    74   6 C        2.913    -0.034    28.839     8.806
    75   6 C        2.923    -0.033    28.815     8.803
    76   6 C        2.921    -0.033    28.832     8.805
    77   6 C        2.914    -0.035    28.870     8.811
    78   6 C        3.035     0.001    27.982     8.676
    79   6 C        2.929    -0.040    29.003     8.832
    80   6 C        2.918    -0.038    28.936     8.821
    81   6 C        3.052     0.005    27.861     8.657
    82   1 H        0.926     0.033     2.545     2.495
    83   1 H        0.926     0.032     2.557     2.500
    84   1 H        0.926     0.026     2.639     2.540
    85   1 H        0.926     0.035     2.522     2.484
    86   1 H        0.926     0.034     2.536     2.490
    87   1 H        0.926     0.033     2.547     2.496
    88   1 H        0.926     0.032     2.558     2.501
    89   1 H        0.926     0.027     2.634     2.538
    90   1 H        0.926     0.027     2.632     2.537
    91   1 H        0.926     0.032     2.553     2.499
    92   1 H        0.926     0.033     2.546     2.495
    93   1 H        0.926     0.034     2.534     2.489
    94   1 H        0.926     0.034     2.528     2.486
    95   1 H        0.926     0.034     2.529     2.487
    96   1 H        0.926     0.034     2.527     2.486
    97   1 H        0.926     0.035     2.523     2.484
    98   1 H        0.926     0.034     2.526     2.485
    99   1 H        0.926     0.028     2.613     2.528
   100   1 H        0.926     0.027     2.632     2.537
   101   1 H        0.926     0.032     2.556     2.500
   102   1 H        0.926     0.033     2.547     2.496
   103   1 H        0.926     0.034     2.535     2.490
   104   1 H        0.926     0.034     2.533     2.489
   105   1 H        0.926     0.033     2.547     2.496
   106   1 H        0.926     0.032     2.553     2.499
   107   1 H        0.926     0.027     2.629     2.536
   108   1 H        0.926     0.027     2.632     2.537
   109   1 H        0.926     0.032     2.555     2.500
   110   1 H        0.926     0.033     2.549     2.496
   111   1 H        0.926     0.034     2.535     2.490
   112   1 H        0.926     0.035     2.511     2.478
   113   1 H        0.926     0.035     2.518     2.482
   114   1 H        0.926     0.034     2.524     2.485
   115   1 H        0.926     0.027     2.630     2.536
   116   1 H        0.926     0.026     2.639     2.540
   117   1 H        0.926     0.032     2.558     2.501
   118   1 H        0.926     0.034     2.531     2.488
   119   1 H        0.926     0.033     2.543     2.494
   120   1 H        0.926     0.034     2.534     2.489
   121   1 H        0.926     0.033     2.547     2.496
   122   1 H        0.926     0.032     2.555     2.500
   123   1 H        0.926     0.027     2.634     2.538
   124   1 H        0.926     0.027     2.634     2.538
   125   1 H        0.926     0.032     2.554     2.499
   126   1 H        0.926     0.033     2.547     2.496
   127   1 H        0.926     0.034     2.534     2.489
   128   1 H        0.926     0.032     2.556     2.500
   129   1 H        0.926     0.028     2.619     2.531

molecular dipole:
                 x           y           z       tot (Debye)
 q only:        0.022      -0.006       0.009
   full:        0.006      -0.006       0.001       0.022

 projected vibrational frequencies (cm⁻¹)
eigval :       -0.00    -0.00    -0.00     0.00     0.00     0.00
eigval :        6.66     7.79     9.79    12.42    14.28    18.63
eigval :       19.57    21.95    24.59    31.46    39.62    41.77
eigval :       44.00    44.82    49.70    50.82    59.40    66.79
eigval :       72.16    73.32    83.64    91.71    96.47   110.45
eigval :      119.56   123.99   128.52   129.74   132.12   139.33
eigval :      142.75   151.04   153.84   163.99   181.55   190.95
eigval :      206.10   209.59   216.58   227.66   229.82   233.88
eigval :      234.35   235.34   240.08   249.68   258.56   271.45
eigval :      281.44   281.99   287.64   309.43   316.01   320.25
eigval :      336.04   338.78   350.02   357.56   371.09   385.58
eigval :      386.37   388.81   390.22   405.04   406.24   413.74
eigval :      413.92   414.07   414.63   416.31   416.99   438.96
eigval :      451.12   451.89   452.69   458.63   460.96   462.47
eigval :      470.82   472.68   475.33   481.49   483.83   499.51
eigval :      503.60   504.38   506.24   510.78   513.82   520.92
eigval :      538.33   538.50   539.19   553.36   563.59   576.78
eigval :      585.24   586.65   588.47   589.42   590.92   595.49
eigval :      596.31   603.87   604.17   604.65   618.21   622.64
eigval :      635.67   637.81   641.11   650.24   653.82   675.78
eigval :      684.91   685.68   688.63   689.03   689.52   689.58
eigval :      699.76   700.44   706.97   707.67   708.79   711.29
eigval :      735.16   735.24   739.98   740.37   740.85   753.11
eigval :      753.41   753.78   765.38   766.18   768.40   770.96
eigval :      773.64   774.80   775.45   784.83   785.49   787.32
eigval :      813.12   826.38   829.17   840.32   842.39   847.44
eigval :      868.77   876.08   877.05   877.25   877.52   877.86
eigval :      878.93   879.54   880.92   881.89   883.99   884.23
eigval :      893.57   893.86   898.83   899.58   900.22   903.99
eigval :      906.29   907.59   909.73   910.38   910.56   910.64
eigval :      911.51   913.41   914.79   916.22   916.73   918.48
eigval :      924.90   924.93   925.04   926.07   926.75   927.57
eigval :      927.79   928.59   928.84   929.10   929.74   938.62
eigval :      974.05   976.47   986.52  1007.59  1007.60  1007.91
eigval :     1009.24  1010.88  1011.65  1072.49  1072.55  1072.86
eigval :     1073.24  1073.64  1073.90  1075.97  1076.69  1077.34
eigval :     1077.57  1078.47  1079.09  1083.05  1112.97  1117.33
eigval :     1132.80  1133.21  1133.65  1141.84  1142.43  1143.05
eigval :     1154.73  1157.05  1157.55  1165.86  1169.26  1172.31
eigval :     1175.26  1175.80  1176.20  1176.60  1177.95  1178.21
eigval :     1179.94  1180.29  1181.56  1194.43  1195.61  1200.37
eigval :     1207.71  1207.97  1208.53  1220.26  1222.84  1223.31
eigval :     1224.10  1224.87  1230.55  1243.05  1243.86  1246.91
eigval :     1251.82  1258.08  1258.86  1259.47  1260.43  1261.29
eigval :     1261.55  1263.09  1264.90  1282.07  1283.27  1283.99
eigval :     1285.36  1290.75  1291.37  1317.55  1322.34  1323.95
eigval :     1324.73  1325.09  1325.56  1325.62  1344.34  1359.19
eigval :     1363.55  1364.31  1365.05  1365.08  1370.05  1406.48
eigval :     1415.22  1420.19  1425.08  1425.63  1426.93  1427.77
eigval :     1428.16  1429.88  1430.62  1431.01  1439.45  1440.34
eigval :     1446.72  1451.42  1456.44  1459.31  1460.40  1460.92
eigval :     1461.17  1469.87  1470.52  1470.82  1475.68  1478.58
eigval :     1482.56  1569.58  1570.62  1573.34  1576.68  1577.85
eigval :     1583.48  1584.11  1584.13  1591.78  1592.14  1592.19
eigval :     1594.25  1594.63  1594.71  1596.38  1596.71  1596.99
eigval :     1602.01  1602.52  1602.65  1602.86  1603.11  1603.39
eigval :     1603.56  1603.63  1603.98  3068.21  3068.53  3068.56
eigval :     3068.63  3068.67  3068.75  3068.81  3069.22  3070.56
eigval :     3071.53  3072.12  3072.53  3072.61  3072.63  3072.72
eigval :     3072.97  3073.72  3073.93  3074.15  3074.23  3075.66
eigval :     3075.84  3076.96  3077.54  3078.33  3080.00  3080.02
eigval :     3080.13  3080.42  3080.42  3080.67  3081.11  3081.43
eigval :     3082.43  3082.69  3084.02  3085.25  3086.00  3087.10
eigval :     3087.16  3088.14  3088.36  3088.69  3089.01  3089.07
eigval :     3089.52  3091.80  3092.80

   temp. (K)  partition function   enthalpy   heat capacity  entropy
                                   cal/mol     cal/K/mol   cal/K/mol   J/K/mol
 298.15  VIB  0.491E+30            36545.089    232.831    228.071
         ROT  0.382E+09              888.752      2.981     42.251
         INT  0.188E+39            37433.841    235.812    270.322
         TR   0.316E+29             1481.254      4.968     46.623
         TOT                       38915.0951   240.7802   316.9448  1326.0970

       T/K    H(0)-H(T)+PV         H(T)/Eh          T*S/Eh         G(T)/Eh
   ------------------------------------------------------------------------
    298.15    0.620152E-01    0.105341E+01    0.150591E+00    0.902820E+00
   ------------------------------------------------------------------------

         :::::::::::::::::::::::::::::::::::::::::::::::::::::
         ::                  THERMODYNAMIC                  ::
         :::::::::::::::::::::::::::::::::::::::::::::::::::::
         :: total free energy        -197.202781322409 Eh   ::
         ::.................................................::
         :: total energy             -198.105601334855 Eh   ::
         :: zero point energy           0.991395554946 Eh   ::
         :: G(RRHO) w/o ZPVE           -0.088575542500 Eh   ::
         :: G(RRHO) contrib.            0.902820012445 Eh   ::
         :::::::::::::::::::::::::::::::::::::::::::::::::::::

           -------------------------------------------------
          | TOTAL ENERGY             -198.105601334855 Eh   |
          | TOTAL ENTHALPY           -197.052190628467 Eh   |
          | TOTAL FREE ENERGY        -197.202781322409 Eh   |
          | GRADIENT NORM               0.000065433734 Eh/α |
          | HOMO-LUMO GAP               3.015497982767 eV   |
           -------------------------------------------------

 * finished run on 2025/09/10 at 10:14:38.573
