   * xtb version 6.7.1 (edcfbbe) compiled by 'albert@albert-system' on 2024-07-22

   ID    Z sym.   atoms
    1    6 C      1-81
    2    1 H      82-129

          program call               : xtb data2507/toluene/TSBFB/TSBFB_toluene_T1_crest.xyz --gfn 2 --uhf 2 --gbsa toluene --ohess vtight --parallel 40 --molden --ceasefiles --namespace data2507/toluene/TSBFB/TSBFB_toluene_T1_finalOpt
      * Solvation model:               GBSA
        Solvent                        toluene
        Solvent mass                       9.2140E+01 g/mol
          :  Hamiltonian                  GFN2-xTB          :
 * total energy  :  -198.0050598 Eh     change       -0.6711019E-08 Eh
 * total energy  :  -198.0051195 Eh     change       -0.5974056E-04 Eh
 * total energy  :  -198.0051860 Eh     change       -0.6641555E-04 Eh
 * total energy  :  -198.0052141 Eh     change       -0.2819096E-04 Eh
 * total energy  :  -198.0052960 Eh     change       -0.8189034E-04 Eh
 * total energy  :  -198.0053293 Eh     change       -0.3324654E-04 Eh
 * total energy  :  -198.0053776 Eh     change       -0.4836538E-04 Eh
 * total energy  :  -198.0054061 Eh     change       -0.2847943E-04 Eh
 * total energy  :  -198.0054333 Eh     change       -0.2718856E-04 Eh
 * total energy  :  -198.0054767 Eh     change       -0.4338114E-04 Eh
 * total energy  :  -198.0065911 Eh     change       -0.4322968E-06 Eh
 * total energy  :  -198.0065915 Eh     change       -0.4068654E-06 Eh
 * total energy  :  -198.0065918 Eh     change       -0.3323364E-06 Eh
 * total energy  :  -198.0065921 Eh     change       -0.2560232E-06 Eh
 * total energy  :  -198.0065923 Eh     change       -0.2671657E-06 Eh
 * total energy  :  -198.0065927 Eh     change       -0.4079737E-06 Eh
 * total energy  :  -198.0065933 Eh     change       -0.5742792E-06 Eh
 * total energy  :  -198.0065940 Eh     change       -0.6581363E-06 Eh
 * total energy  :  -198.0065940 Eh     change       -0.7087067E-08 Eh
   *** GEOMETRY OPTIMIZATION CONVERGED AFTER 94 ITERATIONS ***

 final structure:
================
129
 xtb: 6.7.1 (edcfbbe)
C            5.49909903003075        3.31900585239897        2.91015321834149
C            4.35109439793381        3.96650564473111        3.34350925884938
C            3.38439283892541        4.38264809919168        2.43755675147019
C            3.59319737867663        4.14099494073605        1.09677491644157
C            4.75436348804749        3.49074712000925        0.65325640008893
C            5.71272612260122        3.07519015038905        1.56298036909904
C            4.70178686369804        3.39057696930594       -0.79648105489312
C            5.59215406849964        2.84273091843279       -1.70567547821718
C            5.28042195802368        2.89644777482083       -3.05470068407064
C            4.10349195887474        3.48823913637697       -3.49009472169019
C            3.20514312521564        4.03689382968848       -2.58428889691320
C            3.51066170463176        3.98449954608692       -1.24117634634699
C            2.69605922615196        4.48198770032651       -0.07074243202481
C            2.31867877113819        5.94114994700525       -0.13332399084037
C            3.13638220019626        7.03175129896479       -0.24234245162043
C            2.56120674530496        8.30653342860881       -0.27030098811213
C            1.17370033627837        8.46579346042813       -0.18604125835479
C            0.33539464093076        7.38401588258759       -0.07607170571447
C            0.89607517978292        6.08696246814238       -0.04700102212686
C            0.30856440938693        4.81974318591180        0.04998537163977
C           -1.04299910272253        4.38651247034407        0.15148946583731
C           -1.32160342430384        3.06025066559543        0.18468851921731
C           -0.30096776572697        2.04121463178596        0.13461275286521
C           -0.62246636541847        0.66061273495563        0.12268919386446
C           -1.93025965108236        0.19940105989551       -0.19529895336288
C           -2.23257007935921       -1.14331793976023       -0.26573092547670
C           -3.58659369530165       -1.57719469543537       -0.64103608023729
C           -3.76772924425883       -2.63818124747637       -1.53030434657128
C           -5.02995706777790       -3.04650641810105       -1.92167555427727
C           -6.13552721810173       -2.38655486191141       -1.40777438408749
C           -5.95990977954477       -1.32940834901352       -0.50130338736809
C           -4.70451710031634       -0.91994944988944       -0.11919774855142
C           -7.29585671989802       -0.77072111805365       -0.07189162242119
C           -7.44346978791327        0.70842897914935       -0.33835031347626
C           -7.32917726742341        1.37817864786097       -1.53738371068672
C           -7.50732158575527        2.75568668359754       -1.54598910320907
C           -7.79359074648568        3.44242403251227       -0.37525029553374
C           -7.90791846231230        2.77228616326265        0.83278985189845
C           -7.73130498339123        1.39811654371093        0.84893287572078
C           -7.78821082672277        0.43606760846031        1.93902714643277
C           -8.04212855971321        0.60077871490132        3.29112816568422
C           -8.03433011311655       -0.51802307899143        4.10922771698683
C           -7.77671490200668       -1.77813937543119        3.58984603281452
C           -7.52229830123126       -1.95085534519880        2.23539933059323
C           -7.53036636574349       -0.84090166388543        1.41891377719824
C           -8.25665736219477       -1.62783933859866       -0.86233058605698
C           -9.63289286477194       -1.57051219246979       -0.88733683062068
C          -10.31842602522154       -2.46590641949038       -1.69849245732488
C           -9.63381315177960       -3.39786436513104       -2.46486642492325
C           -8.24968672766566       -3.46080685181413       -2.44008305138036
C           -7.55874183146640       -2.57001580070173       -1.63365961071068
C           -1.23817694335762       -2.09370798895364        0.00560147666752
C            0.05875819044095       -1.68293859474396        0.35286012883278
C            1.08803079181301       -2.69039687054360        0.64867194888825
C            0.75433278967733       -3.85449336054879        1.34520084106587
C            1.69089881064090       -4.83767458835051        1.60559018814128
C            2.99062600737032       -4.65766353470770        1.15866553660468
C            3.33942794282554       -3.48175030476415        0.47512444972371
C            2.40611974253627       -2.50511081304277        0.21815621830743
C            4.79970814244847       -3.50629872743514        0.09198560162322
C            5.62574587687327       -2.39495907371066        0.69867984337724
C            5.78346109177238       -2.07356718619463        2.02945303496454
C            6.64988339387948       -1.04086606752364        2.36294891871514
C            7.34497572510261       -0.35224645657053        1.38003859108703
C            7.17911879968350       -0.66428679171288        0.04016862692152
C            6.31159111419519       -1.68922045776200       -0.30057153233682
C            5.94810128566303       -2.24883973406758       -1.59321087598212
C            6.32887109020094       -1.90048450392528       -2.87893652451392
C            5.81438543250353       -2.62454325713691       -3.94289164848180
C            4.93687789867676       -3.67733981488988       -3.72939167411005
C            4.55099536593662       -4.03232359039664       -2.44315728696810
C            5.05859577480825       -3.31327471311889       -1.38275097392764
C            5.23196268102067       -4.86040749329893        0.60902630128461
C            6.47507698963530       -5.44927011299331        0.53189758422991
C            6.64800449378859       -6.70698686269310        1.09555591805903
C            5.59484981120377       -7.35424069338294        1.72538770606808
C            4.34328325129851       -6.76499896922950        1.80530412814422
C            4.16277889388697       -5.51063235740954        1.24354406443189
C            0.35274033690198       -0.33725806854643        0.40224360314356
C            1.06353049879036        2.49495847288560        0.07631247888156
C            1.34167936282460        3.81437558753039        0.02759213440405
H            6.23649773684953        3.00342766801637        3.63417129917597
H            4.20649746096294        4.14886045632822        4.39860975227751
H            2.48960860098607        4.88529261955942        2.77604310518837
H            6.60544608046060        2.56957961016326        1.22851316045538
H            6.50965648846629        2.38482631898069       -1.36827468899999
H            5.96227548058732        2.47530917999139       -3.77951098668177
H            3.88162676729772        3.52100158214330       -4.54697917624260
H            2.28738610908434        4.49415190499103       -2.92540712908121
H            4.20908350516827        6.91596027356383       -0.30650624169817
H            3.19426017375534        9.17647863520611       -0.35678183303886
H            0.76020418308440        9.46426881360558       -0.20930422034375
H           -0.73474698105237        7.51101801596784       -0.01257298856219
H           -1.83443585641882        5.11951023444812        0.20592188542009
H           -2.34986112753784        2.75098681729870        0.28880465830334
H           -2.69533568830552        0.91084697398257       -0.46161798710590
H           -2.89876244780464       -3.13208933388209       -1.94071663176470
H           -5.14865958154274       -3.86158487324133       -2.62032670074553
H           -4.58007362235663       -0.11298532363555        0.58860027170287
H           -7.10649904087096        0.84402273752017       -2.45010757961409
H           -7.42232393298068        3.29834636433194       -2.47637366875427
H           -7.92873680821777        4.51417628503692       -0.40639179872492
H           -8.13058816031909        3.31150419921352        1.74178686696906
H           -8.24333064265971        1.57965700525603        3.70075751092169
H           -8.23137942551506       -0.40799950861983        5.16601104984406
H           -7.77536438008243       -2.63633720572679        4.24618601089791
H           -7.32374874933193       -2.93328153133160        1.83135464093689
H          -10.16706046157747       -0.84457267344483       -0.29112372263842
H          -11.39780312481895       -2.43522575658748       -1.73301636230531
H          -10.18853612086225       -4.08352603665351       -3.08930727071418
H           -7.72128768057360       -4.18834505656893       -3.03841902489578
H           -1.47294303498915       -3.14461135179573       -0.05316154250495
H           -0.25736132390871       -3.98066539341230        1.70247405022242
H            1.41021141923425       -5.73093878626792        2.14397105592587
H            2.67961953841419       -1.61847804245156       -0.33579796504530
H            5.25133649015413       -2.61737337157866        2.79695057967606
H            6.79006903190658       -0.77700106360591        3.40110614706023
H            8.02947018048911        0.43346930386134        1.66649443614054
H            7.72375720609064       -0.12773545782143       -0.72279103247180
H            7.01321817421366       -1.08286010494959       -3.05028392676807
H            6.10022766641131       -2.36676192193970       -4.95269135006747
H            4.54897167449381       -4.22896275521538       -4.57347333935035
H            3.86788156894267       -4.85329342214478       -2.27816083695694
H            7.29641866396904       -4.94516658356464        0.04284190766119
H            7.61482447212469       -7.18627554107962        1.04363050539525
H            5.75358385804123       -8.33168246363625        2.15790176364437
H            3.52639395160003       -7.27325518687205        2.29601992259632
H            1.33846415570045       -0.03771859216616        0.72065457459974
H            1.86841209463923        1.77866462393220        0.02319237561574

          :  Hamiltonian                  GFN2-xTB          :
         :: gradient norm              0.000052961552 Eh/a0 ::
         :: HOMO-LUMO gap              0.394620935946 eV    ::
         :: SCC energy              -201.875290160659 Eh    ::
         :: -> dispersion             -0.200065232760 Eh    ::
         :: -> Gsolv                  -0.078734152091 Eh    ::
         :: repulsion energy           3.868696173359 Eh    ::

    * Orbital Energies and Occupations

         #    Occupation            Energy/Eh            Energy/eV
      -------------------------------------------------------------
         1        2.0000           -0.6627014             -18.0330
       ...           ...                  ...                  ...
       175        2.0000           -0.3967160             -10.7952
       176        2.0000           -0.3954615             -10.7611
       177        2.0000           -0.3953821             -10.7589
       178        2.0000           -0.3948602             -10.7447
       179        2.0000           -0.3944495             -10.7335
       180        2.0000           -0.3933860             -10.7046
       181        2.0000           -0.3819305             -10.3929
       182        2.0000           -0.3810103             -10.3678
       183        2.0000           -0.3801049             -10.3432
       184        1.9999           -0.3755365             -10.2189
       185        1.9965           -0.3724899             -10.1360
       186        1.0037           -0.3618151              -9.8455
       187        0.9995           -0.2751145              -7.4862 (HOMO)
       188        0.0005           -0.2606124              -7.0916 (LUMO)
       189        0.0000           -0.2554156              -6.9502
       190        0.0000           -0.2525553              -6.8724
       191                         -0.2523025              -6.8655
       192                         -0.2518862              -6.8542
       193                         -0.2272884              -6.1848
       194                         -0.2262909              -6.1577
       195                         -0.2260283              -6.1505
       196                         -0.2257690              -6.1435
       197                         -0.2255610              -6.1378
       198                         -0.2253503              -6.1321
       ...                                ...                  ...
       372                          0.7402886              20.1443
      -------------------------------------------------------------
                  HL-Gap            0.0145021 Eh            0.3946 eV

     #   Z          covCN         q      C6AA      α(0)
     1   6 C        2.921    -0.032    28.810     8.802
     2   6 C        2.922    -0.032    28.805     8.801
     3   6 C        2.913    -0.034    28.837     8.806
     4   6 C        3.056     0.005    27.866     8.657
     5   6 C        3.036     0.001    27.982     8.677
     6   6 C        2.914    -0.034    28.858     8.809
     7   6 C        3.036     0.001    27.981     8.676
     8   6 C        2.914    -0.034    28.845     8.807
     9   6 C        2.921    -0.032    28.809     8.802
    10   6 C        2.922    -0.032    28.805     8.801
    11   6 C        2.913    -0.033    28.832     8.805
    12   6 C        3.054     0.004    27.875     8.659
    13   6 C        3.971     0.009    20.353     6.410
    14   6 C        3.052     0.007    27.815     8.649
    15   6 C        2.908    -0.034    28.853     8.808
    16   6 C        2.920    -0.035    28.862     8.810
    17   6 C        2.914    -0.030    28.756     8.793
    18   6 C        2.908    -0.038    28.947     8.822
    19   6 C        3.027     0.002    27.948     8.672
    20   6 C        3.029    -0.003    28.067     8.690
    21   6 C        2.902    -0.036    28.897     8.814
    22   6 C        2.914    -0.035    28.873     8.811
    23   6 C        2.969     0.004    27.932     8.669
    24   6 C        2.964     0.008    27.827     8.653
    25   6 C        2.926    -0.043    29.072     8.842
    26   6 C        2.967     0.009    27.811     8.650
    27   6 C        2.980     0.007    27.852     8.657
    28   6 C        2.925    -0.037    28.932     8.821
    29   6 C        2.913    -0.035    28.877     8.812
    30   6 C        3.036    -0.002    28.034     8.684
    31   6 C        3.052     0.005    27.850     8.655
    32   6 C        2.918    -0.038    28.950     8.823
    33   6 C        3.977     0.010    20.344     6.408
    34   6 C        3.055     0.006    27.845     8.654
    35   6 C        2.913    -0.034    28.837     8.806
    36   6 C        2.922    -0.032    28.810     8.802
    37   6 C        2.921    -0.033    28.829     8.805
    38   6 C        2.914    -0.035    28.864     8.810
    39   6 C        3.035     0.000    27.988     8.677
    40   6 C        3.035     0.000    27.990     8.678
    41   6 C        2.914    -0.035    28.863     8.810
    42   6 C        2.921    -0.033    28.830     8.805
    43   6 C        2.923    -0.032    28.808     8.802
    44   6 C        2.913    -0.034    28.836     8.806
    45   6 C        3.055     0.006    27.839     8.653
    46   6 C        3.056     0.006    27.841     8.653
    47   6 C        2.913    -0.034    28.838     8.806
    48   6 C        2.922    -0.033    28.811     8.802
    49   6 C        2.920    -0.033    28.828     8.805
    50   6 C        2.914    -0.035    28.868     8.811
    51   6 C        3.035     0.001    27.977     8.676
    52   6 C        2.927    -0.043    29.069     8.842
    53   6 C        2.967     0.009    27.814     8.651
    54   6 C        2.979     0.007    27.858     8.658
    55   6 C        2.926    -0.038    28.935     8.821
    56   6 C        2.912    -0.035    28.882     8.812
    57   6 C        3.037    -0.002    28.030     8.684
    58   6 C        3.049     0.005    27.863     8.657
    59   6 C        2.918    -0.038    28.936     8.821
    60   6 C        3.978     0.010    20.342     6.408
    61   6 C        3.056     0.006    27.834     8.652
    62   6 C        2.914    -0.034    28.835     8.805
    63   6 C        2.923    -0.032    28.798     8.800
    64   6 C        2.921    -0.032    28.796     8.800
    65   6 C        2.915    -0.034    28.838     8.806
    66   6 C        3.036     0.000    27.985     8.677
    67   6 C        3.036     0.000    27.986     8.677
    68   6 C        2.914    -0.034    28.852     8.808
    69   6 C        2.921    -0.033    28.828     8.805
    70   6 C        2.922    -0.032    28.809     8.802
    71   6 C        2.913    -0.034    28.836     8.806
    72   6 C        3.054     0.005    27.851     8.655
    73   6 C        3.057     0.006    27.832     8.652
    74   6 C        2.913    -0.034    28.840     8.806
    75   6 C        2.923    -0.033    28.811     8.802
    76   6 C        2.920    -0.033    28.829     8.805
    77   6 C        2.914    -0.035    28.868     8.810
    78   6 C        3.034     0.001    27.978     8.676
    79   6 C        2.925    -0.042    29.046     8.838
    80   6 C        2.908    -0.041    29.031     8.835
    81   6 C        3.041     0.006    27.838     8.654
    82   1 H        0.926     0.033     2.539     2.492
    83   1 H        0.926     0.033     2.550     2.497
    84   1 H        0.926     0.027     2.634     2.538
    85   1 H        0.926     0.036     2.503     2.474
    86   1 H        0.926     0.035     2.523     2.484
    87   1 H        0.926     0.033     2.541     2.493
    88   1 H        0.926     0.032     2.552     2.498
    89   1 H        0.926     0.027     2.635     2.539
    90   1 H        0.926     0.026     2.643     2.542
    91   1 H        0.926     0.032     2.561     2.503
    92   1 H        0.926     0.032     2.556     2.500
    93   1 H        0.926     0.033     2.548     2.496
    94   1 H        0.926     0.033     2.541     2.493
    95   1 H        0.926     0.036     2.507     2.476
    96   1 H        0.926     0.035     2.516     2.480
    97   1 H        0.926     0.035     2.518     2.481
    98   1 H        0.926     0.034     2.525     2.485
    99   1 H        0.926     0.028     2.609     2.526
   100   1 H        0.926     0.027     2.631     2.537
   101   1 H        0.926     0.032     2.554     2.499
   102   1 H        0.926     0.033     2.547     2.496
   103   1 H        0.926     0.034     2.535     2.490
   104   1 H        0.926     0.034     2.533     2.489
   105   1 H        0.926     0.033     2.546     2.495
   106   1 H        0.926     0.032     2.553     2.498
   107   1 H        0.926     0.027     2.628     2.535
   108   1 H        0.926     0.027     2.631     2.537
   109   1 H        0.926     0.032     2.553     2.499
   110   1 H        0.926     0.033     2.546     2.495
   111   1 H        0.926     0.034     2.533     2.489
   112   1 H        0.926     0.036     2.507     2.476
   113   1 H        0.926     0.035     2.510     2.477
   114   1 H        0.926     0.034     2.524     2.484
   115   1 H        0.926     0.027     2.624     2.533
   116   1 H        0.926     0.026     2.639     2.540
   117   1 H        0.926     0.032     2.553     2.499
   118   1 H        0.926     0.032     2.553     2.498
   119   1 H        0.926     0.033     2.547     2.496
   120   1 H        0.926     0.034     2.530     2.488
   121   1 H        0.926     0.033     2.547     2.496
   122   1 H        0.926     0.032     2.556     2.500
   123   1 H        0.926     0.027     2.634     2.538
   124   1 H        0.926     0.027     2.633     2.537
   125   1 H        0.926     0.033     2.550     2.497
   126   1 H        0.926     0.033     2.543     2.494
   127   1 H        0.926     0.034     2.530     2.487
   128   1 H        0.926     0.033     2.543     2.494
   129   1 H        0.926     0.027     2.633     2.538

molecular dipole:
                 x           y           z       tot (Debye)
 q only:        0.047      -0.115       0.009
   full:        0.030      -0.127      -0.001       0.331

 projected vibrational frequencies (cm⁻¹)
eigval :       -0.00    -0.00    -0.00     0.00     0.00     0.00
eigval :        6.63     7.93    10.16    12.26    14.75    17.53
eigval :       20.11    24.51    28.55    33.53    41.93    43.27
eigval :       46.94    49.38    50.38    53.07    60.05    66.25
eigval :       73.54    73.87    86.00    94.11    97.86   101.64
eigval :      117.76   123.22   127.42   129.36   131.64   137.77
eigval :      141.53   150.61   151.86   160.94   179.68   188.38
eigval :      192.23   204.35   213.37   219.29   221.49   232.76
eigval :      233.24   234.55   240.76   245.40   256.51   263.02
eigval :      271.33   282.64   285.59   290.00   312.45   313.32
eigval :      326.73   335.47   347.20   358.67   365.05   373.96
eigval :      385.59   389.04   389.26   396.90   407.04   407.65
eigval :      413.76   413.92   413.97   415.99   416.92   437.12
eigval :      445.01   448.01   451.54   451.98   457.58   458.50
eigval :      459.97   464.00   471.77   475.97   479.77   497.18
eigval :      502.09   503.16   503.63   506.97   509.57   520.06
eigval :      529.26   539.01   539.76   539.96   546.10   566.11
eigval :      570.60   576.08   582.13   585.99   588.56   591.64
eigval :      593.27   597.59   603.84   604.17   605.86   612.44
eigval :      630.18   631.35   637.02   639.17   644.13   644.77
eigval :      664.26   683.21   685.13   685.71   688.10   688.34
eigval :      688.94   693.97   698.78   707.10   707.22   708.03
eigval :      725.76   730.06   734.42   737.18   740.03   740.13
eigval :      752.15   753.34   753.71   760.70   765.40   767.42
eigval :      772.59   773.77   774.27   780.33   784.54   785.41
eigval :      785.88   788.36   821.79   826.53   830.84   834.53
eigval :      836.54   839.21   841.54   848.00   875.15   876.45
eigval :      877.44   878.02   878.85   879.76   880.23   884.51
eigval :      887.24   887.85   891.22   894.44   899.34   900.02
eigval :      901.53   902.44   907.88   909.59   910.19   910.32
eigval :      910.36   910.91   911.19   911.25   913.08   913.62
eigval :      916.55   921.24   925.17   925.73   925.92   926.25
eigval :      926.57   927.09   927.59   928.62   930.29   931.86
eigval :      939.83   965.24   975.07   989.40  1006.12  1007.35
eigval :     1007.69  1008.27  1011.26  1035.12  1051.93  1063.88
eigval :     1072.54  1073.02  1073.14  1073.27  1073.68  1075.76
eigval :     1077.00  1077.27  1078.33  1078.80  1097.98  1113.36
eigval :     1124.63  1132.61  1133.15  1137.57  1142.16  1142.61
eigval :     1142.91  1155.15  1155.40  1157.79  1163.50  1165.57
eigval :     1172.78  1175.72  1175.91  1177.21  1177.57  1177.75
eigval :     1178.17  1180.41  1181.35  1181.98  1194.28  1198.35
eigval :     1205.74  1207.39  1208.07  1208.16  1217.52  1222.47
eigval :     1223.25  1223.97  1229.49  1239.63  1241.52  1246.11
eigval :     1247.96  1253.00  1256.89  1258.65  1260.10  1260.47
eigval :     1260.61  1263.15  1267.74  1276.15  1283.15  1283.75
eigval :     1285.00  1288.21  1292.59  1305.16  1320.90  1324.66
eigval :     1325.01  1325.50  1326.26  1333.51  1334.56  1342.85
eigval :     1349.85  1356.07  1362.90  1364.09  1364.56  1364.78
eigval :     1370.22  1373.85  1404.33  1418.73  1419.46  1420.97
eigval :     1426.99  1427.20  1427.43  1427.56  1429.97  1429.98
eigval :     1433.10  1433.74  1448.11  1452.57  1460.59  1460.60
eigval :     1460.82  1465.79  1466.23  1469.08  1470.22  1470.47
eigval :     1476.19  1496.65  1497.30  1527.13  1552.38  1568.82
eigval :     1569.30  1570.76  1582.37  1583.66  1583.87  1587.20
eigval :     1588.96  1590.75  1590.89  1592.75  1594.41  1594.56
eigval :     1599.56  1600.65  1600.95  1601.73  1602.11  1602.28
eigval :     1602.64  1602.80  1626.11  3067.43  3068.29  3068.47
eigval :     3068.86  3069.01  3069.03  3069.16  3069.20  3069.34
eigval :     3070.79  3071.26  3071.67  3072.54  3072.74  3072.85
eigval :     3073.08  3073.64  3073.83  3074.02  3074.17  3074.47
eigval :     3075.87  3077.00  3078.77  3079.26  3080.03  3080.92
eigval :     3081.01  3081.48  3082.15  3083.93  3084.42  3085.29
eigval :     3086.01  3087.26  3087.35  3088.48  3088.94  3089.61
eigval :     3089.70  3089.94  3090.48  3092.50  3094.05  3094.93
eigval :     3097.81  3102.35  3105.12

   temp. (K)  partition function   enthalpy   heat capacity  entropy
                                   cal/mol     cal/K/mol   cal/K/mol   J/K/mol
 298.15  VIB  0.424E+30            36867.636    235.309    229.971
         ROT  0.379E+09              888.752      2.981     42.237
         INT  0.161E+39            37756.388    238.290    272.208
         TR   0.316E+29             1481.254      4.968     46.623
         TOT                       39237.6418   243.2580   318.8314  1333.9904

       T/K    H(0)-H(T)+PV         H(T)/Eh          T*S/Eh         G(T)/Eh
   ------------------------------------------------------------------------
    298.15    0.625292E-01    0.104996E+01    0.151487E+00    0.898469E+00
   ------------------------------------------------------------------------

         :::::::::::::::::::::::::::::::::::::::::::::::::::::
         ::                  THERMODYNAMIC                  ::
         :::::::::::::::::::::::::::::::::::::::::::::::::::::
         :: total free energy        -197.108125195241 Eh   ::
         ::.................................................::
         :: total energy             -198.006593986704 Eh   ::
         :: zero point energy           0.987426697091 Eh   ::
         :: G(RRHO) w/o ZPVE           -0.088957905628 Eh   ::
         :: G(RRHO) contrib.            0.898468791463 Eh   ::
         :::::::::::::::::::::::::::::::::::::::::::::::::::::

           -------------------------------------------------
          | TOTAL ENERGY             -198.006593986704 Eh   |
          | TOTAL ENTHALPY           -196.956638127231 Eh   |
          | TOTAL FREE ENERGY        -197.108125195241 Eh   |
          | GRADIENT NORM               0.000052969519 Eh/α |
          | HOMO-LUMO GAP               0.394623164283 eV   |
           -------------------------------------------------

 * finished run on 2025/09/10 at 10:48:52.081
