   * xtb version 6.7.1 (edcfbbe) compiled by 'albert@albert-system' on 2024-07-22

   ID    Z sym.   atoms
    1    6 C      1-81
    2    1 H      82-129

          program call               : xtb data2507/toluene/TSBFB/TSBFB.xyz --gfn 2 --gbsa toluene --ohess vtight --parallel 40 --molden --ceasefiles --namespace data2507/toluene/TSBFB/TSBFB_toluene_S0_preOpt
      * Solvation model:               GBSA
        Solvent                        toluene
        Solvent mass                       9.2140E+01 g/mol
          :  Hamiltonian                  GFN2-xTB          :
 * total energy  :  -198.0860566 Eh     change       -0.1516497E-08 Eh
 * total energy  :  -198.0987329 Eh     change       -0.1267625E-01 Eh
 * total energy  :  -198.1014736 Eh     change       -0.2740785E-02 Eh
 * total energy  :  -198.1023967 Eh     change       -0.9230322E-03 Eh
 * total energy  :  -198.1028361 Eh     change       -0.4394349E-03 Eh
 * total energy  :  -198.1029313 Eh     change       -0.9520840E-04 Eh
 * total energy  :  -198.1029957 Eh     change       -0.6437858E-04 Eh
 * total energy  :  -198.1030704 Eh     change       -0.7474266E-04 Eh
 * total energy  :  -198.1031195 Eh     change       -0.4908458E-04 Eh
 * total energy  :  -198.1031936 Eh     change       -0.7406166E-04 Eh
 * total energy  :  -198.1043946 Eh     change       -0.9486653E-06 Eh
 * total energy  :  -198.1043955 Eh     change       -0.8756515E-06 Eh
 * total energy  :  -198.1043964 Eh     change       -0.9266347E-06 Eh
 * total energy  :  -198.1043975 Eh     change       -0.1120725E-05 Eh
 * total energy  :  -198.1043989 Eh     change       -0.1424450E-05 Eh
 * total energy  :  -198.1044006 Eh     change       -0.1629674E-05 Eh
 * total energy  :  -198.1044023 Eh     change       -0.1750793E-05 Eh
 * total energy  :  -198.1044040 Eh     change       -0.1695635E-05 Eh
 * total energy  :  -198.1044040 Eh     change       -0.5136741E-08 Eh
   *** GEOMETRY OPTIMIZATION CONVERGED AFTER 122 ITERATIONS ***

 final structure:
================
129
 xtb: 6.7.1 (edcfbbe)
C            4.57388293444360        3.55124369504060       -4.29867235092325
C            5.23631050502038        2.48664323407718       -3.70553747553695
C            5.41747532429015        2.43941682446160       -2.32933690701675
C            4.92345629697017        3.47495500493368       -1.56611376361110
C            4.25175208043755        4.55346581908582       -2.16027691278729
C            4.07443832461923        4.59374992572918       -3.53387171693198
C            3.85342942875021        5.48195902519114       -1.11323268503678
C            3.17350157895287        6.68778357584789       -1.17148433803954
C            2.93150123819113        7.37148362461090        0.00971139502401
C            3.35888937550393        6.86257206267763        1.22726951137045
C            4.04088246702459        5.65431163350113        1.29328482754663
C            4.28342619308257        4.97182779005156        0.12086391610500
C            4.99788622216461        3.65510812994245       -0.06767989494445
C            6.41344216215042        3.65060294906161        0.45996700989659
C            7.45350215890501        4.49090593853674        0.12762612467672
C            8.68347138001362        4.29794929556323        0.74351545996775
C            8.86216976422785        3.28131704038764        1.67013689791564
C            7.81865083847212        2.43338652611903        2.00629924401627
C            6.58813197947565        2.62131957601523        1.39737398328023
C            5.32659950161569        1.91489195807764        1.54590294385676
C            4.96531410546570        0.83581129793170        2.33672727779892
C            3.66259536522540        0.37339177786932        2.27884274457420
C            2.71190910613268        0.97218876180391        1.45115431315253
C            1.32705021490746        0.47541120219520        1.43350294524595
C            1.06328212168760       -0.89043119945435        1.43199011524651
C           -0.24405386340249       -1.36598403356223        1.43884472680121
C           -0.50771693230677       -2.81341676818757        1.46368497054431
C           -1.49151442287062       -3.33206588759774        2.30655925226621
C           -1.74593754113138       -4.69041519649351        2.37102916265162
C           -1.00628067005464       -5.54669284905654        1.57111990372768
C           -0.02346637107992       -5.02975645597187        0.71341132282495
C            0.23404186070658       -3.67979796904487        0.65677609751596
C            0.64061293310453       -6.14165409206681       -0.06347450538008
C            2.13980024685084       -6.19566713247027        0.10724460321733
C            2.86476672320089       -6.31556268187088        1.27304410249718
C            4.25077251886989       -6.35106405849429        1.19012593500142
C            4.89136426816973       -6.26949055084402       -0.03750690316371
C            4.16543404342825       -6.14882060421190       -1.21223491491990
C            2.78246971236524       -6.11018062005767       -1.13691567029932
C            1.76768156615361       -5.98837216333311       -2.17266366795967
C            1.87506300483468       -5.87705484493791       -3.54969363982713
C            0.71406296559374       -5.77481263595415       -4.30003324906744
C           -0.53146473048655       -5.78150179793096       -3.68967363077171
C           -0.64679552082704       -5.89330126607791       -2.31007486668307
C            0.50529123294347       -5.99736544902093       -1.56135098818525
C           -0.07062944593789       -7.36176359589880        0.47456474108729
C            0.12477198345167       -8.68389192139032        0.13969999195981
C           -0.65389061213337       -9.64786399158669        0.76726320531336
C           -1.60797909869273       -9.28852235528151        1.70789398119344
C           -1.80903770148751       -7.95947226368081        2.04545350561031
C           -1.03427571538627       -6.99246228263684        1.42498003909845
C           -1.29486487617808       -0.45465564332850        1.44132779611410
C           -1.05308575599821        0.91537035476460        1.44132673463912
C           -2.17733382179773        1.86442602594982        1.46518351544325
C           -2.13986380975684        2.97926709849678        2.30353415732376
C           -3.19624816653115        3.87049306840721        2.36934811296961
C           -4.30935452534319        3.64660390565011        1.57476038082564
C           -4.34601338905928        2.53507134824279        0.71949378610843
C           -3.29885058754274        1.64549440334727        0.66134114750593
C           -5.64420630614718        2.50133406995165       -0.05239908913897
C           -6.41492391374069        1.21476945671576        0.12195824308532
C           -6.87726544305714        0.64509983975694        1.28850865875338
C           -7.56466465024404       -0.55931751858284        1.21009099591052
C           -7.78112539725772       -1.17547665248491       -0.01364778645023
C           -7.31848443877752       -0.60493365912987       -1.18913759705654
C           -6.63206069142667        0.59657991180923       -1.11855708427544
C           -6.03586359332299        1.42367263520315       -2.15671581249178
C           -5.97883075695019        1.26506141843817       -3.53205037606164
C           -5.33413610128644        2.23317465697758       -4.28590885823423
C           -4.75492495788873        3.33860313367527       -3.68049212944572
C           -4.80838341343537        3.50434615523853       -2.30257792282624
C           -5.44986005107311        2.54450962122197       -1.55024127762813
C           -6.35600913262873        3.71894940127910        0.48840636500444
C           -7.60631914815456        4.19571758981493        0.16011194281796
C           -8.06169318466354        5.34786138154851        0.78824823708394
C           -7.27532685833672        6.00557274556007        1.72270486387920
C           -6.01657326725653        5.52986205765276        2.05460263314742
C           -5.55643178610778        4.37982902382614        1.43329999360456
C            0.26140736118881        1.36996757569365        1.43697133602280
C            3.08145488566903        2.05696054528431        0.65192142403754
C            4.37794776257243        2.51312333770838        0.70288390682354
H            4.44585728292532        3.56699342199554       -5.37159139340657
H            5.61715472353217        1.68462317171518       -4.32115346492558
H            5.93403608987622        1.60987107088307       -1.86800436911675
H            3.55909297596810        5.42020234591824       -4.00076455164719
H            2.83894176718745        7.08826929808675       -2.11714435237951
H            2.40311407535179        8.31374287086499       -0.01753440771421
H            3.15995211575062        7.41293747236659        2.13551047273945
H            4.37469433243101        5.25904283991171        2.24214712606240
H            7.31548805408809        5.28300900041719       -0.59448127187680
H            9.51045869100615        4.94807767434838        0.49742491673286
H            9.82828295146545        3.15025199885320        2.13624206503738
H            7.96256103518113        1.64312900009091        2.72837843587014
H            5.68387163375488        0.36502389352545        2.99136687120421
H            3.36452019867050       -0.45516643331183        2.90504979601078
H            1.88422886991433       -1.59260689126579        1.42928939115287
H           -2.04966635371713       -2.65612503066345        2.93831365609194
H           -2.50504295033252       -5.07334372498995        3.03707969360960
H            0.98599873440530       -3.28973610622965       -0.01422152007189
H            2.36625151641638       -6.38105979997913        2.22969268025281
H            4.83668499500340       -6.44425578262773        2.09311052875133
H            5.97084319179595       -6.30061128971359       -0.07739387996545
H            4.66894149303231       -6.08526950687929       -2.16567943700479
H            2.84238050329274       -5.87092558121654       -4.03020606640741
H            0.77877740139694       -5.68854609912428       -5.37529558147497
H           -1.42316196368830       -5.69962339458923       -4.29417961149483
H           -1.61749113133437       -5.89948598235045       -1.83512738868518
H            0.86737833315191       -8.96502227914177       -0.59337822886419
H           -0.51400408882580      -10.69009003554592        0.51957329882802
H           -2.20188912293901      -10.05615584170770        2.18309915149621
H           -2.55348342281672       -7.68437364411751        2.77806437343054
H           -2.31342483804986       -0.81456655911729        1.44700292154272
H           -1.27427363903715        3.13352129572193        2.93165909209373
H           -3.15282009936991        4.72154022061831        3.03296564525557
H           -3.33290781637338        0.79733813396178       -0.00742017145531
H           -6.70914512784409        1.12453498851828        2.24238433439707
H           -7.93535148656308       -1.02142081670235        2.11364148404392
H           -8.31829814922240       -2.11246513616604       -0.05021817504738
H           -7.48965453784906       -1.08857263983691       -2.13959235455006
H           -6.42805326197563        0.40609683284777       -4.00848862234605
H           -5.28130585592354        2.12626143491752       -5.35997059701921
H           -4.25745549149970        4.08083304369805       -4.28786033597825
H           -4.35769029269653        4.36643271906174       -1.83189995197814
H           -8.21927827203810        3.68446300178615       -0.56844641940100
H           -9.04027567163010        5.73600586132717        0.54563215734266
H           -7.65060086717684        6.90060358086508        2.19797951613803
H           -5.40797298524190        6.04540228489812        2.78288861036574
H            0.45856881308319        2.43209477486463        1.44009100726613
H            2.36101356033759        2.51746405283773       -0.00886554033672

          :  Hamiltonian                  GFN2-xTB          :
         :: gradient norm              0.000056845851 Eh/a0 ::
         :: HOMO-LUMO gap              3.052058885360 eV    ::
         :: SCC energy              -201.992766651028 Eh    ::
         :: -> dispersion             -0.195264412277 Eh    ::
         :: -> Gsolv                  -0.080457139502 Eh    ::
         :: repulsion energy           3.888362620884 Eh    ::

    * Orbital Energies and Occupations

         #    Occupation            Energy/Eh            Energy/eV
      -------------------------------------------------------------
         1        2.0000           -0.6622551             -18.0209
       ...           ...                  ...                  ...
       174        2.0000           -0.3989671             -10.8564
       175        2.0000           -0.3950031             -10.7486
       176        2.0000           -0.3949649             -10.7475
       177        2.0000           -0.3949495             -10.7471
       178        2.0000           -0.3948542             -10.7445
       179        2.0000           -0.3940788             -10.7234
       180        2.0000           -0.3940708             -10.7232
       181        2.0000           -0.3818748             -10.3913
       182        2.0000           -0.3808391             -10.3632
       183        2.0000           -0.3808275             -10.3628
       184        2.0000           -0.3757464             -10.2246
       185        2.0000           -0.3724688             -10.1354
       186        2.0000           -0.3724269             -10.1343 (HOMO)
       187                         -0.2602658              -7.0822 (LUMO)
       188                         -0.2602012              -7.0804
       189                         -0.2527004              -6.8763
       190                         -0.2521777              -6.8621
       191                         -0.2521733              -6.8620
       192                         -0.2521629              -6.8617
       193                         -0.2258588              -6.1459
       194                         -0.2258448              -6.1456
       195                         -0.2256142              -6.1393
       196                         -0.2254673              -6.1353
       197                         -0.2253965              -6.1334
       ...                                ...                  ...
       372                          0.7348898              19.9974
      -------------------------------------------------------------
                  HL-Gap            0.1121611 Eh            3.0521 eV

     #   Z          covCN         q      C6AA      α(0)
     1   6 C        2.921    -0.033    28.831     8.805
     2   6 C        2.923    -0.032    28.809     8.802
     3   6 C        2.913    -0.034    28.837     8.806
     4   6 C        3.055     0.006    27.838     8.653
     5   6 C        3.035     0.000    27.991     8.678
     6   6 C        2.914    -0.035    28.864     8.810
     7   6 C        3.036     0.000    27.988     8.677
     8   6 C        2.914    -0.035    28.863     8.810
     9   6 C        2.921    -0.033    28.830     8.805
    10   6 C        2.922    -0.033    28.811     8.802
    11   6 C        2.913    -0.034    28.838     8.806
    12   6 C        3.054     0.006    27.845     8.654
    13   6 C        3.978     0.010    20.344     6.408
    14   6 C        3.055     0.006    27.844     8.654
    15   6 C        2.913    -0.034    28.839     8.806
    16   6 C        2.923    -0.033    28.815     8.803
    17   6 C        2.921    -0.033    28.831     8.805
    18   6 C        2.914    -0.035    28.869     8.811
    19   6 C        3.035     0.001    27.980     8.676
    20   6 C        3.036    -0.002    28.038     8.685
    21   6 C        2.913    -0.035    28.878     8.812
    22   6 C        2.926    -0.038    28.938     8.822
    23   6 C        2.980     0.008    27.845     8.656
    24   6 C        2.974     0.009    27.817     8.651
    25   6 C        2.930    -0.041    29.023     8.835
    26   6 C        2.974     0.009    27.816     8.651
    27   6 C        2.980     0.008    27.844     8.656
    28   6 C        2.926    -0.038    28.937     8.822
    29   6 C        2.913    -0.035    28.878     8.812
    30   6 C        3.036    -0.002    28.037     8.685
    31   6 C        3.052     0.005    27.857     8.656
    32   6 C        2.918    -0.038    28.943     8.822
    33   6 C        3.978     0.010    20.344     6.408
    34   6 C        3.055     0.006    27.844     8.654
    35   6 C        2.913    -0.034    28.838     8.806
    36   6 C        2.922    -0.033    28.812     8.802
    37   6 C        2.921    -0.033    28.830     8.805
    38   6 C        2.914    -0.035    28.862     8.810
    39   6 C        3.035     0.000    27.988     8.677
    40   6 C        3.035     0.000    27.991     8.678
    41   6 C        2.914    -0.035    28.864     8.810
    42   6 C        2.921    -0.033    28.831     8.805
    43   6 C        2.923    -0.032    28.809     8.802
    44   6 C        2.913    -0.034    28.837     8.806
    45   6 C        3.055     0.006    27.838     8.653
    46   6 C        3.056     0.006    27.842     8.653
    47   6 C        2.913    -0.034    28.840     8.806
    48   6 C        2.923    -0.033    28.815     8.803
    49   6 C        2.921    -0.033    28.831     8.805
    50   6 C        2.914    -0.035    28.869     8.811
    51   6 C        3.035     0.001    27.980     8.676
    52   6 C        2.930    -0.041    29.023     8.835
    53   6 C        2.974     0.009    27.817     8.651
    54   6 C        2.980     0.008    27.844     8.656
    55   6 C        2.926    -0.038    28.937     8.822
    56   6 C        2.913    -0.035    28.878     8.812
    57   6 C        3.036    -0.002    28.038     8.685
    58   6 C        3.053     0.005    27.853     8.655
    59   6 C        2.918    -0.038    28.945     8.822
    60   6 C        3.978     0.010    20.344     6.408
    61   6 C        3.055     0.006    27.844     8.654
    62   6 C        2.913    -0.034    28.838     8.806
    63   6 C        2.922    -0.033    28.811     8.802
    64   6 C        2.921    -0.033    28.830     8.805
    65   6 C        2.914    -0.035    28.863     8.810
    66   6 C        3.036     0.000    27.988     8.677
    67   6 C        3.035     0.000    27.992     8.678
    68   6 C        2.914    -0.035    28.863     8.810
    69   6 C        2.921    -0.033    28.831     8.805
    70   6 C        2.923    -0.032    28.809     8.802
    71   6 C        2.913    -0.034    28.837     8.806
    72   6 C        3.055     0.006    27.838     8.653
    73   6 C        3.055     0.006    27.845     8.654
    74   6 C        2.913    -0.034    28.839     8.806
    75   6 C        2.922    -0.033    28.815     8.803
    76   6 C        2.921    -0.033    28.831     8.805
    77   6 C        2.914    -0.035    28.869     8.811
    78   6 C        3.035     0.001    27.980     8.676
    79   6 C        2.930    -0.041    29.022     8.835
    80   6 C        2.918    -0.038    28.945     8.822
    81   6 C        3.052     0.005    27.854     8.656
    82   1 H        0.926     0.033     2.547     2.496
    83   1 H        0.926     0.032     2.553     2.499
    84   1 H        0.926     0.027     2.630     2.536
    85   1 H        0.926     0.034     2.535     2.490
    86   1 H        0.926     0.033     2.538     2.492
    87   1 H        0.926     0.033     2.548     2.496
    88   1 H        0.926     0.032     2.552     2.498
    89   1 H        0.926     0.027     2.628     2.535
    90   1 H        0.926     0.027     2.634     2.538
    91   1 H        0.926     0.032     2.555     2.499
    92   1 H        0.926     0.033     2.547     2.496
    93   1 H        0.926     0.034     2.534     2.489
    94   1 H        0.926     0.034     2.525     2.485
    95   1 H        0.926     0.035     2.522     2.484
    96   1 H        0.926     0.034     2.535     2.490
    97   1 H        0.926     0.034     2.524     2.484
    98   1 H        0.926     0.034     2.526     2.485
    99   1 H        0.926     0.028     2.608     2.525
   100   1 H        0.926     0.027     2.628     2.535
   101   1 H        0.926     0.032     2.552     2.498
   102   1 H        0.926     0.033     2.548     2.496
   103   1 H        0.926     0.033     2.538     2.491
   104   1 H        0.926     0.034     2.535     2.490
   105   1 H        0.926     0.033     2.547     2.496
   106   1 H        0.926     0.032     2.553     2.499
   107   1 H        0.926     0.027     2.630     2.536
   108   1 H        0.926     0.027     2.634     2.538
   109   1 H        0.926     0.032     2.554     2.499
   110   1 H        0.926     0.033     2.547     2.496
   111   1 H        0.926     0.034     2.534     2.489
   112   1 H        0.926     0.034     2.536     2.491
   113   1 H        0.926     0.034     2.523     2.484
   114   1 H        0.926     0.034     2.525     2.485
   115   1 H        0.926     0.028     2.609     2.526
   116   1 H        0.926     0.027     2.628     2.535
   117   1 H        0.926     0.032     2.552     2.498
   118   1 H        0.926     0.033     2.548     2.496
   119   1 H        0.926     0.033     2.539     2.492
   120   1 H        0.926     0.034     2.535     2.490
   121   1 H        0.926     0.033     2.547     2.496
   122   1 H        0.926     0.032     2.553     2.499
   123   1 H        0.926     0.027     2.630     2.536
   124   1 H        0.926     0.027     2.633     2.537
   125   1 H        0.926     0.032     2.555     2.499
   126   1 H        0.926     0.033     2.547     2.496
   127   1 H        0.926     0.034     2.534     2.490
   128   1 H        0.926     0.034     2.536     2.490
   129   1 H        0.926     0.028     2.608     2.525

molecular dipole:
                 x           y           z       tot (Debye)
 q only:        0.001      -0.003       0.022
   full:        0.001      -0.004      -0.003       0.012

 projected vibrational frequencies (cm⁻¹)
eigval :       -0.00    -0.00    -0.00     0.00     0.00     0.00
eigval :        6.00     6.68     7.83    11.03    12.46    13.36
eigval :       23.92    25.53    26.42    35.21    37.95    39.78
eigval :       45.65    45.96    47.99    55.89    57.79    58.18
eigval :       76.51    77.05    80.74    94.69    95.72   108.08
eigval :      124.44   125.45   126.46   129.93   135.59   136.13
eigval :      143.60   149.01   149.27   168.66   188.79   189.81
eigval :      204.18   210.13   210.94   227.69   228.71   233.62
eigval :      234.17   234.60   239.04   258.77   262.74   262.81
eigval :      281.97   282.48   287.48   308.77   308.84   326.15
eigval :      337.31   337.74   351.15   361.36   361.73   388.66
eigval :      389.35   390.04   397.51   405.20   405.69   413.73
eigval :      413.80   413.92   416.37   417.03   417.33   440.55
eigval :      451.58   451.99   456.01   457.11   457.30   466.03
eigval :      471.70   472.11   476.44   481.83   481.94   499.00
eigval :      503.49   503.56   507.38   511.04   511.18   525.04
eigval :      538.80   539.49   539.88   553.68   554.06   578.47
eigval :      585.59   585.71   589.18   589.21   591.69   595.88
eigval :      596.00   604.27   604.80   605.04   617.32   633.51
eigval :      634.22   634.28   643.38   650.80   651.14   679.00
eigval :      686.04   686.48   689.04   689.26   689.34   690.02
eigval :      700.20   700.25   708.28   708.68   708.98   711.08
eigval :      734.72   734.82   740.91   740.99   741.18   753.03
eigval :      753.39   753.48   764.09   765.40   766.26   773.11
eigval :      775.30   775.82   776.78   784.18   784.29   785.14
eigval :      816.88   826.20   828.52   842.56   842.72   849.91
eigval :      874.55   875.73   876.83   877.32   877.43   878.24
eigval :      879.27   879.66   881.13   881.87   882.21   886.39
eigval :      897.08   897.60   899.98   901.28   901.70   903.30
eigval :      907.83   908.00   908.52   909.92   910.30   910.87
eigval :      911.61   912.07   914.83   915.14   917.48   918.05
eigval :      925.01   925.08   925.27   926.23   926.71   927.44
eigval :      927.46   927.47   928.10   929.08   929.33   938.52
eigval :      975.41   975.83   986.55  1007.70  1007.71  1007.77
eigval :     1008.82  1011.08  1011.10  1072.58  1072.72  1073.12
eigval :     1073.26  1073.54  1073.71  1076.04  1076.63  1076.96
eigval :     1077.81  1078.05  1078.40  1082.46  1114.94  1115.34
eigval :     1132.66  1132.97  1133.61  1141.72  1141.82  1141.96
eigval :     1154.34  1155.62  1156.59  1167.54  1168.16  1171.83
eigval :     1175.23  1175.43  1175.97  1176.49  1176.72  1178.05
eigval :     1179.42  1179.77  1180.69  1194.23  1194.89  1200.21
eigval :     1207.90  1208.08  1208.25  1222.23  1222.35  1223.30
eigval :     1223.41  1223.72  1228.16  1243.17  1243.41  1245.46
eigval :     1253.48  1257.95  1258.81  1259.44  1260.31  1260.34
eigval :     1260.64  1262.24  1262.55  1281.96  1283.08  1283.35
eigval :     1285.15  1290.94  1291.15  1316.84  1323.71  1323.80
eigval :     1323.90  1324.93  1324.94  1325.00  1344.78  1360.72
eigval :     1360.84  1364.46  1364.53  1364.54  1371.94  1410.48
eigval :     1410.59  1420.66  1425.31  1425.37  1427.37  1427.39
eigval :     1427.51  1430.03  1430.07  1430.12  1439.97  1441.80
eigval :     1441.94  1454.07  1458.09  1458.59  1460.44  1460.48
eigval :     1460.57  1470.06  1470.14  1470.23  1478.63  1479.26
eigval :     1479.34  1570.61  1570.77  1573.68  1577.90  1577.93
eigval :     1583.64  1583.65  1583.71  1591.94  1592.08  1592.42
eigval :     1594.24  1594.26  1594.30  1596.28  1596.59  1596.72
eigval :     1602.19  1602.38  1602.52  1602.57  1602.61  1602.77
eigval :     1603.35  1603.54  1603.58  3067.87  3067.96  3068.06
eigval :     3068.21  3068.47  3068.51  3068.61  3068.87  3069.23
eigval :     3071.38  3071.79  3071.90  3071.98  3072.11  3072.22
eigval :     3072.39  3072.45  3072.49  3073.08  3073.17  3073.71
eigval :     3075.83  3076.21  3076.35  3078.53  3079.12  3079.13
eigval :     3079.64  3079.71  3079.78  3080.09  3080.19  3080.30
eigval :     3080.42  3080.47  3082.57  3084.69  3085.04  3085.77
eigval :     3086.91  3087.20  3087.23  3088.56  3088.64  3088.74
eigval :     3089.44  3089.56  3089.60

   temp. (K)  partition function   enthalpy   heat capacity  entropy
                                   cal/mol     cal/K/mol   cal/K/mol   J/K/mol
 298.15  VIB  0.850E+30            36528.467    232.829    228.640
         ROT  0.395E+09              888.752      2.981     42.319
         INT  0.336E+39            37417.219    235.809    270.959
         TR   0.316E+29             1481.254      4.968     46.623
         TOT                       38898.4730   240.7776   317.5816  1328.7613

       T/K    H(0)-H(T)+PV         H(T)/Eh          T*S/Eh         G(T)/Eh
   ------------------------------------------------------------------------
    298.15    0.619887E-01    0.105335E+01    0.150893E+00    0.902455E+00
   ------------------------------------------------------------------------

         :::::::::::::::::::::::::::::::::::::::::::::::::::::
         ::                  THERMODYNAMIC                  ::
         :::::::::::::::::::::::::::::::::::::::::::::::::::::
         :: total free energy        -197.201948997566 Eh   ::
         ::.................................................::
         :: total energy             -198.104404035988 Eh   ::
         :: zero point energy           0.991359627590 Eh   ::
         :: G(RRHO) w/o ZPVE           -0.088904589168 Eh   ::
         :: G(RRHO) contrib.            0.902455038422 Eh   ::
         :::::::::::::::::::::::::::::::::::::::::::::::::::::

           -------------------------------------------------
          | TOTAL ENERGY             -198.104404035988 Eh   |
          | TOTAL ENTHALPY           -197.051055745959 Eh   |
          | TOTAL FREE ENERGY        -197.201948997566 Eh   |
          | GRADIENT NORM               0.000056846759 Eh/α |
          | HOMO-LUMO GAP               3.052058903724 eV   |
           -------------------------------------------------

 * finished run on 2025/09/10 at 09:51:09.857
