   * xtb version 6.7.1 (edcfbbe) compiled by 'albert@albert-system' on 2024-07-22

   ID    Z sym.   atoms
    1    6 C      1-81
    2    1 H      82-129

          program call               : xtb data2507/toluene/TSBFB/TSBFB_toluene_S0_finalOpt.xtbopt.xyz --gfn 2 --uhf 2 --gbsa toluene --ohess vtight --parallel 40 --molden --ceasefiles --namespace data2507/toluene/TSBFB/TSBFB_toluene_T1_preOpt
      * Solvation model:               GBSA
        Solvent                        toluene
        Solvent mass                       9.2140E+01 g/mol
          :  Hamiltonian                  GFN2-xTB          :
 * total energy  :  -197.9966250 Eh     change       -0.3842075E-08 Eh
 * total energy  :  -198.0003844 Eh     change       -0.3759402E-02 Eh
 * total energy  :  -198.0024970 Eh     change       -0.2112594E-02 Eh
 * total energy  :  -198.0034971 Eh     change       -0.1000069E-02 Eh
 * total energy  :  -198.0045565 Eh     change       -0.1059432E-02 Eh
 * total energy  :  -198.0052812 Eh     change       -0.7246784E-03 Eh
 * total energy  :  -198.0054161 Eh     change       -0.1349010E-03 Eh
 * total energy  :  -198.0054919 Eh     change       -0.7581531E-04 Eh
 * total energy  :  -198.0055855 Eh     change       -0.9360147E-04 Eh
 * total energy  :  -198.0056735 Eh     change       -0.8806035E-04 Eh
 * total energy  :  -198.0065870 Eh     change       -0.3423500E-06 Eh
 * total energy  :  -198.0065873 Eh     change       -0.3014705E-06 Eh
 * total energy  :  -198.0065875 Eh     change       -0.2369143E-06 Eh
 * total energy  :  -198.0065878 Eh     change       -0.2467133E-06 Eh
 * total energy  :  -198.0065880 Eh     change       -0.2956716E-06 Eh
 * total energy  :  -198.0065883 Eh     change       -0.2998769E-06 Eh
 * total energy  :  -198.0065887 Eh     change       -0.3130328E-06 Eh
 * total energy  :  -198.0065890 Eh     change       -0.3409712E-06 Eh
 * total energy  :  -198.0065890 Eh     change       -0.2711971E-08 Eh
   *** GEOMETRY OPTIMIZATION CONVERGED AFTER 94 ITERATIONS ***

 final structure:
================
129
 xtb: 6.7.1 (edcfbbe)
C            5.73884238843370        3.42344430938497        2.74777710323909
C            4.54447038600454        3.88696426939841        3.28023084490331
C            3.49041432221807        4.25028088915329        2.45239531879236
C            3.65492937870917        4.13329049079880        1.08891908916283
C            4.85806773117909        3.65769076405753        0.54571343021105
C            5.90813765602187        3.30506644599975        1.37759766183923
C            4.73380699566236        3.63711673313996       -0.90316435612286
C            5.62407612172050        3.24886726888754       -1.89139259179748
C            5.22295499691851        3.32955181167910       -3.21538878840029
C            3.95803685381690        3.79146408529544       -3.54953113457736
C            3.06256643044466        4.18779556174079       -2.56493442321196
C            3.45707211215021        4.10700971239762       -1.24677249067410
C            2.67705660476177        4.48174777193125       -0.00852269798747
C            2.27779296964646        5.93914855233414        0.01702088782815
C            3.07722183921994        7.04584539753500       -0.05869941398270
C            2.48284134488516        8.31134760054374       -0.01513557989154
C            1.09487160993217        8.44464446080350        0.10349700767905
C            0.27551053814744        7.34605072747399        0.18180546726695
C            0.85641350669828        6.05795025796561        0.14068956651316
C            0.29174468126582        4.77866902015470        0.19523618262524
C           -1.05267430516982        4.32739512985760        0.30809480642788
C           -1.31552006666871        2.99811497881642        0.29659846731470
C           -0.28376736458264        1.99498596057935        0.19020733490482
C           -0.59919923658861        0.61297593656722        0.14903173870819
C           -1.90901687417694        0.15950561611249       -0.17054244002555
C           -2.22246019363545       -1.18089722147515       -0.23749444117275
C           -3.58034328068946       -1.60211965449497       -0.61239139823619
C           -3.77389445542968       -2.67064902355195       -1.48997814676126
C           -5.04036224526796       -3.06151287604960       -1.88580185123493
C           -6.13790862670956       -2.37421286200717       -1.39065944780511
C           -5.94993062190243       -1.31037498720467       -0.49482955801921
C           -4.69069805437887       -0.92040962986430       -0.10582172674845
C           -7.27796806705281       -0.71441650225630       -0.09096117193630
C           -7.37287527881771        0.76530412807789       -0.37787531315425
C           -7.21781982576524        1.41522991816233       -1.58316783984057
C           -7.33400170148937        2.79917656843890       -1.60906190426025
C           -7.60050215205774        3.51140639412129       -0.44892074421963
C           -7.75785972837425        2.86097824596166        0.76499404002993
C           -7.64290909162292        1.48050397935943        0.79840347924501
C           -7.74837207225326        0.53482686704309        1.89918751904516
C           -8.01074735927511        0.72567316707648        3.24622549849683
C           -8.05480078940929       -0.38248530159139        4.07759554108029
C           -7.83913647703938       -1.65771406752435        3.57631917258440
C           -7.57574817085060       -1.85656466556273        2.22717634186260
C           -7.53312675072743       -0.75731854905909        1.39740059456869
C           -8.24781431208165       -1.55850895342902       -0.88370134749585
C           -9.62183035160059       -1.46918176439170       -0.92893667977164
C          -10.31742637533459       -2.36042290657337       -1.73614136153314
C           -9.64497020916537       -3.32041660633824       -2.47824210128934
C           -8.26317457076912       -3.41525874225400       -2.43362054573555
C           -7.56215009629976       -2.52843587326170       -1.63159766996927
C           -1.23482556958016       -2.13663445504417        0.03834760316372
C            0.06758765106958       -1.73334200241250        0.37263791574683
C            1.08775008927024       -2.74935434721295        0.67128942271414
C            0.75098448824587       -3.88986500381578        1.40436928476023
C            1.68141704362143       -4.87397629787306        1.68308547103493
C            2.97687857224619       -4.72052662729310        1.21419798773395
C            3.32473084768940       -3.57389383245714        0.48265826433797
C            2.39908398344072       -2.59394283155697        0.21108475453788
C            4.77810071289831       -3.62665893359513        0.07582380867529
C            5.60314356489031       -2.46951756524496        0.58834292322745
C            5.78724035202277       -2.06025664800571        1.89132182795866
C            6.62557510134488       -0.97994855585480        2.13332247597892
C            7.26585184795759       -0.33061899558769        1.08849021102152
C            7.07619661285446       -0.73365317803266       -0.22360926198533
C            6.23823055807520       -1.80823040376053       -0.47302645455540
C            5.85712499309633       -2.45944276713237       -1.71696933942153
C            6.19894333978948       -2.18917167354109       -3.03218516860859
C            5.67853972052478       -2.99524888740625       -4.03242659474185
C            4.83214756840078       -4.05118231840497       -3.72799708040450
C            4.48423613823433       -4.32720022730855       -2.41194851835115
C            4.99916412873983       -3.52744682298430       -1.41486611947667
C            5.21455409696631       -4.95101286377067        0.65903479063940
C            6.45749236459100       -5.54273949418927        0.60360482323973
C            6.63326046193291       -6.77325428046511        1.22362050307961
C            5.58233221768198       -7.39221442694986        1.88483837284565
C            4.33069766836382       -6.80044168251476        1.94250393082948
C            4.14770596839241       -5.57255119746946        1.32579708737253
C            0.37457219203386       -0.38985989924851        0.41302312590884
C            1.07487191343101        2.46494875616484        0.11598019572518
C            1.33844378239264        3.78912061866590        0.10747217704334
H            6.54726879209463        3.15322790384762        3.41188729703814
H            4.43377992410696        3.97001337427592        4.35179862472233
H            2.56265055295916        4.61730768464369        2.86763527899656
H            6.83912659422295        2.94558987775394        0.96652523451569
H            6.61123409168495        2.89404142243843       -1.63589189436675
H            5.90328316314078        3.03029946047358       -3.99986735622111
H            3.66647060049581        3.84542531950119       -4.58844316280882
H            2.07868690381949        4.55047796917816       -2.82632719326304
H            4.14983852591071        6.95005535972742       -0.15156006514678
H            3.10088679369011        9.19420794740721       -0.07469017989000
H            0.66618097663673        9.43649277237795        0.13372330386583
H           -0.79479647105241        7.45276639905148        0.27322940926944
H           -1.85008641390300        5.04909020753991        0.40706057355612
H           -2.33736375104888        2.67231089847616        0.41189973503864
H           -2.66740467205528        0.87640866571246       -0.44143101608508
H           -2.91087685595769       -3.18394455972667       -1.88895261311668
H           -5.16809684161334       -3.88259410123385       -2.57577718496988
H           -4.55818191737401       -0.10798039133475        0.59412102833069
H           -7.00890128396962        0.86123874079967       -2.48727781380240
H           -7.21510836570988        3.32666889718201       -2.54445357092829
H           -7.68609482182927        4.58779360070453       -0.49297135288239
H           -7.96468000696390        3.42007455208716        1.66569195943447
H           -8.17946562084965        1.71646372716297        3.64172450474127
H           -8.25996419747174       -0.25217023782110        5.13052625450769
H           -7.87802923479324       -2.50715610998444        4.24281215626652
H           -7.40988286298609       -2.85066673863101        1.83723717947789
H          -10.14682659879503       -0.72203314885264       -0.35106861905808
H          -11.39518054453157       -2.30466128500688       -1.78634445512209
H          -10.20734891592918       -4.00283888216544       -3.09937266384748
H           -7.74419628123959       -4.16436593820906       -3.01330823239504
H           -1.47706097224343       -3.18645239341533       -0.00964212784922
H           -0.25686656458935       -3.99405798587233        1.77927223019459
H            1.39988064326852       -5.74618500432776        2.25451657257729
H            2.67296000812217       -1.72686027554875       -0.37283424434938
H            5.29428366014481       -2.57084457882004        2.70636672516896
H            6.78496568359737       -0.64598218340273        3.14822875902283
H            7.92374331578534        0.49863917953217        1.30387509399587
H            7.57747123843897       -0.22682839742054       -1.03479844974580
H            6.85734352123735       -1.36811456041679       -3.27465797885782
H            5.93528060511027       -2.79971022901625       -5.06372733352012
H            4.43885911876843       -4.66701625422315       -4.52383612474627
H            3.82459392503614       -5.14994820631138       -2.17566622703628
H            7.27672926180031       -5.06102102660524        0.08917075053744
H            7.60037556922157       -7.25363558469610        1.19081690172141
H            5.74303323323754       -8.34913372646768        2.36041104724366
H            3.51578180381036       -7.28652744602026        2.45833072815732
H            1.36648851758060       -0.09601004310246        0.71815114969896
H            1.88323075044683        1.75692187365981        0.01749695689636

          :  Hamiltonian                  GFN2-xTB          :
         :: gradient norm              0.000041565066 Eh/a0 ::
         :: HOMO-LUMO gap              0.393521414625 eV    ::
         :: SCC energy              -201.875227073964 Eh    ::
         :: -> dispersion             -0.199150343734 Eh    ::
         :: -> Gsolv                  -0.079245734454 Eh    ::
         :: repulsion energy           3.868638071042 Eh    ::

    * Orbital Energies and Occupations

         #    Occupation            Energy/Eh            Energy/eV
      -------------------------------------------------------------
         1        2.0000           -0.6627070             -18.0332
       ...           ...                  ...                  ...
       175        2.0000           -0.3968135             -10.7978
       176        2.0000           -0.3954488             -10.7607
       177        2.0000           -0.3952177             -10.7544
       178        2.0000           -0.3948201             -10.7436
       179        2.0000           -0.3943928             -10.7320
       180        2.0000           -0.3936349             -10.7114
       181        2.0000           -0.3819061             -10.3922
       182        2.0000           -0.3808960             -10.3647
       183        2.0000           -0.3803139             -10.3489
       184        1.9999           -0.3755190             -10.2184
       185        1.9964           -0.3725018             -10.1363
       186        1.0037           -0.3618418              -9.8462
       187        0.9995           -0.2749516              -7.4818 (HOMO)
       188        0.0005           -0.2604899              -7.0883 (LUMO)
       189        0.0000           -0.2553601              -6.9487
       190        0.0000           -0.2525846              -6.8732
       191                         -0.2521577              -6.8616
       192                         -0.2520458              -6.8585
       193                         -0.2273546              -6.1866
       194                         -0.2260934              -6.1523
       195                         -0.2257991              -6.1443
       196                         -0.2256868              -6.1413
       197                         -0.2255530              -6.1376
       198                         -0.2254533              -6.1349
       ...                                ...                  ...
       372                          0.7400683              20.1383
      -------------------------------------------------------------
                  HL-Gap            0.0144617 Eh            0.3935 eV

     #   Z          covCN         q      C6AA      α(0)
     1   6 C        2.921    -0.032    28.808     8.802
     2   6 C        2.922    -0.032    28.803     8.801
     3   6 C        2.913    -0.033    28.834     8.805
     4   6 C        3.055     0.005    27.866     8.657
     5   6 C        3.036     0.001    27.979     8.676
     6   6 C        2.914    -0.034    28.844     8.807
     7   6 C        3.035     0.001    27.977     8.676
     8   6 C        2.914    -0.034    28.847     8.807
     9   6 C        2.921    -0.033    28.816     8.803
    10   6 C        2.922    -0.032    28.803     8.801
    11   6 C        2.913    -0.033    28.831     8.805
    12   6 C        3.055     0.005    27.868     8.658
    13   6 C        3.971     0.009    20.352     6.410
    14   6 C        3.054     0.007    27.800     8.647
    15   6 C        2.908    -0.035    28.859     8.809
    16   6 C        2.920    -0.035    28.867     8.811
    17   6 C        2.914    -0.030    28.757     8.794
    18   6 C        2.909    -0.038    28.950     8.823
    19   6 C        3.026     0.002    27.951     8.672
    20   6 C        3.031    -0.003    28.065     8.690
    21   6 C        2.902    -0.036    28.899     8.814
    22   6 C        2.914    -0.035    28.874     8.811
    23   6 C        2.969     0.004    27.931     8.669
    24   6 C        2.965     0.008    27.826     8.653
    25   6 C        2.927    -0.043    29.073     8.842
    26   6 C        2.967     0.009    27.812     8.650
    27   6 C        2.980     0.007    27.854     8.657
    28   6 C        2.925    -0.037    28.932     8.821
    29   6 C        2.913    -0.035    28.877     8.812
    30   6 C        3.036    -0.002    28.035     8.685
    31   6 C        3.053     0.005    27.848     8.655
    32   6 C        2.919    -0.038    28.952     8.824
    33   6 C        3.977     0.010    20.344     6.408
    34   6 C        3.055     0.006    27.844     8.654
    35   6 C        2.913    -0.034    28.836     8.806
    36   6 C        2.922    -0.032    28.810     8.802
    37   6 C        2.921    -0.033    28.829     8.805
    38   6 C        2.914    -0.035    28.864     8.810
    39   6 C        3.035     0.000    27.988     8.677
    40   6 C        3.035     0.000    27.991     8.678
    41   6 C        2.914    -0.035    28.863     8.810
    42   6 C        2.921    -0.033    28.830     8.805
    43   6 C        2.923    -0.032    28.808     8.802
    44   6 C        2.913    -0.034    28.836     8.806
    45   6 C        3.055     0.006    27.839     8.653
    46   6 C        3.055     0.006    27.843     8.654
    47   6 C        2.913    -0.034    28.838     8.806
    48   6 C        2.922    -0.033    28.812     8.802
    49   6 C        2.920    -0.033    28.828     8.805
    50   6 C        2.914    -0.035    28.868     8.811
    51   6 C        3.036     0.001    27.977     8.676
    52   6 C        2.927    -0.043    29.067     8.842
    53   6 C        2.967     0.009    27.811     8.650
    54   6 C        2.979     0.007    27.855     8.657
    55   6 C        2.926    -0.038    28.936     8.821
    56   6 C        2.912    -0.035    28.881     8.812
    57   6 C        3.037    -0.002    28.030     8.684
    58   6 C        3.051     0.005    27.857     8.656
    59   6 C        2.918    -0.038    28.938     8.821
    60   6 C        3.978     0.010    20.342     6.408
    61   6 C        3.055     0.006    27.843     8.654
    62   6 C        2.914    -0.034    28.839     8.806
    63   6 C        2.923    -0.032    28.802     8.801
    64   6 C        2.921    -0.032    28.800     8.800
    65   6 C        2.915    -0.034    28.847     8.807
    66   6 C        3.036     0.000    27.991     8.678
    67   6 C        3.036     0.000    27.988     8.677
    68   6 C        2.914    -0.034    28.858     8.809
    69   6 C        2.921    -0.033    28.830     8.805
    70   6 C        2.922    -0.033    28.811     8.802
    71   6 C        2.913    -0.034    28.838     8.806
    72   6 C        3.055     0.005    27.847     8.654
    73   6 C        3.056     0.006    27.836     8.652
    74   6 C        2.913    -0.034    28.838     8.806
    75   6 C        2.923    -0.033    28.810     8.802
    76   6 C        2.921    -0.033    28.829     8.805
    77   6 C        2.914    -0.035    28.868     8.810
    78   6 C        3.035     0.001    27.978     8.676
    79   6 C        2.925    -0.042    29.044     8.838
    80   6 C        2.908    -0.041    29.016     8.833
    81   6 C        3.036     0.006    27.856     8.657
    82   1 H        0.926     0.033     2.538     2.491
    83   1 H        0.926     0.033     2.549     2.497
    84   1 H        0.926     0.027     2.632     2.537
    85   1 H        0.926     0.035     2.516     2.481
    86   1 H        0.926     0.034     2.524     2.484
    87   1 H        0.926     0.033     2.538     2.491
    88   1 H        0.926     0.033     2.550     2.497
    89   1 H        0.926     0.027     2.635     2.538
    90   1 H        0.926     0.026     2.650     2.546
    91   1 H        0.926     0.032     2.562     2.503
    92   1 H        0.926     0.032     2.554     2.499
    93   1 H        0.926     0.033     2.546     2.495
    94   1 H        0.926     0.033     2.543     2.493
    95   1 H        0.926     0.036     2.507     2.476
    96   1 H        0.926     0.035     2.512     2.479
    97   1 H        0.926     0.035     2.517     2.481
    98   1 H        0.926     0.034     2.525     2.485
    99   1 H        0.926     0.028     2.610     2.527
   100   1 H        0.926     0.027     2.632     2.537
   101   1 H        0.926     0.032     2.554     2.499
   102   1 H        0.926     0.033     2.547     2.496
   103   1 H        0.926     0.034     2.535     2.490
   104   1 H        0.926     0.034     2.533     2.489
   105   1 H        0.926     0.033     2.547     2.495
   106   1 H        0.926     0.032     2.553     2.499
   107   1 H        0.926     0.027     2.628     2.535
   108   1 H        0.926     0.027     2.630     2.536
   109   1 H        0.926     0.032     2.553     2.499
   110   1 H        0.926     0.033     2.547     2.496
   111   1 H        0.926     0.034     2.533     2.489
   112   1 H        0.926     0.036     2.509     2.477
   113   1 H        0.926     0.035     2.510     2.478
   114   1 H        0.926     0.035     2.523     2.484
   115   1 H        0.926     0.027     2.625     2.534
   116   1 H        0.926     0.026     2.639     2.540
   117   1 H        0.926     0.032     2.554     2.499
   118   1 H        0.926     0.033     2.546     2.495
   119   1 H        0.926     0.033     2.537     2.491
   120   1 H        0.926     0.034     2.531     2.488
   121   1 H        0.926     0.033     2.546     2.495
   122   1 H        0.926     0.032     2.555     2.499
   123   1 H        0.926     0.027     2.633     2.537
   124   1 H        0.926     0.027     2.631     2.537
   125   1 H        0.926     0.033     2.550     2.497
   126   1 H        0.926     0.033     2.543     2.494
   127   1 H        0.926     0.034     2.530     2.488
   128   1 H        0.926     0.033     2.546     2.495
   129   1 H        0.926     0.027     2.631     2.536

molecular dipole:
                 x           y           z       tot (Debye)
 q only:        0.056      -0.094       0.002
   full:        0.041      -0.092      -0.008       0.256

 projected vibrational frequencies (cm⁻¹)
eigval :       -0.00    -0.00    -0.00     0.00     0.00     0.00
eigval :        2.03     7.75    10.12    12.53    13.56    18.31
eigval :       20.38    23.84    25.76    34.06    39.68    40.70
eigval :       44.73    46.80    47.23    49.07    59.16    66.10
eigval :       72.62    73.11    84.45    93.60    97.93   102.24
eigval :      117.91   123.70   126.00   128.48   131.03   136.66
eigval :      139.12   148.97   152.13   158.70   180.01   187.77
eigval :      192.35   204.57   211.47   220.47   222.22   232.39
eigval :      233.11   234.37   239.75   245.85   256.16   261.48
eigval :      271.26   282.32   285.66   289.94   311.76   313.90
eigval :      327.86   335.39   347.26   357.84   365.69   373.51
eigval :      384.89   389.26   389.53   396.44   407.04   407.72
eigval :      413.91   414.02   414.15   416.25   416.89   437.03
eigval :      442.86   448.09   450.89   451.86   457.36   458.78
eigval :      460.12   463.97   471.08   476.25   480.11   497.19
eigval :      501.72   503.04   504.06   506.91   509.73   519.58
eigval :      528.74   538.65   538.92   539.55   545.60   566.79
eigval :      570.46   576.14   582.38   585.95   588.96   591.68
eigval :      593.35   597.30   603.71   604.12   606.10   612.34
eigval :      630.66   631.09   636.78   638.38   643.47   644.04
eigval :      665.52   682.64   685.32   685.85   687.39   688.14
eigval :      688.98   693.87   698.69   706.57   707.40   707.82
eigval :      725.60   729.76   734.41   737.59   739.62   740.48
eigval :      752.15   753.43   753.78   760.21   764.86   767.50
eigval :      771.62   773.26   774.60   781.14   782.64   785.29
eigval :      786.12   787.86   823.54   828.94   831.88   835.65
eigval :      837.54   841.50   842.60   849.12   871.19   873.95
eigval :      875.88   876.63   876.99   879.63   880.10   884.27
eigval :      885.47   887.53   890.97   893.89   899.78   900.31
eigval :      900.85   902.20   906.16   906.73   908.50   909.74
eigval :      910.33   910.73   910.93   911.16   912.14   915.51
eigval :      917.36   921.55   925.37   925.56   926.23   926.37
eigval :      926.46   927.03   927.22   928.53   929.14   929.75
eigval :      939.75   965.29   975.04   989.15  1006.40  1007.58
eigval :     1007.83  1008.30  1011.33  1035.01  1051.56  1063.55
eigval :     1072.03  1072.96  1073.25  1073.70  1073.81  1075.81
eigval :     1077.23  1077.36  1078.06  1078.95  1098.25  1113.26
eigval :     1122.43  1132.82  1133.70  1139.49  1141.91  1141.96
eigval :     1143.47  1154.87  1155.51  1158.06  1163.93  1166.28
eigval :     1173.02  1175.60  1176.19  1176.65  1177.36  1177.74
eigval :     1178.41  1179.71  1180.34  1182.54  1194.02  1198.28
eigval :     1205.47  1207.22  1207.82  1208.90  1217.79  1221.64
eigval :     1223.12  1224.67  1229.14  1239.76  1242.02  1246.15
eigval :     1247.74  1251.03  1258.65  1258.83  1259.65  1260.45
eigval :     1261.65  1262.25  1266.34  1276.59  1283.40  1283.62
eigval :     1284.41  1288.52  1292.78  1304.32  1321.10  1324.72
eigval :     1324.93  1325.66  1326.01  1333.47  1334.98  1341.74
eigval :     1349.42  1356.16  1362.82  1363.83  1364.49  1365.16
eigval :     1370.28  1374.29  1404.56  1417.51  1419.34  1420.69
eigval :     1426.58  1426.87  1427.51  1427.98  1429.67  1430.80
eigval :     1433.03  1433.88  1448.34  1452.82  1460.05  1460.28
eigval :     1461.43  1465.99  1466.45  1468.83  1469.94  1470.81
eigval :     1476.68  1496.62  1497.55  1528.06  1552.95  1568.47
eigval :     1569.39  1570.74  1582.09  1583.46  1584.20  1586.98
eigval :     1588.88  1590.65  1590.79  1592.66  1594.40  1594.87
eigval :     1599.29  1600.61  1600.93  1601.57  1602.19  1602.34
eigval :     1602.72  1603.11  1624.45  3068.54  3068.58  3068.72
eigval :     3068.77  3068.91  3069.00  3069.03  3069.71  3070.09
eigval :     3070.13  3071.60  3072.57  3072.66  3072.88  3072.95
eigval :     3073.34  3073.41  3073.84  3074.32  3074.66  3074.96
eigval :     3076.13  3077.56  3079.45  3079.94  3080.25  3080.79
eigval :     3081.16  3081.57  3081.73  3083.04  3085.08  3085.41
eigval :     3086.09  3087.25  3087.39  3088.25  3088.43  3088.91
eigval :     3089.45  3089.52  3090.91  3092.17  3092.84  3094.49
eigval :     3096.97  3099.48  3104.73

   temp. (K)  partition function   enthalpy   heat capacity  entropy
                                   cal/mol     cal/K/mol   cal/K/mol   J/K/mol
 298.15  VIB  0.241E+31            36923.996    234.965    231.535
         ROT  0.383E+09              888.752      2.981     42.257
         INT  0.923E+39            37812.748    237.946    273.791
         TR   0.316E+29             1481.254      4.968     46.623
         TOT                       39294.0024   242.9140   320.4143  1340.6136

       T/K    H(0)-H(T)+PV         H(T)/Eh          T*S/Eh         G(T)/Eh
   ------------------------------------------------------------------------
    298.15    0.626190E-01    0.104989E+01    0.152239E+00    0.897652E+00
   ------------------------------------------------------------------------

         :::::::::::::::::::::::::::::::::::::::::::::::::::::
         ::                  THERMODYNAMIC                  ::
         :::::::::::::::::::::::::::::::::::::::::::::::::::::
         :: total free energy        -197.108937281678 Eh   ::
         ::.................................................::
         :: total energy             -198.006589001077 Eh   ::
         :: zero point energy           0.987271930927 Eh   ::
         :: G(RRHO) w/o ZPVE           -0.089620211528 Eh   ::
         :: G(RRHO) contrib.            0.897651719398 Eh   ::
         :::::::::::::::::::::::::::::::::::::::::::::::::::::

           -------------------------------------------------
          | TOTAL ENERGY             -198.006589001077 Eh   |
          | TOTAL ENTHALPY           -196.956698091428 Eh   |
          | TOTAL FREE ENERGY        -197.108937281678 Eh   |
          | GRADIENT NORM               0.000041568329 Eh/α |
          | HOMO-LUMO GAP               0.393522936615 eV   |
           -------------------------------------------------

 * finished run on 2025/09/10 at 10:16:03.010
