   * xtb version 6.7.1 (edcfbbe) compiled by 'albert@albert-system' on 2024-07-22

   ID    Z sym.   atoms
    1    6 C      1-5, 7-13, 15, 17-32, 34-41, 43, 44
    2    7 N      6, 14, 16, 33, 42
    3    1 H      45-69

          program call               : xtb data2507/toluene/DIC-TRZ/DIC-TRZ_toluene_S0_crest.xyz --gfn 2 --gbsa toluene --ohess vtight --parallel 40 --molden --ceasefiles --namespace data2507/toluene/DIC-TRZ/DIC-TRZ_toluene_S0_finalOpt
      * Solvation model:               GBSA
        Solvent                        toluene
        Solvent mass                       9.2140E+01 g/mol
          :  Hamiltonian                  GFN2-xTB          :
 * total energy  :  -111.0207021 Eh     change       -0.2520025E-08 Eh
 * total energy  :  -111.0208160 Eh     change       -0.1139387E-03 Eh
 * total energy  :  -111.0208941 Eh     change       -0.7809436E-04 Eh
 * total energy  :  -111.0209311 Eh     change       -0.3693894E-04 Eh
 * total energy  :  -111.0209577 Eh     change       -0.2662610E-04 Eh
 * total energy  :  -111.0209941 Eh     change       -0.3640016E-04 Eh
 * total energy  :  -111.0210092 Eh     change       -0.1512974E-04 Eh
 * total energy  :  -111.0210265 Eh     change       -0.1723860E-04 Eh
 * total energy  :  -111.0210347 Eh     change       -0.8258765E-05 Eh
 * total energy  :  -111.0210402 Eh     change       -0.5529396E-05 Eh
 * total energy  :  -111.0210863 Eh     change       -0.6404267E-06 Eh
 * total energy  :  -111.0210871 Eh     change       -0.8472254E-06 Eh
 * total energy  :  -111.0210877 Eh     change       -0.6172760E-06 Eh
 * total energy  :  -111.0210881 Eh     change       -0.3771125E-06 Eh
 * total energy  :  -111.0210884 Eh     change       -0.2963490E-06 Eh
 * total energy  :  -111.0210887 Eh     change       -0.3198286E-06 Eh
 * total energy  :  -111.0210891 Eh     change       -0.3858708E-06 Eh
 * total energy  :  -111.0210894 Eh     change       -0.2916467E-06 Eh
 * total energy  :  -111.0210894 Eh     change       -0.3575819E-07 Eh
   *** GEOMETRY OPTIMIZATION CONVERGED AFTER 38 ITERATIONS ***

 final structure:
================
69
 xtb: 6.7.1 (edcfbbe)
C            6.88178623867728        0.51863857707436        0.93667023138809
C            6.34489961807358        1.53159545103923        0.15653023749147
C            5.01616250138031        1.48578975316128       -0.22003147092385
C            4.21178706363325        0.41936111349562        0.17866085706854
C            2.80250067601070        0.37260238912937       -0.21359485273223
N            2.27591910236713        1.45779244217449       -0.77384619116775
C            0.98416369106141        1.38234326788012       -1.08593548440890
C            0.34843461632431        2.54797535295607       -1.69997712977405
C            1.07470174922899        3.71765893558194       -1.91579202568093
C            0.46048068486556        4.82046453660309       -2.47850774501499
C           -0.88037125001324        4.76698986591568       -2.82850618181941
C           -1.60831365334879        3.60528658894457       -2.61744940745095
C           -0.99888635542328        2.49893472250309       -2.05772125186747
N            0.22897676448155        0.31213630447369       -0.87466355522113
C            0.84814224117567       -0.72207305226579       -0.31702775391376
N            0.10015363038544       -1.85548390162557       -0.12112134109175
C            0.55766279221841       -3.14059902721728       -0.42282361074472
C            1.85320948830632       -3.62088446115122       -0.49074046610430
C            2.03190194231591       -4.94914387616317       -0.84010268993527
C            0.94925360229162       -5.77648140728635       -1.12150510775570
C           -0.34528762342380       -5.29501569712799       -1.06777148611415
C           -0.54657054772915       -3.96719539940577       -0.71540143696249
C           -1.73155180844576       -3.16160778245662       -0.56205950296931
C           -3.08142041189120       -3.46071721104236       -0.75111259521990
C           -4.02174907103351       -2.48345676488010       -0.51736153081793
C           -3.61419680120005       -1.25046220791685       -0.00780092409602
C           -4.36680973431998       -0.11132398393040        0.43421819870790
C           -5.72593663841519        0.18018800355917        0.44351744709487
C           -6.14315519160992        1.36913590980140        1.00608425542367
C           -5.22512255652328        2.24989883896434        1.57435181452749
C           -3.86938624160609        1.98028221758596        1.57620072852831
C           -3.43860559248096        0.80395613300484        0.97859306065006
N           -2.15905493256755        0.28605540811871        0.85594090439026
C           -1.03152583494942        0.79195648999940        1.51817410663709
C           -0.68689800145236        2.13697109563234        1.41316606401679
C            0.43145694803049        2.61722596947976        2.06851640402985
C            1.21494985051174        1.76914564623212        2.83477670983173
C            0.86587210541079        0.43436407036816        2.95349988635000
C           -0.25521313685513       -0.05356653614523        2.30746408130359
C           -2.25209534843123       -0.95226998245450        0.24498372558235
C           -1.29801165218943       -1.88464779140142       -0.15066382397935
N            2.13202658876685       -0.75168512094603        0.02116942070905
C            4.75764344799989       -0.59576019680914        0.96302198639264
C            6.08606432731044       -0.54312778422670        1.33972400063132
H            7.91994053599772        0.55695297221856        1.23137962736274
H            6.96514662701891        2.35774453259939       -0.15813873133667
H            4.58107589493300        2.26412137959938       -0.82750195731467
H            2.11482374196778        3.74194192374256       -1.63021892018553
H            1.02622658731499        5.72536137574150       -2.64389872048813
H           -1.35841569548325        5.63097238020899       -3.26573575346712
H           -2.65293141907594        3.56302510861025       -2.88858602516931
H           -1.54870073124810        1.58606718038506       -1.88631001231324
H            2.69016263492467       -2.97570722035592       -0.27872039144391
H            3.03364452407860       -5.34911839192180       -0.89212039710357
H            1.12620761100497       -6.80781399371211       -1.38769560889710
H           -1.18503874633744       -5.93425577362652       -1.29332755895106
H           -3.37243710284304       -4.44449187170350       -1.08368725541684
H           -5.07005127891439       -2.67168645520242       -0.68840723201883
H           -6.43590513613315       -0.51536399409547        0.02276782920308
H           -7.19360469158117        1.61824320603979        1.02011144297062
H           -5.57969133142624        3.16312597898760        2.02890604827949
H           -3.17585332270632        2.66269290283916        2.04210036540769
H           -1.26978556657328        2.79064997140863        0.78278656676497
H            0.70091303014177        3.65826438845124        1.96772678873574
H            2.09583449750369        2.14565395369359        3.33271859893431
H            1.46757290486791       -0.23253676333105        3.55359028905662
H           -0.53351974142993       -1.09271028580985        2.41185750492500
H            4.12347606860683       -1.41222590944261        1.27317108024411
H            6.50339825407755       -1.33073186884950        1.94965672632497

          :  Hamiltonian                  GFN2-xTB          :
         :: gradient norm              0.000147025648 Eh/a0 ::
         :: HOMO-LUMO gap              1.923979327467 eV    ::
         :: SCC energy              -113.050481930347 Eh    ::
         :: -> dispersion             -0.109052087947 Eh    ::
         :: -> Gsolv                  -0.046289241824 Eh    ::
         :: repulsion energy           2.029392497391 Eh    ::

    * Orbital Energies and Occupations

         #    Occupation            Energy/Eh            Energy/eV
      -------------------------------------------------------------
         1        2.0000           -0.6981897             -18.9987
       ...           ...                  ...                  ...
        91        2.0000           -0.4225807             -11.4990
        92        2.0000           -0.4208995             -11.4533
        93        2.0000           -0.4207122             -11.4482
        94        2.0000           -0.4200276             -11.4295
        95        2.0000           -0.4170795             -11.3493
        96        2.0000           -0.4159664             -11.3190
        97        2.0000           -0.4140508             -11.2669
        98        2.0000           -0.4115728             -11.1995
        99        2.0000           -0.3943238             -10.7301
       100        2.0000           -0.3866932             -10.5225
       101        2.0000           -0.3860243             -10.5043
       102        2.0000           -0.3791761             -10.3179
       103        2.0000           -0.3675483             -10.0015 (HOMO)
       104                         -0.2968433              -8.0775 (LUMO)
       105                         -0.2839344              -7.7262
       106                         -0.2631157              -7.1597
       107                         -0.2432988              -6.6205
       108                         -0.2424279              -6.5968
       109                         -0.2379804              -6.4758
       110                         -0.2375498              -6.4641
       111                         -0.2349958              -6.3946
       112                         -0.2330301              -6.3411
       113                         -0.2290967              -6.2340
       114                         -0.2107662              -5.7352
       ...                                ...                  ...
       201                          0.7477345              20.3469
      -------------------------------------------------------------
                  HL-Gap            0.0707050 Eh            1.9240 eV

     #   Z          covCN         q      C6AA      α(0)
     1   6 C        2.920    -0.023    28.580     8.767
     2   6 C        2.918    -0.028    28.693     8.784
     3   6 C        2.924    -0.026    28.655     8.778
     4   6 C        2.984    -0.009    28.228     8.715
     5   6 C        2.993     0.221    23.344     7.926
     6   7 N        1.843    -0.334    29.523     8.053
     7   6 C        2.992     0.222    23.337     7.924
     8   6 C        2.984    -0.009    28.227     8.715
     9   6 C        2.923    -0.026    28.653     8.778
    10   6 C        2.918    -0.028    28.691     8.784
    11   6 C        2.920    -0.023    28.570     8.765
    12   6 C        2.918    -0.028    28.693     8.784
    13   6 C        2.924    -0.025    28.633     8.775
    14   7 N        1.849    -0.331    29.431     8.040
    15   6 C        2.942     0.298    21.960     7.686
    16   7 N        2.806    -0.070    22.592     7.059
    17   6 C        3.059     0.055    26.703     8.474
    18   6 C        2.910    -0.051    29.274     8.872
    19   6 C        2.925    -0.035    28.869     8.811
    20   6 C        2.920    -0.039    28.968     8.826
    21   6 C        2.913    -0.036    28.893     8.814
    22   6 C        3.065    -0.015    28.328     8.728
    23   6 C        3.060    -0.023    28.527     8.759
    24   6 C        2.914    -0.047    29.170     8.856
    25   6 C        2.914    -0.043    29.075     8.842
    26   6 C        3.067    -0.024    28.535     8.759
    27   6 C        3.068    -0.017    28.359     8.732
    28   6 C        2.913    -0.035    28.864     8.810
    29   6 C        2.920    -0.041    29.013     8.833
    30   6 C        2.924    -0.034    28.851     8.808
    31   6 C        2.910    -0.052    29.297     8.875
    32   6 C        3.071     0.048    26.846     8.496
    33   7 N        2.798    -0.051    22.231     7.003
    34   6 C        2.913     0.076    26.303     8.410
    35   6 C        2.922    -0.045    29.118     8.849
    36   6 C        2.920    -0.031    28.779     8.797
    37   6 C        2.919    -0.037    28.920     8.819
    38   6 C        2.919    -0.031    28.781     8.798
    39   6 C        2.923    -0.045    29.118     8.849
    40   6 C        3.059     0.046    26.913     8.508
    41   6 C        3.051     0.047    26.893     8.505
    42   7 N        1.846    -0.338    29.629     8.067
    43   6 C        2.924    -0.026    28.655     8.778
    44   6 C        2.918    -0.028    28.697     8.785
    45   1 H        0.926     0.052     2.301     2.372
    46   1 H        0.926     0.049     2.337     2.390
    47   1 H        0.926     0.049     2.335     2.389
    48   1 H        0.926     0.050     2.325     2.385
    49   1 H        0.926     0.049     2.333     2.389
    50   1 H        0.926     0.052     2.300     2.372
    51   1 H        0.926     0.047     2.362     2.403
    52   1 H        0.926     0.046     2.368     2.407
    53   1 H        0.926     0.044     2.394     2.420
    54   1 H        0.926     0.040     2.448     2.447
    55   1 H        0.926     0.042     2.422     2.434
    56   1 H        0.926     0.043     2.411     2.428
    57   1 H        0.926     0.042     2.425     2.435
    58   1 H        0.926     0.044     2.400     2.423
    59   1 H        0.926     0.039     2.465     2.455
    60   1 H        0.926     0.037     2.482     2.464
    61   1 H        0.926     0.038     2.480     2.463
    62   1 H        0.926     0.031     2.575     2.510
    63   1 H        0.926     0.041     2.435     2.440
    64   1 H        0.926     0.040     2.446     2.446
    65   1 H        0.926     0.038     2.470     2.458
    66   1 H        0.926     0.037     2.483     2.464
    67   1 H        0.926     0.028     2.609     2.526
    68   1 H        0.926     0.046     2.365     2.405
    69   1 H        0.926     0.048     2.348     2.396

molecular dipole:
                 x           y           z       tot (Debye)
 q only:        0.265       0.659       0.079
   full:        0.429       0.694       0.119       2.097

 projected vibrational frequencies (cm⁻¹)
eigval :       -0.00    -0.00     0.00     0.00     0.00     0.00
eigval :       13.30    19.23    26.75    34.10    39.11    40.94
eigval :       44.97    59.30    64.34    79.71    82.77    88.91
eigval :      108.21   117.34   127.92   136.88   147.62   175.48
eigval :      185.56   200.55   210.01   218.02   235.93   243.10
eigval :      258.45   267.95   288.56   295.79   322.42   331.52
eigval :      347.18   364.09   365.14   380.03   387.16   393.84
eigval :      401.87   411.02   424.64   436.08   444.10   473.85
eigval :      477.83   498.61   511.27   533.27   541.52   552.58
eigval :      558.81   583.50   586.50   587.29   590.92   602.47
eigval :      609.78   615.16   626.16   628.47   632.76   643.68
eigval :      653.74   668.76   672.43   675.13   678.94   689.64
eigval :      698.39   708.87   743.11   755.11   764.11   774.05
eigval :      774.82   775.71   789.10   793.29   811.43   823.81
eigval :      847.67   868.41   874.67   875.12   880.13   883.80
eigval :      885.99   899.92   903.65   905.72   912.10   912.57
eigval :      915.11   920.13   920.49   921.23   929.86   931.88
eigval :      932.19   935.28   936.07   936.90   951.61   965.39
eigval :      990.15   996.57  1015.27  1050.97  1067.96  1072.53
eigval :     1074.64  1076.36  1081.70  1091.73  1098.07  1108.32
eigval :     1110.95  1120.20  1137.02  1148.67  1155.26  1168.96
eigval :     1172.29  1176.08  1176.84  1177.28  1178.93  1183.32
eigval :     1186.81  1198.29  1204.72  1214.87  1225.60  1231.85
eigval :     1238.42  1265.90  1268.55  1270.83  1275.31  1284.33
eigval :     1299.89  1308.27  1316.77  1326.49  1326.94  1349.36
eigval :     1357.13  1357.87  1364.39  1376.24  1387.51  1392.80
eigval :     1414.61  1423.66  1424.51  1430.05  1431.49  1435.48
eigval :     1464.75  1466.81  1474.88  1478.31  1478.63  1482.92
eigval :     1520.27  1521.95  1567.29  1579.07  1581.37  1583.56
eigval :     1584.45  1588.55  1592.42  1593.21  1594.02  1600.70
eigval :     1601.92  1608.75  3074.02  3077.90  3078.11  3079.20
eigval :     3079.32  3080.40  3082.18  3082.42  3083.98  3084.26
eigval :     3087.52  3092.15  3092.46  3093.22  3093.67  3094.58
eigval :     3096.94  3099.16  3099.22  3100.79  3102.86  3103.21
eigval :     3104.39  3105.06  3113.04

   temp. (K)  partition function   enthalpy   heat capacity  entropy
                                   cal/mol     cal/K/mol   cal/K/mol   J/K/mol
 298.15  VIB  0.270E+15            19316.237    124.179    119.062
         ROT  0.417E+08              888.752      2.981     37.849
         INT  0.113E+23            20204.990    127.160    156.911
         TR   0.129E+29             1481.254      4.968     44.852
         TOT                       21686.2437   132.1285   201.7630   844.1764

       T/K    H(0)-H(T)+PV         H(T)/Eh          T*S/Eh         G(T)/Eh
   ------------------------------------------------------------------------
    298.15    0.345592E-01    0.556792E+00    0.958641E-01    0.460927E+00
   ------------------------------------------------------------------------

         :::::::::::::::::::::::::::::::::::::::::::::::::::::
         ::                  THERMODYNAMIC                  ::
         :::::::::::::::::::::::::::::::::::::::::::::::::::::
         :: total free energy        -110.560161936902 Eh   ::
         ::.................................................::
         :: total energy             -111.021089430373 Eh   ::
         :: zero point energy           0.522232382002 Eh   ::
         :: G(RRHO) w/o ZPVE           -0.061304888531 Eh   ::
         :: G(RRHO) contrib.            0.460927493471 Eh   ::
         :::::::::::::::::::::::::::::::::::::::::::::::::::::

           -------------------------------------------------
          | TOTAL ENERGY             -111.021089430373 Eh   |
          | TOTAL ENTHALPY           -110.464297819309 Eh   |
          | TOTAL FREE ENERGY        -110.560161936902 Eh   |
          | GRADIENT NORM               0.000147121519 Eh/α |
          | HOMO-LUMO GAP               1.923981119713 eV   |
           -------------------------------------------------

 * finished run on 2025/08/24 at 08:50:05.307
