   * xtb version 6.7.1 (edcfbbe) compiled by 'albert@albert-system' on 2024-07-22

   ID    Z sym.   atoms
    1    6 C      1-5, 7-13, 15, 17-32, 34-41, 43, 44
    2    7 N      6, 14, 16, 33, 42
    3    1 H      45-69

          program call               : xtb data2507/toluene/DIC-TRZ/DIC-TRZ.xyz --gfn 2 --gbsa toluene --ohess vtight --parallel 40 --molden --ceasefiles --namespace data2507/toluene/DIC-TRZ/DIC-TRZ_toluene_S0_preOpt
      * Solvation model:               GBSA
        Solvent                        toluene
        Solvent mass                       9.2140E+01 g/mol
          :  Hamiltonian                  GFN2-xTB          :
 * total energy  :  -110.9705737 Eh     change       -0.3699924E-08 Eh
 * total energy  :  -111.0016588 Eh     change       -0.3108515E-01 Eh
 * total energy  :  -111.0138262 Eh     change       -0.1216737E-01 Eh
 * total energy  :  -111.0173628 Eh     change       -0.3536649E-02 Eh
 * total energy  :  -111.0190299 Eh     change       -0.1667044E-02 Eh
 * total energy  :  -111.0194249 Eh     change       -0.3950239E-03 Eh
 * total energy  :  -111.0197190 Eh     change       -0.2940836E-03 Eh
 * total energy  :  -111.0199071 Eh     change       -0.1880544E-03 Eh
 * total energy  :  -111.0200366 Eh     change       -0.1295276E-03 Eh
 * total energy  :  -111.0201474 Eh     change       -0.1108268E-03 Eh
 * total energy  :  -111.0211241 Eh     change       -0.5447238E-06 Eh
 * total energy  :  -111.0211246 Eh     change       -0.4521362E-06 Eh
 * total energy  :  -111.0211251 Eh     change       -0.4903491E-06 Eh
 * total energy  :  -111.0211256 Eh     change       -0.5130069E-06 Eh
 * total energy  :  -111.0211260 Eh     change       -0.3962369E-06 Eh
 * total energy  :  -111.0211263 Eh     change       -0.2844660E-06 Eh
 * total energy  :  -111.0211265 Eh     change       -0.2276719E-06 Eh
 * total energy  :  -111.0211266 Eh     change       -0.1479739E-06 Eh
 * total energy  :  -111.0211267 Eh     change       -0.1749255E-07 Eh
   *** GEOMETRY OPTIMIZATION CONVERGED AFTER 63 ITERATIONS ***

 final structure:
================
69
 xtb: 6.7.1 (edcfbbe)
C            6.67085602964847        1.54148024128258        0.84620073398885
C            6.09872992292956        0.31512059456631        1.14904716004826
C            4.79044807371959        0.05333422610431        0.78969804024339
C            4.04087383184491        1.02019629659524        0.12087409374213
C            2.65395729018573        0.74785250571376       -0.25894328592806
N            1.93424276025887        1.75144125877592       -0.75275249196857
C            0.67166169234456        1.46519061869477       -1.06148804281146
C           -0.16861060554216        2.53212300578534       -1.60498813536625
C            0.32450104654093        3.83071179663070       -1.71798053372801
C           -0.48331917519020        4.83819287977203       -2.21034582746454
C           -1.78672345357695        4.55997046927626       -2.59352221649984
C           -2.28227747777399        3.26878709677466       -2.48681054254511
C           -1.47906509293864        2.25751056276792       -1.99579596920989
N            0.12016513172451        0.26818113997769       -0.90666997225664
C            0.92014447962503       -0.66741130166206       -0.40822436315549
N            0.38860556826222       -1.92429116134002       -0.26517189104055
C            1.06649255054283       -3.08997312424781       -0.63083959130805
C            2.42603369045490       -3.32187720649686       -0.74088109421897
C            2.83582259557829       -4.58026920486644       -1.14890118238715
C            1.91626641765998       -5.58088704957499       -1.44721723180531
C            0.55730384925359       -5.34701334543868       -1.35284832118876
C            0.12579476731596       -4.09294896590720       -0.94169475905457
C           -1.18212061427221       -3.52572534563769       -0.73420415925034
C           -2.45673220506806       -4.06392534332145       -0.91491516321025
C           -3.55596864958309       -3.28874745012977       -0.62517944092850
C           -3.37131069887341       -2.02231535763271       -0.07051047637351
C           -4.31348045143515       -1.06258899077257        0.42951060156026
C           -5.70263108506800       -1.03332814405234        0.47197471063924
C           -6.32269972755434        0.03438263848882        1.08798452509587
C           -5.57342065266469        1.05035021591828        1.67783195182248
C           -4.19145187586189        1.04049710604337        1.64867243550799
C           -3.56099187971559       -0.01062127916929        0.99714096640347
N           -2.21004474008052       -0.27452375233489        0.83441478690338
C           -1.18518875055645        0.41308261401176        1.49938815941171
C           -1.11111707520632        1.80263627351827        1.44737145467438
C           -0.09422881098378        2.46618157083567        2.10781275994808
C            0.85684306914601        1.75776455531608        2.82459095596500
C            0.77809152911177        0.37677061063240        2.88924877574757
C           -0.24127489726076       -0.29511036775925        2.23972171597772
C           -2.08291147772587       -1.48444951420419        0.17402161544398
C           -0.98135350032429       -2.20757217514069       -0.27466090917861
N            2.19480042766621       -0.48755714653247       -0.08153562634195
C            4.62097912200496        2.25235864930294       -0.17704953392166
C            5.92987022562543        2.50878392144594        0.18418391599181
H            7.69355511900323        1.74354580426608        1.12786101499760
H            6.67467724757310       -0.43735249349645        1.66717294293823
H            4.32831621858778       -0.89318292396910        1.02504582813930
H            1.33891253361536        4.02856325638084       -1.40844429919224
H           -0.09830535169335        5.84364954484563       -2.29474201444010
H           -2.41666568886645        5.34924777959668       -2.97612319515933
H           -3.29744230014248        3.05148980093228       -2.78472022431230
H           -1.84749083262797        1.24705690018822       -1.90396927074927
H            3.13653039350825       -2.54329822870716       -0.51633236565706
H            3.89224525341160       -4.78709282975609       -1.23461399670914
H            2.27240494138432       -6.55134538931270       -1.75885239102809
H           -0.15694353101869       -6.12010093913648       -1.59113499914679
H           -2.56726902649283       -5.07061714693125       -1.28559090953794
H           -4.55513949768129       -3.66151684514700       -0.78725845845936
H           -6.27878417238432       -1.83394652334404        0.03390426551022
H           -7.40067909186391        0.08050194172036        1.12758683731329
H           -6.08254074551540        1.86333433886512        2.17407073851966
H           -3.62851044382790        1.82265042288736        2.13339394683066
H           -1.82330353918662        2.35389815657965        0.85312601787271
H           -0.03628893945645        3.54305345635516        2.04953556633163
H            1.65774549248235        2.27901655638291        3.32709402445843
H            1.51312783098474       -0.18284149450535        3.44919503442242
H           -0.30890060699946       -1.37193786011473        2.30316625892289
H            4.02990368358966        2.99138619711503       -0.69506956344826
H            6.37528387942325        3.46407189627458       -0.05085838636393

          :  Hamiltonian                  GFN2-xTB          :
         :: gradient norm              0.000103848402 Eh/a0 ::
         :: HOMO-LUMO gap              1.918368197337 eV    ::
         :: SCC energy              -113.050452794041 Eh    ::
         :: -> dispersion             -0.109113074271 Eh    ::
         :: -> Gsolv                  -0.046280910064 Eh    ::
         :: repulsion energy           2.029326129122 Eh    ::

    * Orbital Energies and Occupations

         #    Occupation            Energy/Eh            Energy/eV
      -------------------------------------------------------------
         1        2.0000           -0.6981541             -18.9977
       ...           ...                  ...                  ...
        91        2.0000           -0.4223926             -11.4939
        92        2.0000           -0.4209081             -11.4535
        93        2.0000           -0.4207039             -11.4479
        94        2.0000           -0.4200049             -11.4289
        95        2.0000           -0.4170364             -11.3481
        96        2.0000           -0.4159660             -11.3190
        97        2.0000           -0.4139622             -11.2645
        98        2.0000           -0.4115287             -11.1983
        99        2.0000           -0.3943205             -10.7300
       100        2.0000           -0.3866757             -10.5220
       101        2.0000           -0.3859881             -10.5033
       102        2.0000           -0.3791154             -10.3163
       103        2.0000           -0.3674291              -9.9983 (HOMO)
       104                         -0.2969304              -8.0799 (LUMO)
       105                         -0.2840385              -7.7291
       106                         -0.2631031              -7.1594
       107                         -0.2432805              -6.6200
       108                         -0.2422135              -6.5910
       109                         -0.2379712              -6.4755
       110                         -0.2375385              -6.4638
       111                         -0.2349622              -6.3936
       112                         -0.2329428              -6.3387
       113                         -0.2290672              -6.2332
       114                         -0.2106161              -5.7312
       ...                                ...                  ...
       201                          0.7477625              20.3477
      -------------------------------------------------------------
                  HL-Gap            0.0704987 Eh            1.9184 eV

     #   Z          covCN         q      C6AA      α(0)
     1   6 C        2.920    -0.023    28.578     8.766
     2   6 C        2.918    -0.028    28.698     8.785
     3   6 C        2.924    -0.026    28.657     8.779
     4   6 C        2.983    -0.009    28.231     8.716
     5   6 C        2.993     0.221    23.347     7.926
     6   7 N        1.843    -0.334    29.522     8.052
     7   6 C        2.992     0.222    23.335     7.924
     8   6 C        2.984    -0.009    28.225     8.715
     9   6 C        2.923    -0.026    28.652     8.778
    10   6 C        2.918    -0.028    28.690     8.784
    11   6 C        2.920    -0.023    28.571     8.765
    12   6 C        2.918    -0.028    28.693     8.784
    13   6 C        2.924    -0.025    28.631     8.775
    14   7 N        1.849    -0.331    29.438     8.041
    15   6 C        2.941     0.298    21.961     7.686
    16   7 N        2.806    -0.070    22.585     7.058
    17   6 C        3.059     0.055    26.704     8.474
    18   6 C        2.910    -0.051    29.275     8.872
    19   6 C        2.924    -0.035    28.870     8.811
    20   6 C        2.920    -0.039    28.969     8.826
    21   6 C        2.913    -0.036    28.893     8.814
    22   6 C        3.065    -0.015    28.330     8.728
    23   6 C        3.061    -0.023    28.524     8.758
    24   6 C        2.914    -0.047    29.169     8.856
    25   6 C        2.914    -0.043    29.074     8.842
    26   6 C        3.068    -0.024    28.532     8.759
    27   6 C        3.067    -0.017    28.359     8.732
    28   6 C        2.913    -0.035    28.864     8.810
    29   6 C        2.920    -0.041    29.013     8.833
    30   6 C        2.924    -0.034    28.851     8.808
    31   6 C        2.910    -0.052    29.299     8.876
    32   6 C        3.070     0.048    26.848     8.496
    33   7 N        2.798    -0.051    22.227     7.002
    34   6 C        2.913     0.076    26.301     8.410
    35   6 C        2.922    -0.045    29.121     8.850
    36   6 C        2.920    -0.031    28.777     8.797
    37   6 C        2.919    -0.037    28.920     8.819
    38   6 C        2.919    -0.031    28.785     8.798
    39   6 C        2.923    -0.045    29.115     8.849
    40   6 C        3.058     0.046    26.921     8.509
    41   6 C        3.049     0.047    26.900     8.506
    42   7 N        1.846    -0.338    29.625     8.067
    43   6 C        2.924    -0.026    28.656     8.779
    44   6 C        2.918    -0.028    28.693     8.784
    45   1 H        0.926     0.052     2.301     2.372
    46   1 H        0.926     0.048     2.348     2.396
    47   1 H        0.926     0.047     2.361     2.403
    48   1 H        0.926     0.049     2.327     2.385
    49   1 H        0.926     0.049     2.333     2.389
    50   1 H        0.926     0.052     2.300     2.372
    51   1 H        0.926     0.047     2.362     2.403
    52   1 H        0.926     0.046     2.371     2.408
    53   1 H        0.926     0.044     2.395     2.420
    54   1 H        0.926     0.040     2.449     2.447
    55   1 H        0.926     0.042     2.423     2.434
    56   1 H        0.926     0.043     2.411     2.428
    57   1 H        0.926     0.042     2.424     2.435
    58   1 H        0.926     0.044     2.399     2.422
    59   1 H        0.926     0.039     2.465     2.455
    60   1 H        0.926     0.037     2.482     2.464
    61   1 H        0.926     0.038     2.480     2.462
    62   1 H        0.926     0.031     2.572     2.508
    63   1 H        0.926     0.041     2.430     2.438
    64   1 H        0.926     0.040     2.442     2.444
    65   1 H        0.926     0.038     2.471     2.458
    66   1 H        0.926     0.037     2.492     2.468
    67   1 H        0.926     0.028     2.614     2.528
    68   1 H        0.926     0.049     2.329     2.387
    69   1 H        0.926     0.049     2.337     2.390

molecular dipole:
                 x           y           z       tot (Debye)
 q only:        0.143       0.701       0.108
   full:        0.299       0.763       0.148       2.117

 projected vibrational frequencies (cm⁻¹)
eigval :       -0.00    -0.00    -0.00    -0.00     0.00     0.00
eigval :       15.03    17.51    31.26    40.24    44.48    45.22
eigval :       46.81    58.86    67.36    80.32    82.84    89.36
eigval :      109.21   118.70   128.75   137.38   148.61   177.01
eigval :      185.60   201.64   209.74   219.73   235.92   243.72
eigval :      258.30   269.07   288.03   296.07   322.47   330.92
eigval :      347.80   366.87   367.29   380.41   387.00   392.87
eigval :      404.51   411.50   424.95   436.56   445.66   474.09
eigval :      477.89   499.15   511.10   534.05   541.40   553.38
eigval :      558.80   583.43   586.75   587.79   590.88   602.48
eigval :      609.79   615.06   628.15   628.87   632.75   644.59
eigval :      653.79   668.20   673.60   676.62   679.07   689.60
eigval :      699.52   709.74   743.20   755.22   764.36   775.94
eigval :      776.16   779.04   789.95   793.38   815.84   823.32
eigval :      847.61   869.06   873.94   876.94   881.48   884.19
eigval :      888.71   901.38   906.47   906.65   912.45   912.75
eigval :      913.95   920.16   922.69   925.93   929.95   931.18
eigval :      932.29   934.35   936.76   939.15   951.38   965.38
eigval :      990.27   996.12  1015.33  1050.94  1066.76  1072.73
eigval :     1073.57  1075.67  1081.16  1091.33  1097.89  1107.36
eigval :     1110.57  1119.13  1136.88  1148.58  1154.63  1167.51
eigval :     1171.63  1175.05  1177.36  1178.21  1178.46  1181.93
eigval :     1184.90  1196.78  1203.67  1213.93  1225.35  1231.01
eigval :     1237.94  1265.48  1267.22  1270.04  1274.98  1283.86
eigval :     1299.80  1308.21  1316.92  1326.55  1327.09  1349.39
eigval :     1357.01  1357.96  1364.41  1375.90  1387.24  1392.33
eigval :     1414.44  1423.62  1424.78  1430.22  1431.32  1435.28
eigval :     1464.14  1467.32  1474.87  1477.90  1478.76  1482.90
eigval :     1520.09  1521.88  1567.64  1579.09  1581.51  1583.69
eigval :     1584.59  1588.65  1592.28  1592.91  1594.12  1600.02
eigval :     1601.62  1608.63  3073.55  3077.48  3078.48  3078.56
eigval :     3080.17  3080.28  3082.48  3082.65  3084.08  3084.36
eigval :     3087.03  3091.93  3092.08  3092.49  3093.52  3094.48
eigval :     3097.06  3099.01  3099.59  3100.15  3102.06  3103.66
eigval :     3104.46  3105.01  3114.11

   temp. (K)  partition function   enthalpy   heat capacity  entropy
                                   cal/mol     cal/K/mol   cal/K/mol   J/K/mol
 298.15  VIB  0.139E+15            19258.439    124.537    118.681
         ROT  0.418E+08              888.752      2.981     37.852
         INT  0.580E+22            20147.191    127.518    156.533
         TR   0.129E+29             1481.254      4.968     44.852
         TOT                       21628.4450   132.4863   201.3854   842.5965

       T/K    H(0)-H(T)+PV         H(T)/Eh          T*S/Eh         G(T)/Eh
   ------------------------------------------------------------------------
    298.15    0.344671E-01    0.556840E+00    0.956847E-01    0.461156E+00
   ------------------------------------------------------------------------

         :::::::::::::::::::::::::::::::::::::::::::::::::::::
         ::                  THERMODYNAMIC                  ::
         :::::::::::::::::::::::::::::::::::::::::::::::::::::
         :: total free energy        -110.559970973595 Eh   ::
         ::.................................................::
         :: total energy             -111.021126662207 Eh   ::
         :: zero point energy           0.522373262355 Eh   ::
         :: G(RRHO) w/o ZPVE           -0.061217573743 Eh   ::
         :: G(RRHO) contrib.            0.461155688612 Eh   ::
         :::::::::::::::::::::::::::::::::::::::::::::::::::::

           -------------------------------------------------
          | TOTAL ENERGY             -111.021126662207 Eh   |
          | TOTAL ENTHALPY           -110.464286278867 Eh   |
          | TOTAL FREE ENERGY        -110.559970973595 Eh   |
          | GRADIENT NORM               0.000103828072 Eh/α |
          | HOMO-LUMO GAP               1.918366867147 eV   |
           -------------------------------------------------

 * finished run on 2025/08/24 at 08:47:10.919
