   * xtb version 6.7.1 (edcfbbe) compiled by 'albert@albert-system' on 2024-07-22

   ID    Z sym.   atoms
    1    6 C      1-5, 7-13, 15, 17-32, 34-41, 43, 44
    2    7 N      6, 14, 16, 33, 42
    3    1 H      45-69

          program call               : xtb data2507/toluene/DIC-TRZ/DIC-TRZ_toluene_T1_crest.xyz --gfn 2 --uhf 2 --gbsa toluene --ohess vtight --parallel 40 --molden --ceasefiles --namespace data2507/toluene/DIC-TRZ/DIC-TRZ_toluene_T1_finalOpt
      * Solvation model:               GBSA
        Solvent                        toluene
        Solvent mass                       9.2140E+01 g/mol
          :  Hamiltonian                  GFN2-xTB          :
 * total energy  :  -110.9380398 Eh     change       -0.5063893E-07 Eh
 * total energy  :  -110.9382107 Eh     change       -0.1709057E-03 Eh
 * total energy  :  -110.9383373 Eh     change       -0.1265886E-03 Eh
 * total energy  :  -110.9383684 Eh     change       -0.3103918E-04 Eh
 * total energy  :  -110.9384060 Eh     change       -0.3760639E-04 Eh
 * total energy  :  -110.9384353 Eh     change       -0.2936429E-04 Eh
 * total energy  :  -110.9384606 Eh     change       -0.2525999E-04 Eh
 * total energy  :  -110.9384791 Eh     change       -0.1849556E-04 Eh
 * total energy  :  -110.9384957 Eh     change       -0.1662478E-04 Eh
 * total energy  :  -110.9385029 Eh     change       -0.7203509E-05 Eh
 * total energy  :  -110.9385403 Eh     change       -0.1636122E-06 Eh
 * total energy  :  -110.9385404 Eh     change       -0.1096876E-06 Eh
 * total energy  :  -110.9385405 Eh     change       -0.1226518E-06 Eh
 * total energy  :  -110.9385407 Eh     change       -0.1760407E-06 Eh
 * total energy  :  -110.9385409 Eh     change       -0.2528995E-06 Eh
 * total energy  :  -110.9385412 Eh     change       -0.2704046E-06 Eh
 * total energy  :  -110.9385414 Eh     change       -0.2052265E-06 Eh
 * total energy  :  -110.9385415 Eh     change       -0.1324168E-06 Eh
 * total energy  :  -110.9385416 Eh     change       -0.9133400E-07 Eh
   *** GEOMETRY OPTIMIZATION CONVERGED AFTER 41 ITERATIONS ***

 final structure:
================
69
 xtb: 6.7.1 (edcfbbe)
C           -0.59983789261630       -4.75074032061303       -3.03785487948844
C            0.72042650952896       -4.76410061403669       -2.60265934324458
C            1.26664500785878       -3.65577391910317       -1.99480441180400
C            0.49773616839615       -2.49623824854995       -1.80671945088770
C            1.05223442417329       -1.34103657395591       -1.15978006434788
N            2.30795031782178       -1.33973592445302       -0.75629587737119
C            2.81067621514398       -0.27571036419434       -0.15012051023859
C            4.17113289337920       -0.27054901521028        0.29753368669970
C            5.00688161196834       -1.37613792886288        0.06837637065878
C            6.31306334529256       -1.36718812491090        0.50286430046078
C            6.82418531111140       -0.26281877635183        1.17524359649511
C            6.00774740531687        0.83625084604704        1.40994438927603
C            4.69919133054758        0.83802086641874        0.97961966144819
N            2.02930288672633        0.83596108106385        0.08305961107992
C            0.79390654324489        0.76097497060960       -0.34571478676320
N           -0.02220796773607        1.88544513985471       -0.17863047367340
C            0.37857124166669        3.15956691609477       -0.55971481818518
C            1.65673483265319        3.64919087830231       -0.77200037686879
C            1.78252528922652        4.97712976159830       -1.14432316935706
C            0.66542282933591        5.78922154986931       -1.31637668920890
C           -0.61409804574335        5.29671442961112       -1.12271317002559
C           -0.76170722887041        3.97093544733022       -0.74254998592031
C           -1.90693186373653        3.14036817877921       -0.46860635365514
C           -3.26965344201270        3.39585891688646       -0.55038375314453
C           -4.16857361743366        2.38228124321635       -0.25757990965504
C           -3.69174039477696        1.15704201398202        0.18700410535657
C           -4.37750779893220       -0.02303396068082        0.64275643847030
C           -5.71862262804346       -0.36625038889650        0.73168142685645
C           -6.05008095540923       -1.59559001925239        1.27477856755110
C           -5.06566211674041       -2.46063221392371        1.74383467455766
C           -3.72222819627516       -2.13537228286263        1.66907107150889
C           -3.38262664847185       -0.92008079806068        1.09112144160512
N           -2.13478140912761       -0.34473149673166        0.90742549935087
C           -0.94622108444699       -0.86045940425251        1.44419325113204
C           -0.15502722809025       -0.05196901474822        2.26137325993354
C            0.99839134680038       -0.55997667097621        2.82501843614502
C            1.37370590901244       -1.87322946172066        2.58439456192887
C            0.57993321421663       -2.68154260587227        1.78508642693156
C           -0.57922696580210       -2.18604163978377        1.21945625741964
C           -2.30113117611381        0.89415704445850        0.34052847022113
C           -1.39689016252339        1.86864547298943       -0.09400131069376
N            0.23244955344395       -0.24469952380815       -0.97980217132021
C           -0.83309692480107       -2.49262589029358       -2.25583692484440
C           -1.36963791723676       -3.60793861995882       -2.86102911984812
H           -1.02331341351259       -5.62355397068737       -3.51196905522895
H            1.32249943136713       -5.65100563398473       -2.74213249113321
H            2.29013468170275       -3.65675711875170       -1.65077545749148
H            4.59979696829661       -2.22837441103584       -0.45511501652011
H            6.94587642766710       -2.22423243165033        0.31947506668815
H            7.84981783981845       -0.26004107355843        1.51291060868556
H            6.40181604376996        1.69599325492073        1.93366598491778
H            4.05546876367635        1.68554610088985        1.16336033480701
H            2.51656466077723        3.00968338431494       -0.64632803064550
H            2.76774551767328        5.38663905517235       -1.30882191172614
H            0.80207663127245        6.81865136325448       -1.61085597951230
H           -1.47759446941587        5.92808778355044       -1.26238304720323
H           -3.61763988968972        4.37021750820530       -0.85363411471142
H           -5.23033182275351        2.54709611022796       -0.34645020636040
H           -6.48314100369805        0.31244166534866        0.38769974536424
H           -7.08708360492459       -1.88536088667821        1.34832572527136
H           -5.35377616056173       -3.40423532255522        2.18148926247935
H           -2.97046412495524       -2.80338076159046        2.05825889786473
H           -0.45571221448718        0.96794574895548        2.45600813186061
H            1.61002613020484        0.07182912746807        3.45149845970697
H            2.28377074420388       -2.26239315683518        3.01465493361335
H            0.87242286278814       -3.70196367772498        1.58821475858498
H           -1.17394168770412       -2.80282460582779        0.56364597242706
H           -1.42085140957107       -1.59727743963709       -2.11757997310575
H           -2.39611749116176       -3.59279367182729       -3.19990038817658

          :  Hamiltonian                  GFN2-xTB          :
         :: gradient norm              0.000026922748 Eh/a0 ::
         :: HOMO-LUMO gap              0.267367756770 eV    ::
         :: SCC energy              -112.957712771438 Eh    ::
         :: -> dispersion             -0.109464157895 Eh    ::
         :: -> Gsolv                  -0.047397737738 Eh    ::
         :: repulsion energy           2.019171138726 Eh    ::

    * Orbital Energies and Occupations

         #    Occupation            Energy/Eh            Energy/eV
      -------------------------------------------------------------
         1        2.0000           -0.7040856             -19.1591
       ...           ...                  ...                  ...
        92        2.0000           -0.4232832             -11.5181
        93        2.0000           -0.4225094             -11.4971
        94        2.0000           -0.4206686             -11.4470
        95        2.0000           -0.4056312             -11.0378
        96        2.0000           -0.4045881             -11.0094
        97        2.0000           -0.4034088             -10.9773
        98        2.0000           -0.4000344             -10.8855
        99        2.0000           -0.3966861             -10.7944
       100        2.0000           -0.3928251             -10.6893
       101        1.9847           -0.3811463             -10.3715
       102        1.8124           -0.3785828             -10.3018
       103        1.2029           -0.3758903             -10.2285
       104        0.9944           -0.2875221              -7.8239 (HOMO)
       105        0.0056           -0.2776967              -7.5565 (LUMO)
       106        0.0000           -0.2682964              -7.3007
       107                         -0.2509115              -6.8277
       108                         -0.2470010              -6.7212
       109                         -0.2440099              -6.6398
       110                         -0.2405196              -6.5449
       111                         -0.2303496              -6.2681
       112                         -0.2214454              -6.0258
       113                         -0.2202908              -5.9944
       114                         -0.2150696              -5.8523
       115                         -0.2016707              -5.4877
       ...                                ...                  ...
       201                          0.7367793              20.0488
      -------------------------------------------------------------
                  HL-Gap            0.0098254 Eh            0.2674 eV

     #   Z          covCN         q      C6AA      α(0)
     1   6 C        2.919    -0.040    28.989     8.829
     2   6 C        2.916    -0.033    28.823     8.804
     3   6 C        2.922    -0.038    28.948     8.823
     4   6 C        2.979    -0.013    28.329     8.731
     5   6 C        2.948     0.183    24.096     8.051
     6   7 N        1.844    -0.280    28.110     7.858
     7   6 C        2.943     0.180    24.152     8.060
     8   6 C        2.978    -0.014    28.363     8.736
     9   6 C        2.923    -0.039    28.960     8.825
    10   6 C        2.916    -0.033    28.833     8.805
    11   6 C        2.919    -0.040    29.003     8.831
    12   6 C        2.916    -0.034    28.842     8.807
    13   6 C        2.923    -0.039    28.969     8.826
    14   7 N        1.843    -0.336    29.570     8.059
    15   6 C        2.891     0.292    22.062     7.701
    16   7 N        2.812    -0.048    22.173     6.994
    17   6 C        3.074     0.057    26.647     8.464
    18   6 C        2.910    -0.042    29.048     8.838
    19   6 C        2.924    -0.031    28.767     8.796
    20   6 C        2.920    -0.033    28.818     8.803
    21   6 C        2.912    -0.031    28.769     8.795
    22   6 C        3.063    -0.013    28.269     8.719
    23   6 C        3.064    -0.017    28.372     8.735
    24   6 C        2.913    -0.034    28.840     8.806
    25   6 C        2.912    -0.033    28.822     8.803
    26   6 C        3.066    -0.015    28.322     8.727
    27   6 C        3.064    -0.010    28.199     8.708
    28   6 C        2.912    -0.028    28.703     8.785
    29   6 C        2.920    -0.031    28.776     8.797
    30   6 C        2.923    -0.029    28.724     8.789
    31   6 C        2.910    -0.042    29.040     8.836
    32   6 C        3.073     0.048    26.854     8.497
    33   7 N        2.801    -0.015    21.540     6.893
    34   6 C        2.915     0.071    26.417     8.428
    35   6 C        2.922    -0.039    28.962     8.825
    36   6 C        2.919    -0.025    28.632     8.775
    37   6 C        2.919    -0.029    28.728     8.789
    38   6 C        2.920    -0.025    28.633     8.775
    39   6 C        2.920    -0.036    28.904     8.816
    40   6 C        3.055     0.047    26.900     8.506
    41   6 C        3.054     0.055    26.724     8.478
    42   7 N        1.847    -0.349    29.926     8.108
    43   6 C        2.923    -0.038    28.946     8.823
    44   6 C        2.916    -0.034    28.840     8.806
    45   1 H        0.926     0.032     2.561     2.503
    46   1 H        0.926     0.031     2.577     2.510
    47   1 H        0.926     0.029     2.606     2.525
    48   1 H        0.926     0.029     2.602     2.523
    49   1 H        0.926     0.030     2.587     2.515
    50   1 H        0.926     0.031     2.574     2.509
    51   1 H        0.926     0.030     2.585     2.514
    52   1 H        0.926     0.031     2.574     2.509
    53   1 H        0.926     0.046     2.367     2.406
    54   1 H        0.926     0.047     2.360     2.402
    55   1 H        0.926     0.051     2.301     2.372
    56   1 H        0.926     0.053     2.278     2.360
    57   1 H        0.926     0.060     2.200     2.320
    58   1 H        0.926     0.062     2.177     2.307
    59   1 H        0.926     0.053     2.280     2.361
    60   1 H        0.926     0.052     2.299     2.371
    61   1 H        0.926     0.050     2.317     2.380
    62   1 H        0.926     0.044     2.401     2.423
    63   1 H        0.926     0.033     2.549     2.497
    64   1 H        0.926     0.044     2.396     2.420
    65   1 H        0.926     0.043     2.406     2.425
    66   1 H        0.926     0.045     2.379     2.412
    67   1 H        0.926     0.049     2.338     2.391
    68   1 H        0.926     0.031     2.576     2.510
    69   1 H        0.926     0.030     2.579     2.512

molecular dipole:
                 x           y           z       tot (Debye)
 q only:       -2.881       1.091       0.930
   full:       -2.583       0.999       0.901       7.403

 projected vibrational frequencies (cm⁻¹)
eigval :       -0.00    -0.00    -0.00     0.00     0.00     0.00
eigval :       15.53    18.65    30.46    39.22    39.86    41.67
eigval :       53.56    56.81    71.72    80.13    88.54    91.00
eigval :      102.40   119.04   124.72   132.92   145.84   177.25
eigval :      187.91   199.76   203.42   224.12   229.86   239.52
eigval :      256.83   265.77   283.90   292.77   316.08   329.94
eigval :      335.61   367.37   370.52   371.56   386.78   390.06
eigval :      391.82   400.35   405.29   436.82   442.82   466.91
eigval :      471.43   483.38   501.53   522.73   540.79   549.11
eigval :      551.42   557.40   569.30   579.57   584.26   585.97
eigval :      588.82   593.89   599.60   616.40   625.00   633.08
eigval :      645.59   650.81   653.85   661.16   676.73   680.38
eigval :      687.62   697.57   710.34   731.31   743.05   747.67
eigval :      760.90   771.71   776.63   790.79   803.85   814.52
eigval :      819.95   856.82   859.53   865.26   869.95   871.81
eigval :      877.30   879.85   889.88   900.24   907.22   907.45
eigval :      911.86   913.97   915.51   917.17   918.06   920.42
eigval :      921.18   924.41   929.02   931.27   934.98   956.41
eigval :      964.56   976.16   992.57  1002.58  1062.58  1066.41
eigval :     1068.97  1069.78  1075.59  1076.52  1078.09  1094.92
eigval :     1103.38  1110.73  1117.47  1118.54  1126.15  1138.83
eigval :     1141.80  1167.17  1173.94  1175.22  1175.50  1177.32
eigval :     1180.60  1185.00  1193.89  1196.76  1208.19  1218.07
eigval :     1239.51  1260.73  1264.43  1268.26  1273.42  1279.14
eigval :     1283.95  1292.31  1298.51  1319.81  1320.43  1335.23
eigval :     1335.53  1336.55  1344.58  1355.85  1358.95  1371.74
eigval :     1391.98  1394.87  1411.06  1414.06  1426.95  1429.34
eigval :     1432.86  1434.88  1440.24  1460.05  1462.73  1465.68
eigval :     1471.51  1478.84  1542.93  1543.23  1552.63  1558.71
eigval :     1563.70  1573.23  1576.65  1578.88  1580.09  1583.82
eigval :     1586.96  1597.23  3065.00  3065.40  3065.90  3066.36
eigval :     3073.54  3081.77  3082.99  3084.81  3085.00  3086.07
eigval :     3086.53  3088.37  3089.44  3090.19  3091.77  3092.15
eigval :     3094.35  3098.54  3099.11  3101.45  3102.67  3103.71
eigval :     3104.80  3106.85  3111.88

   temp. (K)  partition function   enthalpy   heat capacity  entropy
                                   cal/mol     cal/K/mol   cal/K/mol   J/K/mol
 298.15  VIB  0.186E+15            19561.751    126.676    120.180
         ROT  0.419E+08              888.752      2.981     37.860
         INT  0.780E+22            20450.503    129.657    158.040
         TR   0.129E+29             1481.254      4.968     44.852
         TOT                       21931.7568   134.6249   202.8919   848.8996

       T/K    H(0)-H(T)+PV         H(T)/Eh          T*S/Eh         G(T)/Eh
   ------------------------------------------------------------------------
    298.15    0.349505E-01    0.552392E+00    0.964005E-01    0.455992E+00
   ------------------------------------------------------------------------

         :::::::::::::::::::::::::::::::::::::::::::::::::::::
         ::                  THERMODYNAMIC                  ::
         :::::::::::::::::::::::::::::::::::::::::::::::::::::
         :: total free energy        -110.482549631694 Eh   ::
         ::.................................................::
         :: total energy             -110.938541631589 Eh   ::
         :: zero point energy           0.517442001178 Eh   ::
         :: G(RRHO) w/o ZPVE           -0.061450001283 Eh   ::
         :: G(RRHO) contrib.            0.455991999895 Eh   ::
         :::::::::::::::::::::::::::::::::::::::::::::::::::::

           -------------------------------------------------
          | TOTAL ENERGY             -110.938541631589 Eh   |
          | TOTAL ENTHALPY           -110.386149151253 Eh   |
          | TOTAL FREE ENERGY        -110.482549631694 Eh   |
          | GRADIENT NORM               0.000027438631 Eh/α |
          | HOMO-LUMO GAP               0.267363709134 eV   |
           -------------------------------------------------

 * finished run on 2025/08/24 at 08:54:48.400
