   * xtb version 6.7.1 (edcfbbe) compiled by 'albert@albert-system' on 2024-07-22

   ID    Z sym.   atoms
    1    6 C      1-5, 7-13, 15, 17-32, 34-41, 43, 44
    2    7 N      6, 14, 16, 33, 42
    3    1 H      45-69

          program call               : xtb data2507/toluene/DIC-TRZ/DIC-TRZ_toluene_S0_finalOpt.xtbopt.xyz --gfn 2 --uhf 2 --gbsa toluene --ohess vtight --parallel 40 --molden --ceasefiles --namespace data2507/toluene/DIC-TRZ/DIC-TRZ_toluene_T1_preOpt
      * Solvation model:               GBSA
        Solvent                        toluene
        Solvent mass                       9.2140E+01 g/mol
          :  Hamiltonian                  GFN2-xTB          :
 * total energy  :  -110.9323777 Eh     change       -0.6912182E-07 Eh
 * total energy  :  -110.9353323 Eh     change       -0.2954513E-02 Eh
 * total energy  :  -110.9375212 Eh     change       -0.2188962E-02 Eh
 * total energy  :  -110.9377710 Eh     change       -0.2497483E-03 Eh
 * total energy  :  -110.9380239 Eh     change       -0.2529497E-03 Eh
 * total energy  :  -110.9380635 Eh     change       -0.3957883E-04 Eh
 * total energy  :  -110.9381356 Eh     change       -0.7214892E-04 Eh
 * total energy  :  -110.9381722 Eh     change       -0.3653377E-04 Eh
 * total energy  :  -110.9382120 Eh     change       -0.3982218E-04 Eh
 * total energy  :  -110.9382476 Eh     change       -0.3556281E-04 Eh
 * total energy  :  -110.9385382 Eh     change       -0.3567283E-06 Eh
 * total energy  :  -110.9385385 Eh     change       -0.3042491E-06 Eh
 * total energy  :  -110.9385388 Eh     change       -0.2992425E-06 Eh
 * total energy  :  -110.9385391 Eh     change       -0.3289020E-06 Eh
 * total energy  :  -110.9385395 Eh     change       -0.4050712E-06 Eh
 * total energy  :  -110.9385395 Eh     change        0.3840910E-09 Eh
 * total energy  :  -110.9385395 Eh     change        0.2475417E-08 Eh
 * total energy  :  -110.9385395 Eh     change        0.1187416E-08 Eh
 * total energy  :  -110.9385395 Eh     change       -0.1082199E-08 Eh
   *** GEOMETRY OPTIMIZATION CONVERGED AFTER 71 ITERATIONS ***

 final structure:
================
69
 xtb: 6.7.1 (edcfbbe)
C            6.82240885971709        0.52120016274801        1.17287367102921
C            6.26498100913924        1.60910198049270        0.51050355590647
C            4.95537831171805        1.57208494339168        0.08807204284442
C            4.16285409905753        0.43541533037253        0.31891064184709
C            2.80054467873718        0.39182318046545       -0.12088622250883
N            2.25343616133782        1.44162397988664       -0.71356352523121
C            0.99889837243640        1.39513273090094       -1.11785440374000
C            0.39541953744905        2.53533823304905       -1.74748422828349
C            1.11149974180789        3.73187403816776       -1.91049692136302
C            0.51789137653575        4.82520987703954       -2.50083757596486
C           -0.79840812476374        4.75970088508527       -2.94315588168236
C           -1.51613358098220        3.58000847695283       -2.79119091147086
C           -0.93186444766986        2.47936369493583       -2.20362076266441
N            0.22743131819272        0.26179622945755       -0.95621251380463
C            0.82899805402101       -0.72629616288676       -0.33075320469395
N            0.06134768805112       -1.88606795911503       -0.18035055893094
C            0.52290073991682       -3.14058366825706       -0.55886187165627
C            1.82454945439694       -3.57596300160476       -0.74449979923950
C            2.01359313208387       -4.89635013788434       -1.11700763635278
C            0.93524594132560       -5.75322472893864       -1.31645535002407
C           -0.36762887861263       -5.31446879705108       -1.15118876462543
C           -0.57844958251564       -3.99748375543228       -0.77019796083240
C           -1.76298739811976       -3.21687319497735       -0.51686234986488
C           -3.11194862938587       -3.52787362857307       -0.62974580400909
C           -4.05806407275653       -2.55442606377982       -0.34987831063836
C           -3.64205450103770       -1.31485010288148        0.11557951601655
C           -4.38593380013134       -0.17021966671631        0.57038388081723
C           -5.74179036852987        0.11597971915249        0.63314085935810
C           -6.13645565615884        1.32140380098558        1.18739274909537
C           -5.19953028389886        2.21826708979402        1.69251138484298
C           -3.84232916691832        1.95045223601722        1.64286140350975
C           -3.43925732161645        0.76013343159064        1.05382206675434
N           -2.16480263113053        0.24002214074924        0.88923587728498
C           -1.00843680294877        0.79931246804643        1.45172226567733
C           -0.69761512328872        2.14328569341835        1.25245584817458
C            0.43243776964680        2.67985182835120        1.83918278108260
C            1.25252029451767        1.89425908317803        2.63446838762294
C            0.93216493758007        0.56232383469620        2.85073436227709
C           -0.19217198589504        0.01375683700521        2.26669947075193
C           -2.26724492919480       -0.99669956387821        0.30267332636246
C           -1.31454688410650       -1.92808214522761       -0.12276352318806
N            2.06487342302358       -0.75242093809308        0.10238092153598
C            4.73717820811332       -0.65573606273847        0.99163145999353
C            6.04871420282519       -0.60783889369306        1.41013368529728
H            7.85076966936416        0.55440554668125        1.50050311840722
H            6.86442360258986        2.48937415403990        0.32503611995339
H            4.51272636887490        2.41072156087643       -0.42844420818278
H            2.13211246314746        3.77351562601467       -1.56052061160552
H            1.07946924867613        5.74104213077575       -2.62076857416533
H           -1.25917870849464        5.62083066938831       -3.40366334572667
H           -2.53935051277964        3.52443935468488       -3.13568350587654
H           -1.47870972412319        1.55576698538225       -2.08486202080482
H            2.65370998543081       -2.90134561034879       -0.59846930517133
H            3.01842210248332       -5.26424346313801       -1.25983352971952
H            1.12077108439668       -6.77533317583191       -1.60976313587739
H           -1.20080727060278       -5.98056099029067       -1.31224227155984
H           -3.41275418578209       -4.51352698083643       -0.94659464736939
H           -5.10994477076972       -2.76190631576028       -0.46336838390547
H           -6.46916656012408       -0.58811777192545        0.26077121485693
H           -7.18602606517561        1.56693434011567        1.24122361916698
H           -5.53627828922146        3.14176379930257        2.13823133235619
H           -3.12817495630626        2.64300464008694        2.05898538490676
H           -1.31108149195823        2.74402207673403        0.59912414020856
H            0.68178221778530        3.71513813708167        1.66162037944263
H            2.14060213171057        2.31540737701651        3.08027421914530
H            1.56420976354696       -0.05216295550551        3.47419874016785
H           -0.45025115465622       -1.02101339657429        2.44303573206580
H            4.12691305635389       -1.52722478323552        1.17747625933110
H            6.47872635339128       -1.45478987681600        1.92637329805118

          :  Hamiltonian                  GFN2-xTB          :
         :: gradient norm              0.000059990924 Eh/a0 ::
         :: HOMO-LUMO gap              0.264436570395 eV    ::
         :: SCC energy              -112.957721141985 Eh    ::
         :: -> dispersion             -0.109483918462 Eh    ::
         :: -> Gsolv                  -0.047374137575 Eh    ::
         :: repulsion energy           2.019181588454 Eh    ::

    * Orbital Energies and Occupations

         #    Occupation            Energy/Eh            Energy/eV
      -------------------------------------------------------------
         1        2.0000           -0.7039995             -19.1568
       ...           ...                  ...                  ...
        92        2.0000           -0.4232627             -11.5176
        93        2.0000           -0.4224784             -11.4962
        94        2.0000           -0.4206218             -11.4457
        95        2.0000           -0.4056218             -11.0375
        96        2.0000           -0.4045279             -11.0078
        97        2.0000           -0.4033193             -10.9749
        98        2.0000           -0.3999882             -10.8842
        99        2.0000           -0.3966441             -10.7932
       100        2.0000           -0.3927395             -10.6870
       101        1.9849           -0.3811171             -10.3707
       102        1.8119           -0.3785353             -10.3005
       103        1.2031           -0.3758472             -10.2273
       104        0.9940           -0.2874331              -7.8215 (HOMO)
       105        0.0060           -0.2777153              -7.5570 (LUMO)
       106        0.0000           -0.2681228              -7.2960
       107                         -0.2508792              -6.8268
       108                         -0.2469977              -6.7211
       109                         -0.2440087              -6.6398
       110                         -0.2404347              -6.5426
       111                         -0.2303546              -6.2683
       112                         -0.2214385              -6.0256
       113                         -0.2202340              -5.9929
       114                         -0.2149513              -5.8491
       115                         -0.2014268              -5.4811
       ...                                ...                  ...
       201                          0.7367783              20.0488
      -------------------------------------------------------------
                  HL-Gap            0.0097178 Eh            0.2644 eV

     #   Z          covCN         q      C6AA      α(0)
     1   6 C        2.919    -0.040    29.004     8.831
     2   6 C        2.916    -0.033    28.834     8.805
     3   6 C        2.923    -0.039    28.960     8.825
     4   6 C        2.978    -0.014    28.363     8.736
     5   6 C        2.943     0.180    24.155     8.061
     6   7 N        1.844    -0.280    28.109     7.857
     7   6 C        2.948     0.183    24.096     8.051
     8   6 C        2.979    -0.013    28.328     8.730
     9   6 C        2.922    -0.038    28.948     8.823
    10   6 C        2.916    -0.033    28.823     8.804
    11   6 C        2.919    -0.040    28.989     8.829
    12   6 C        2.916    -0.034    28.841     8.806
    13   6 C        2.923    -0.038    28.945     8.823
    14   7 N        1.848    -0.349    29.922     8.107
    15   6 C        2.891     0.292    22.066     7.702
    16   7 N        2.812    -0.049    22.176     6.994
    17   6 C        3.074     0.057    26.650     8.464
    18   6 C        2.910    -0.042    29.051     8.838
    19   6 C        2.924    -0.031    28.767     8.796
    20   6 C        2.920    -0.033    28.819     8.803
    21   6 C        2.912    -0.031    28.771     8.796
    22   6 C        3.063    -0.013    28.268     8.719
    23   6 C        3.064    -0.017    28.373     8.735
    24   6 C        2.913    -0.034    28.841     8.806
    25   6 C        2.912    -0.033    28.822     8.803
    26   6 C        3.066    -0.015    28.322     8.727
    27   6 C        3.064    -0.010    28.199     8.708
    28   6 C        2.912    -0.028    28.703     8.785
    29   6 C        2.920    -0.031    28.776     8.797
    30   6 C        2.923    -0.029    28.725     8.789
    31   6 C        2.910    -0.042    29.040     8.836
    32   6 C        3.073     0.048    26.855     8.497
    33   7 N        2.801    -0.015    21.532     6.892
    34   6 C        2.914     0.071    26.415     8.428
    35   6 C        2.920    -0.036    28.906     8.817
    36   6 C        2.920    -0.025    28.633     8.775
    37   6 C        2.919    -0.029    28.729     8.790
    38   6 C        2.919    -0.025    28.633     8.775
    39   6 C        2.922    -0.039    28.962     8.825
    40   6 C        3.055     0.047    26.897     8.505
    41   6 C        3.054     0.055    26.724     8.478
    42   7 N        1.843    -0.336    29.560     8.058
    43   6 C        2.923    -0.039    28.969     8.826
    44   6 C        2.916    -0.034    28.842     8.807
    45   1 H        0.926     0.031     2.575     2.509
    46   1 H        0.926     0.030     2.588     2.516
    47   1 H        0.926     0.029     2.602     2.522
    48   1 H        0.926     0.029     2.606     2.525
    49   1 H        0.926     0.031     2.577     2.511
    50   1 H        0.926     0.032     2.561     2.503
    51   1 H        0.926     0.030     2.579     2.512
    52   1 H        0.926     0.031     2.577     2.510
    53   1 H        0.926     0.047     2.359     2.402
    54   1 H        0.926     0.047     2.360     2.402
    55   1 H        0.926     0.051     2.302     2.373
    56   1 H        0.926     0.053     2.279     2.361
    57   1 H        0.926     0.060     2.201     2.320
    58   1 H        0.926     0.062     2.178     2.308
    59   1 H        0.926     0.053     2.281     2.362
    60   1 H        0.926     0.052     2.300     2.372
    61   1 H        0.926     0.050     2.318     2.381
    62   1 H        0.926     0.044     2.401     2.423
    63   1 H        0.926     0.049     2.336     2.390
    64   1 H        0.926     0.045     2.378     2.412
    65   1 H        0.926     0.043     2.406     2.425
    66   1 H        0.926     0.044     2.397     2.421
    67   1 H        0.926     0.033     2.548     2.496
    68   1 H        0.926     0.031     2.576     2.510
    69   1 H        0.926     0.030     2.586     2.515

molecular dipole:
                 x           y           z       tot (Debye)
 q only:       -2.844      -1.221       0.886
   full:       -2.551      -1.117       0.862       7.410

 projected vibrational frequencies (cm⁻¹)
eigval :       -0.00    -0.00     0.00     0.00     0.00     0.00
eigval :       13.65    18.54    30.26    37.72    39.51    41.61
eigval :       52.82    56.44    72.50    79.01    88.95    91.14
eigval :      102.03   120.09   124.78   132.59   145.64   177.51
eigval :      187.38   199.25   203.03   223.84   229.76   239.44
eigval :      256.69   265.79   283.88   292.74   316.30   330.48
eigval :      335.60   366.55   370.29   371.40   386.91   390.36
eigval :      392.13   400.42   404.79   436.54   443.02   466.93
eigval :      471.43   483.28   501.61   523.04   540.76   548.72
eigval :      551.46   557.40   569.22   579.32   584.09   585.52
eigval :      588.56   593.76   600.04   616.29   624.68   633.68
eigval :      645.61   651.32   653.88   661.41   676.70   680.46
eigval :      687.33   697.58   710.49   731.24   746.11   747.32
eigval :      760.06   771.53   776.50   790.71   804.07   814.52
eigval :      821.64   858.07   860.42   865.31   871.28   875.53
eigval :      876.79   878.25   892.00   899.86   906.35   906.75
eigval :      911.69   914.77   917.16   917.80   919.10   920.11
eigval :      921.35   923.88   928.48   930.97   935.65   956.38
eigval :      964.50   976.11   992.50  1002.60  1062.87  1066.95
eigval :     1069.26  1070.15  1075.83  1076.64  1077.88  1094.56
eigval :     1103.62  1110.04  1117.05  1118.71  1125.83  1138.07
eigval :     1141.45  1167.09  1173.28  1173.88  1174.96  1177.66
eigval :     1180.62  1185.68  1193.68  1197.08  1208.45  1218.50
eigval :     1239.16  1260.70  1264.42  1269.04  1273.39  1279.16
eigval :     1283.93  1292.44  1298.45  1319.32  1320.16  1335.18
eigval :     1335.39  1336.40  1344.16  1355.81  1358.96  1371.51
eigval :     1392.00  1394.86  1411.03  1414.08  1426.68  1429.22
eigval :     1432.67  1434.69  1440.13  1460.26  1462.66  1465.53
eigval :     1471.28  1478.85  1542.66  1543.25  1552.49  1558.59
eigval :     1563.58  1573.20  1576.71  1578.83  1580.07  1583.76
eigval :     1586.82  1597.17  3063.50  3064.97  3065.32  3065.97
eigval :     3073.99  3081.52  3082.83  3084.77  3084.96  3085.35
eigval :     3086.43  3087.70  3089.48  3090.06  3091.26  3091.89
eigval :     3093.87  3098.40  3098.80  3101.47  3102.78  3103.35
eigval :     3105.19  3106.68  3112.64

   temp. (K)  partition function   enthalpy   heat capacity  entropy
                                   cal/mol     cal/K/mol   cal/K/mol   J/K/mol
 298.15  VIB  0.227E+15            19568.541    126.602    120.321
         ROT  0.419E+08              888.752      2.981     37.858
         INT  0.951E+22            20457.293    129.583    158.179
         TR   0.129E+29             1481.254      4.968     44.852
         TOT                       21938.5473   134.5508   203.0312   849.4825

       T/K    H(0)-H(T)+PV         H(T)/Eh          T*S/Eh         G(T)/Eh
   ------------------------------------------------------------------------
    298.15    0.349613E-01    0.552390E+00    0.964667E-01    0.455923E+00
   ------------------------------------------------------------------------

         :::::::::::::::::::::::::::::::::::::::::::::::::::::
         ::                  THERMODYNAMIC                  ::
         :::::::::::::::::::::::::::::::::::::::::::::::::::::
         :: total free energy        -110.482616121032 Eh   ::
         ::.................................................::
         :: total energy             -110.938539552532 Eh   ::
         :: zero point energy           0.517428802234 Eh   ::
         :: G(RRHO) w/o ZPVE           -0.061505370735 Eh   ::
         :: G(RRHO) contrib.            0.455923431500 Eh   ::
         :::::::::::::::::::::::::::::::::::::::::::::::::::::

           -------------------------------------------------
          | TOTAL ENERGY             -110.938539552532 Eh   |
          | TOTAL ENTHALPY           -110.386149449816 Eh   |
          | TOTAL FREE ENERGY        -110.482616121032 Eh   |
          | GRADIENT NORM               0.000057615159 Eh/α |
          | HOMO-LUMO GAP               0.264434588783 eV   |
           -------------------------------------------------

 * finished run on 2025/08/24 at 08:50:14.285
