   * xtb version 6.7.1 (edcfbbe) compiled by 'albert@albert-system' on 2024-07-22

   ID    Z sym.   atoms
    1    6 C      1-19, 21-24, 26-30, 32, 33, 35-39, 41-48
    2    7 N      20, 25, 31, 34, 40
    3    1 H      49-73

          program call               : xtb data2507/gas/SAF-2NP/SAF-2NP.xyz --gfn 2 --ohess vtight --parallel 40 --molden --ceasefiles --namespace data2507/gas/SAF-2NP/SAF-2NP_gas_S0_preOpt
          :  Hamiltonian                  GFN2-xTB          :
 * total energy  :  -119.4772033 Eh     change       -0.1174271E-08 Eh
 * total energy  :  -119.5005887 Eh     change       -0.2338539E-01 Eh
 * total energy  :  -119.5073338 Eh     change       -0.6745028E-02 Eh
 * total energy  :  -119.5082046 Eh     change       -0.8708119E-03 Eh
 * total energy  :  -119.5085623 Eh     change       -0.3576754E-03 Eh
 * total energy  :  -119.5086536 Eh     change       -0.9136687E-04 Eh
 * total energy  :  -119.5086842 Eh     change       -0.3056544E-04 Eh
 * total energy  :  -119.5087001 Eh     change       -0.1587957E-04 Eh
 * total energy  :  -119.5087040 Eh     change       -0.3944385E-05 Eh
 * total energy  :  -119.5087057 Eh     change       -0.1680272E-05 Eh
 * total energy  :  -119.5087078 Eh     change       -0.5452392E-06 Eh
 * total energy  :  -119.5087084 Eh     change       -0.5668737E-06 Eh
 * total energy  :  -119.5087090 Eh     change       -0.5907018E-06 Eh
 * total energy  :  -119.5087096 Eh     change       -0.6091921E-06 Eh
 * total energy  :  -119.5087102 Eh     change       -0.5866581E-06 Eh
 * total energy  :  -119.5087107 Eh     change       -0.4940090E-06 Eh
 * total energy  :  -119.5087110 Eh     change       -0.3869355E-06 Eh
 * total energy  :  -119.5087113 Eh     change       -0.2953185E-06 Eh
 * total energy  :  -119.5087113 Eh     change       -0.5141260E-08 Eh
   *** GEOMETRY OPTIMIZATION CONVERGED AFTER 22 ITERATIONS ***

 final structure:
================
73
 xtb: 6.7.1 (edcfbbe)
C           -6.13640605126857        3.56160941669575        0.00037305791248
C           -4.75781411257239        3.70957535861420        0.00050543547950
C           -3.92408423930803        2.59923668756792        0.00041484944315
C           -4.49733861597116        1.34725538369454        0.00019346429680
C           -5.89057776451277        1.19229215186939        0.00006332069497
C           -6.71725622414617        2.30339216151324        0.00015188785520
C           -6.19698569499966       -0.23039653608033       -0.00017014626576
C           -7.40763156941729       -0.90291383592144       -0.00032586188252
C           -7.39609837308564       -2.28871247143641       -0.00051484631113
C           -6.20057358124297       -2.99092029507924       -0.00054882179102
C           -4.98387470345815       -2.32190016660630       -0.00040063203746
C           -4.99084901338396       -0.94492556767456       -0.00021117120579
C           -3.80367002478413       -0.00151418065462        0.00001467339603
C           -2.98580430955561       -0.17622848690230       -1.25686923695892
C           -3.61844757161872       -0.06021149571763       -2.48523936101197
C           -2.92074169087035       -0.20792630303752       -3.66961963356780
C           -1.56383948807342       -0.47744376589144       -3.62633566515666
C           -0.91686249534760       -0.59615456562053       -2.41304284996761
C           -1.61615991664527       -0.44652802975441       -1.21300696825598
N           -0.95492744386804       -0.56622273535385        0.00005015121896
C            0.43855299797864       -0.84455580136169        0.00008709229777
C            0.86445761198695       -2.19337830141317        0.00039017078725
C            2.19175113605067       -2.50563465666671        0.00042012757383
C            3.15724264057684       -1.47484730534756        0.00018235403113
N            4.46168071488845       -1.78181699559547        0.00021912888532
C            5.33070168865889       -0.78983616966076        0.00005423786229
C            6.74409201436130       -1.09301671376299        0.00008545882720
C            7.20691234386829       -2.41288048284825        0.00021039464516
C            8.56467241532735       -2.64418688432795        0.00022499772699
C            9.42091527766122       -1.54182458624556        0.00011260436997
N            9.00601829625030       -0.29718866757772        0.00000546720089
C            7.69636067357571       -0.05453410541327       -0.00000934720077
C            7.25784109410298        1.33288726747781       -0.00013401416184
N            8.18989663207667        2.28446855509933       -0.00018817409760
C            7.81346313208398        3.54131586591237       -0.00032128095181
C            6.47908724075001        3.95093483031114       -0.00039115247153
C            5.50121318635944        2.98102927194071       -0.00033542574232
C            5.88185753116889        1.63517357946206       -0.00020878389697
C            4.89952882118896        0.57463607934485       -0.00013806226195
N            3.61890265081386        0.88787829088242       -0.00023622346672
C            2.72747374737488       -0.11337568393215       -0.00009065280427
C            1.34810244611923        0.17856004477678       -0.00015782840566
C           -1.61628698061545       -0.44701437348305        1.21308437807004
C           -0.91709496841339       -0.59703363512763        2.41313336460854
C           -1.56419102321626       -0.47877749471773        3.62640723936680
C           -2.92110085867309       -0.20929441349702        3.66965932506140
C           -3.61869136825900       -0.06113328722562        2.48526615168730
C           -2.98593193554849       -0.17670590698584        1.25691470239818
H           -6.76569738637804        4.43982350144536        0.00042707680316
H           -4.32771038828538        4.70040756027591        0.00067915105064
H           -2.84979400121477        2.71448748780096        0.00052708444767
H           -7.79166671956259        2.19335141996351        0.00003554571504
H           -8.34157822810298       -0.36051491483504       -0.00029849298882
H           -8.33101567021948       -2.83017660169766       -0.00063727070360
H           -6.21626621757734       -4.07097322708630       -0.00069647008573
H           -4.05222700219279       -2.86922166095307       -0.00042112200224
H           -4.67793083176803        0.15038646655495       -2.50621652391614
H           -3.43094379619915       -0.11339457548824       -4.61561675608277
H           -1.00201797384798       -0.59644255294505       -4.54083638952940
H            0.14204919991764       -0.80612696289593       -2.39170291771724
H            0.11184131056532       -2.96795059795263        0.00058397711141
H            2.53674049409833       -3.52767253054857        0.00062559676262
H            6.48567557665716       -3.21595056269062        0.00028141664702
H            8.96159834612705       -3.64746816441629        0.00032707939638
H           10.49530715481690       -1.67357905563616        0.00014965236784
H            8.61665625766775        4.26695678395053       -0.00028285548590
H            6.22687541678735        4.99998648968205       -0.00046241917645
H            4.44932709885869        3.22300225610145       -0.00040311653127
H            1.03347889590394        1.21053099848419       -0.00039062536612
H            0.14183141020040       -0.80693535337240        2.39182029892552
H           -1.00245313603750       -0.59809178994664        4.54091822819474
H           -3.43139465728403       -0.11511514613988        4.61564200736921
H           -4.67817342729843        0.14947268810357        2.50621794897129

          :  Hamiltonian                  GFN2-xTB          :
         :: gradient norm              0.000043805152 Eh/a0 ::
         :: HOMO-LUMO gap              0.925130112731 eV    ::
         :: SCC energy              -121.688795868188 Eh    ::
         :: -> dispersion             -0.112094203813 Eh    ::
         :: repulsion energy           2.180084529485 Eh    ::

    * Orbital Energies and Occupations

         #    Occupation            Energy/Eh            Energy/eV
      -------------------------------------------------------------
         1        2.0000           -0.6892736             -18.7561
       ...           ...                  ...                  ...
        99        2.0000           -0.4122249             -11.2172
       100        2.0000           -0.4116288             -11.2010
       101        2.0000           -0.4093972             -11.1403
       102        2.0000           -0.4071161             -11.0782
       103        2.0000           -0.4058510             -11.0438
       104        2.0000           -0.3969254             -10.8009
       105        2.0000           -0.3944766             -10.7343
       106        2.0000           -0.3925547             -10.6820
       107        2.0000           -0.3780398             -10.2870
       108        2.0000           -0.3712013             -10.1009
       109        2.0000           -0.3701723             -10.0729
       110        2.0000           -0.3637143              -9.8972
       111        2.0000           -0.3499473              -9.5226 (HOMO)
       112                         -0.3159494              -8.5974 (LUMO)
       113                         -0.2842758              -7.7355
       114                         -0.2770470              -7.5388
       115                         -0.2504342              -6.8147
       116                         -0.2422242              -6.5913
       117                         -0.2368012              -6.4437
       118                         -0.2308871              -6.2828
       119                         -0.2235460              -6.0830
       120                         -0.2229900              -6.0679
       121                         -0.2220643              -6.0427
       122                         -0.2191252              -5.9627
       ...                                ...                  ...
       217                          0.7311648              19.8960
      -------------------------------------------------------------
                  HL-Gap            0.0339979 Eh            0.9251 eV

     #   Z          covCN         q      C6AA      α(0)
     1   6 C        2.921    -0.032    28.808     8.802
     2   6 C        2.923    -0.032    28.787     8.799
     3   6 C        2.914    -0.032    28.798     8.800
     4   6 C        3.059     0.003    27.904     8.663
     5   6 C        3.035     0.001    27.961     8.673
     6   6 C        2.915    -0.034    28.849     8.808
     7   6 C        3.035     0.002    27.959     8.673
     8   6 C        2.915    -0.034    28.850     8.808
     9   6 C        2.921    -0.032    28.809     8.802
    10   6 C        2.923    -0.032    28.791     8.799
    11   6 C        2.914    -0.032    28.797     8.800
    12   6 C        3.059     0.003    27.905     8.663
    13   6 C        3.950     0.012    20.312     6.404
    14   6 C        2.983    -0.007    28.195     8.710
    15   6 C        2.926    -0.034    28.852     8.809
    16   6 C        2.918    -0.042    29.051     8.839
    17   6 C        2.920    -0.032    28.792     8.799
    18   6 C        2.924    -0.058    29.435     8.897
    19   6 C        2.926     0.059    26.674     8.470
    20   7 N        2.754    -0.072    22.639     7.067
    21   6 C        2.924     0.076    26.313     8.412
    22   6 C        2.918    -0.034    28.858     8.809
    23   6 C        2.916    -0.038    28.937     8.821
    24   6 C        2.968     0.081    26.184     8.393
    25   7 N        1.848    -0.233    26.941     7.693
    26   6 C        2.960     0.083    26.153     8.388
    27   6 C        2.982    -0.012    28.297     8.726
    28   6 C        2.928    -0.010    28.265     8.719
    29   6 C        2.912    -0.037    28.929     8.820
    30   6 C        2.907     0.064    26.567     8.452
    31   7 N        1.841    -0.199    26.135     7.576
    32   6 C        2.971     0.085    26.096     8.379
    33   6 C        2.971     0.085    26.094     8.379
    34   7 N        1.841    -0.199    26.136     7.576
    35   6 C        2.907     0.064    26.565     8.451
    36   6 C        2.912    -0.037    28.926     8.819
    37   6 C        2.928    -0.010    28.260     8.718
    38   6 C        2.983    -0.012    28.296     8.726
    39   6 C        2.960     0.084    26.137     8.386
    40   7 N        1.849    -0.233    26.949     7.694
    41   6 C        2.968     0.083    26.142     8.387
    42   6 C        2.920    -0.049    29.207     8.862
    43   6 C        2.926     0.059    26.674     8.470
    44   6 C        2.924    -0.058    29.436     8.897
    45   6 C        2.920    -0.032    28.792     8.799
    46   6 C        2.918    -0.042    29.051     8.839
    47   6 C        2.926    -0.034    28.852     8.809
    48   6 C        2.983    -0.007    28.195     8.710
    49   1 H        0.926     0.030     2.588     2.516
    50   1 H        0.926     0.030     2.586     2.515
    51   1 H        0.926     0.025     2.654     2.547
    52   1 H        0.926     0.031     2.579     2.511
    53   1 H        0.926     0.031     2.578     2.511
    54   1 H        0.926     0.030     2.589     2.516
    55   1 H        0.926     0.030     2.590     2.517
    56   1 H        0.926     0.024     2.669     2.555
    57   1 H        0.926     0.030     2.585     2.514
    58   1 H        0.926     0.029     2.594     2.519
    59   1 H        0.926     0.030     2.587     2.515
    60   1 H        0.926     0.022     2.703     2.571
    61   1 H        0.926     0.052     2.298     2.370
    62   1 H        0.926     0.061     2.191     2.315
    63   1 H        0.926     0.061     2.184     2.311
    64   1 H        0.926     0.043     2.405     2.425
    65   1 H        0.925     0.049     2.336     2.390
    66   1 H        0.925     0.049     2.335     2.389
    67   1 H        0.926     0.044     2.401     2.423
    68   1 H        0.926     0.062     2.177     2.307
    69   1 H        0.926     0.063     2.166     2.301
    70   1 H        0.926     0.022     2.703     2.571
    71   1 H        0.926     0.030     2.587     2.515
    72   1 H        0.926     0.029     2.594     2.519
    73   1 H        0.926     0.030     2.585     2.514

molecular dipole:
                 x           y           z       tot (Debye)
 q only:        0.096      -0.213       0.000
   full:       -0.487      -0.426       0.000       1.644

 projected vibrational frequencies (cm⁻¹)
eigval :       -0.00    -0.00    -0.00    -0.00    -0.00     0.00
eigval :      -13.50     3.89    15.21    23.58    40.48    43.07
eigval :       44.70    59.38    65.88    82.32    84.38   101.03
eigval :      105.35   110.41   110.85   140.11   145.92   158.88
eigval :      176.10   192.13   207.40   237.44   242.08   242.87
eigval :      250.75   253.20   286.30   294.35   298.27   325.50
eigval :      346.25   372.77   379.47   386.85   387.40   390.93
eigval :      398.63   404.25   408.01   417.84   422.68   432.37
eigval :      438.35   445.61   452.16   460.41   465.34   497.71
eigval :      504.20   513.17   523.78   527.19   540.21   559.75
eigval :      563.84   571.50   587.81   590.19   596.39   599.51
eigval :      601.13   603.22   624.50   638.65   665.18   672.66
eigval :      683.90   685.80   694.09   696.31   700.88   707.65
eigval :      729.83   730.26   750.80   754.64   768.56   771.42
eigval :      776.13   777.08   785.90   785.96   794.20   811.65
eigval :      819.03   843.03   855.86   863.87   864.28   875.80
eigval :      877.74   878.73   892.40   899.36   908.94   909.64
eigval :      910.07   913.90   917.21   917.99   919.37   920.55
eigval :      920.67   920.77   926.85   927.56   928.47   928.77
eigval :      949.84   958.76   987.47  1006.51  1047.81  1069.63
eigval :     1074.15  1079.16  1085.85  1091.37  1102.94  1107.27
eigval :     1108.73  1126.59  1129.88  1136.19  1136.87  1142.73
eigval :     1144.95  1177.23  1177.67  1179.12  1184.11  1184.61
eigval :     1186.19  1187.60  1205.33  1208.59  1219.70  1228.48
eigval :     1235.76  1243.47  1247.48  1259.81  1268.48  1274.10
eigval :     1274.33  1283.48  1284.55  1292.06  1299.80  1310.90
eigval :     1318.45  1327.35  1327.43  1335.30  1340.99  1343.67
eigval :     1360.32  1367.60  1387.67  1402.33  1411.69  1429.67
eigval :     1430.23  1433.71  1438.92  1439.55  1449.08  1461.79
eigval :     1465.05  1472.17  1479.20  1484.76  1494.73  1506.54
eigval :     1525.52  1543.99  1551.56  1563.40  1575.20  1577.41
eigval :     1586.60  1589.10  1590.57  1597.14  1599.18  1603.37
eigval :     1605.27  1605.65  3055.84  3056.09  3071.57  3072.19
eigval :     3075.11  3076.12  3079.00  3079.15  3081.86  3081.93
eigval :     3082.48  3084.51  3089.25  3089.47  3089.79  3090.74
eigval :     3091.39  3091.56  3092.29  3099.74  3100.13  3100.31
eigval :     3100.65  3104.29  3104.95

   temp. (K)  partition function   enthalpy   heat capacity  entropy
                                   cal/mol     cal/K/mol   cal/K/mol   J/K/mol
 298.15  VIB  0.686E+16            20455.551    133.390    126.656
         ROT  0.772E+08              888.752      2.981     39.072
         INT  0.529E+24            21344.303    136.370    165.729
         TR   0.146E+29             1481.254      4.968     45.096
         TOT                       22825.5568   141.3386   210.8245   882.0896

       T/K    H(0)-H(T)+PV         H(T)/Eh          T*S/Eh         G(T)/Eh
   ------------------------------------------------------------------------
    298.15    0.363748E-01    0.581662E+00    0.100170E+00    0.481492E+00
   ------------------------------------------------------------------------

         :::::::::::::::::::::::::::::::::::::::::::::::::::::
         ::                  THERMODYNAMIC                  ::
         :::::::::::::::::::::::::::::::::::::::::::::::::::::
         :: total free energy        -119.027219152669 Eh   ::
         ::.................................................::
         :: total energy             -119.508711338702 Eh   ::
         :: zero point energy           0.545286851091 Eh   ::
         :: G(RRHO) w/o ZPVE           -0.063794665057 Eh   ::
         :: G(RRHO) contrib.            0.481492186033 Eh   ::
         :::::::::::::::::::::::::::::::::::::::::::::::::::::

           -------------------------------------------------
          | TOTAL ENERGY             -119.508711338702 Eh   |
          | TOTAL ENTHALPY           -118.927049647432 Eh   |
          | TOTAL FREE ENERGY        -119.027219152669 Eh   |
          | GRADIENT NORM               0.000043803387 Eh/α |
          | HOMO-LUMO GAP               0.925130584433 eV   |
           -------------------------------------------------

 * finished run on 2025/09/05 at 00:02:01.197
