   * xtb version 6.7.1 (edcfbbe) compiled by 'albert@albert-system' on 2024-07-22

   ID    Z sym.   atoms
    1    6 C      1-19, 21-24, 26-30, 32, 33, 35-39, 41-48
    2    7 N      20, 25, 31, 34, 40
    3    1 H      49-73

          program call               : xtb data2507/gas/SAF-2NP/SAF-2NP_gas_T1_crest.xyz --gfn 2 --spinpol --tblite --uhf 2 --ohess vtight --parallel 40 --molden --ceasefiles --namespace data2507/gas/SAF-2NP/SAF-2NP_gas_T1_finalOpt
 * total energy  :  -119.4679072 Eh     change        0.1920171E-09 Eh
 * total energy  :  -119.4679373 Eh     change       -0.3010935E-04 Eh
 * total energy  :  -119.4679457 Eh     change       -0.8395547E-05 Eh
 * total energy  :  -119.4679472 Eh     change       -0.1521721E-05 Eh
 * total energy  :  -119.4679480 Eh     change       -0.8226171E-06 Eh
 * total energy  :  -119.4679479 Eh     change        0.7951365E-07 Eh
 * total energy  :  -119.4679486 Eh     change       -0.6294893E-06 Eh
 * total energy  :  -119.4679490 Eh     change       -0.4906906E-06 Eh
 * total energy  :  -119.4679495 Eh     change       -0.4610096E-06 Eh
 * total energy  :  -119.4679500 Eh     change       -0.4444612E-06 Eh
 * total energy  :  -119.4679517 Eh     change       -0.3589224E-06 Eh
 * total energy  :  -119.4679520 Eh     change       -0.3270988E-06 Eh
 * total energy  :  -119.4679524 Eh     change       -0.3328018E-06 Eh
 * total energy  :  -119.4679527 Eh     change       -0.3353105E-06 Eh
 * total energy  :  -119.4679530 Eh     change       -0.3019531E-06 Eh
 * total energy  :  -119.4679533 Eh     change       -0.2733706E-06 Eh
 * total energy  :  -119.4679536 Eh     change       -0.2814015E-06 Eh
 * total energy  :  -119.4679539 Eh     change       -0.3060692E-06 Eh
 * total energy  :  -119.4679539 Eh     change       -0.2174211E-07 Eh
   *** GEOMETRY OPTIMIZATION CONVERGED AFTER 22 ITERATIONS ***

 final structure:
================
73
 xtb: 6.7.1 (edcfbbe)
C           -6.56769890867365        3.54788126015164        0.59190850877446
C           -5.19121952936389        3.69261949360102        0.67363158077862
C           -4.34996528665909        2.60299492650495        0.49101110580497
C           -4.91462317312498        1.37534277248555        0.22679296884577
C           -6.30553499939995        1.22315651101127        0.14332487657208
C           -7.13935694193045        2.31370200180570        0.32629629657351
C           -6.60155035111486       -0.17268062064979       -0.14258212270625
C           -7.80648897567139       -0.83223748248915       -0.31899455828469
C           -7.78501067898183       -2.19201322380839       -0.58560289690144
C           -6.58547236377101       -2.88152220245084       -0.67496349957449
C           -5.37413199822338       -2.22574563839594       -0.49908294366143
C           -5.39182427910766       -0.87482252819570       -0.23368140608703
C           -4.21068989076021        0.05096431329968       -0.00589854799807
C           -3.34635006985376        0.11637478086770       -1.23934899290202
C           -3.92761689568844        0.48622999337836       -2.44280531064350
C           -3.18668160407260        0.54875974154667       -3.60807946721618
C           -1.83881496654379        0.22862952610455       -3.57330654713060
C           -1.24244539246704       -0.14085619309132       -2.38653262480375
C           -1.98279283485819       -0.19543053495651       -1.20042885700042
N           -1.37268559307250       -0.56309846106449       -0.01500931464719
C            0.01565881801239       -0.88082091606549       -0.02243188377226
C            0.41902233233082       -2.21026615812535       -0.07622601037053
C            1.76467364349453       -2.52666696738299       -0.08588130852019
C            2.73691579705578       -1.52835646013542       -0.04632594892630
N            4.04107249622145       -1.80229333055075       -0.05814038410076
C            4.95862133269309       -0.84255000970123       -0.02136890518404
C            6.35007911411961       -1.15144592786706       -0.03755716013531
C            6.79699941394076       -2.48260190958976       -0.09244459989362
C            8.14483329241649       -2.73725322165526       -0.10676120684175
C            9.02810379083219       -1.64975470897175       -0.06545316480325
N            8.63695492800279       -0.40328100568884       -0.01415500891462
C            7.33144680539939       -0.12992549476994        0.00055227379838
C            6.91183998558075        1.24812368646503        0.05664834056905
N            7.84438638347372        2.20137109673000        0.09192690744740
C            7.47514910072191        3.45456587570177        0.14239628348300
C            6.13576550842328        3.86686076415025        0.16208535166997
C            5.15769896193859        2.90562471601470        0.12678075070425
C            5.52764994141044        1.55100828373994        0.07233280781835
C            4.54310107559609        0.52035889683019        0.03378112515387
N            3.24661739385960        0.80835864629817        0.04578112796589
C            2.31574378987649       -0.14620196546864        0.00842895546699
C            0.95444621272517        0.14178867668555        0.02167323951675
C           -2.07208026908992       -0.64272939375363        1.17523275927153
C           -1.41218159014529       -0.99729640158916        2.35707760155814
C           -2.09943501515529       -1.08495964095360        3.54896116125105
C           -3.45862207292375       -0.81811884229015        3.59304387409781
C           -4.11550046065512       -0.45576692093201        2.43200902106121
C           -3.44194209606520       -0.36161368038191        1.22355864456026
H           -7.20265063997168        4.40960651609294        0.73766012559345
H           -4.76823711248270        4.66422440949990        0.88209906613793
H           -3.27742714896450        2.71601780194629        0.55537978751661
H           -8.21205257877828        2.20585662967726        0.26378803122101
H           -8.74331730687262       -0.29943462131699       -0.25061379989744
H           -8.71529352116854       -2.72287231160750       -0.72610488072241
H           -6.59324274902958       -3.94108304089431       -0.88397829003586
H           -4.43956342861004       -2.76335499890623       -0.56935839489676
H           -4.98073282909585        0.72651383013594       -2.45928935686957
H           -3.65650481875990        0.83978689958310       -4.53465965714741
H           -1.24747388210840        0.26512617357967       -4.47584113123586
H           -0.19363155584409       -0.39331660408988       -2.37067397193469
H           -0.32521020924077       -2.99116511874832       -0.10866248556732
H            2.09053100554803       -3.55370151147786       -0.12780224474938
H            6.06012572405165       -3.27225211927017       -0.12193886791688
H            8.52411045569485       -3.74644987651101       -0.14857721228911
H           10.09892649696548       -1.80630547188009       -0.07480397821903
H            8.27771186881732        4.18014628932735        0.16887582172265
H            5.88878661280967        4.91632603635186        0.20398293985368
H            4.10588302123543        3.15223772992552        0.13920649338498
H            0.63949503179909        1.17257294745579        0.06348682025825
H           -0.35292496394743       -1.20132897690017        2.33334310711157
H           -1.56992123011576       -1.36163833232230        4.44820610527488
H           -4.00019728677863       -0.88739847481484        4.52356653174565
H           -5.17349593980431       -0.23863436873317        2.45578014304123

 projected vibrational frequencies (cm⁻¹)
eigval :       -0.00    -0.00    -0.00    -0.00     0.00     0.00
eigval :        4.29     5.83    16.47    27.60    43.10    43.84
eigval :       55.62    62.88    66.52    83.52    84.51   103.82
eigval :      108.20   109.86   112.71   139.79   149.37   158.06
eigval :      177.71   185.38   208.45   236.03   240.18   242.90
eigval :      247.67   249.49   275.87   293.65   299.50   327.49
eigval :      344.06   378.10   387.96   388.24   390.89   393.34
eigval :      399.34   407.66   408.00   416.97   424.07   428.92
eigval :      435.53   450.31   454.62   460.60   463.32   501.39
eigval :      506.88   509.43   522.50   527.73   539.60   551.51
eigval :      556.26   562.73   583.00   585.41   587.50   596.50
eigval :      598.28   602.19   622.59   628.74   644.90   662.57
eigval :      675.61   682.10   683.77   687.22   693.32   696.60
eigval :      697.75   718.22   729.97   746.53   754.30   768.81
eigval :      770.76   776.35   780.67   785.95   788.63   797.12
eigval :      800.63   817.96   838.56   845.76   865.58   866.47
eigval :      877.81   878.51   879.02   891.69   898.07   906.84
eigval :      907.07   909.50   909.94   911.08   914.26   918.92
eigval :      919.27   919.99   921.40   921.50   922.46   927.09
eigval :      927.74   947.95   994.23  1005.06  1034.64  1060.00
eigval :     1074.03  1079.13  1085.02  1087.62  1096.91  1103.98
eigval :     1105.79  1126.56  1128.12  1130.26  1134.32  1140.23
eigval :     1142.59  1176.44  1177.54  1179.01  1183.23  1183.39
eigval :     1186.55  1187.36  1203.58  1213.43  1216.82  1228.15
eigval :     1234.65  1242.31  1243.47  1249.48  1258.74  1262.41
eigval :     1270.03  1274.34  1283.60  1284.45  1284.96  1299.25
eigval :     1310.99  1321.07  1325.74  1326.56  1333.98  1335.32
eigval :     1335.66  1355.89  1367.68  1374.19  1387.11  1393.20
eigval :     1416.83  1429.37  1429.66  1432.45  1436.85  1447.55
eigval :     1454.89  1461.13  1467.03  1472.27  1473.91  1486.22
eigval :     1507.51  1509.89  1515.98  1536.01  1559.41  1564.35
eigval :     1572.41  1578.22  1582.79  1586.24  1595.28  1597.61
eigval :     1602.50  1604.49  3055.65  3056.30  3073.81  3074.43
eigval :     3076.76  3076.99  3077.61  3078.13  3082.71  3082.92
eigval :     3084.73  3086.00  3086.13  3086.95  3092.71  3093.27
eigval :     3093.84  3093.94  3094.35  3098.96  3099.38  3101.80
eigval :     3103.94  3104.75  3105.61

   temp. (K)  partition function   enthalpy   heat capacity  entropy
                                   cal/mol     cal/K/mol   cal/K/mol   J/K/mol
 298.15  VIB  0.837E+16            20539.089    134.798    127.523
         ROT  0.775E+08              888.752      2.981     39.080
         INT  0.648E+24            21427.841    137.779    166.603
         TR   0.146E+29             1481.254      4.968     45.096
         TOT                       22909.0953   142.7474   211.6993   885.7499

       T/K    H(0)-H(T)+PV         H(T)/Eh          T*S/Eh         G(T)/Eh
   ------------------------------------------------------------------------
    298.15    0.365080E-01    0.579309E+00    0.100585E+00    0.478724E+00
   ------------------------------------------------------------------------

         :::::::::::::::::::::::::::::::::::::::::::::::::::::
         ::                  THERMODYNAMIC                  ::
         :::::::::::::::::::::::::::::::::::::::::::::::::::::
         :: total free energy        -118.989229570772 Eh   ::
         ::.................................................::
         :: total energy             -119.467953876755 Eh   ::
         :: zero point energy           0.542801506509 Eh   ::
         :: G(RRHO) w/o ZPVE           -0.064077200526 Eh   ::
         :: G(RRHO) contrib.            0.478724305983 Eh   ::
         :::::::::::::::::::::::::::::::::::::::::::::::::::::

           -------------------------------------------------
          | TOTAL ENERGY             -119.467953876755 Eh   |
          | TOTAL ENTHALPY           -118.888644403111 Eh   |
          | TOTAL FREE ENERGY        -118.989229570772 Eh   |
          | GRADIENT NORM               0.000050332455 Eh/α |
           -------------------------------------------------

 * finished run on 2025/09/05 at 00:11:34.062
