   * xtb version 6.7.1 (edcfbbe) compiled by 'albert@albert-system' on 2024-07-22

   ID    Z sym.   atoms
    1    6 C      1-19, 21-24, 26-30, 32, 33, 35-39, 41-48
    2    7 N      20, 25, 31, 34, 40
    3    1 H      49-73

          program call               : xtb data2507/gas/SAF-2NP/SAF-2NP_gas_S0_finalOpt.xtbopt.xyz --gfn 2 --spinpol --tblite --uhf 2 --ohess vtight --parallel 40 --molden --ceasefiles --namespace data2507/gas/SAF-2NP/SAF-2NP_gas_T1_preOpt
 * total energy  :  -119.4633219 Eh     change       -0.9161027E-08 Eh
 * total energy  :  -119.4663242 Eh     change       -0.3002371E-02 Eh
 * total energy  :  -119.4673236 Eh     change       -0.9993789E-03 Eh
 * total energy  :  -119.4674514 Eh     change       -0.1277386E-03 Eh
 * total energy  :  -119.4675182 Eh     change       -0.6680692E-04 Eh
 * total energy  :  -119.4675336 Eh     change       -0.1538624E-04 Eh
 * total energy  :  -119.4675471 Eh     change       -0.1350222E-04 Eh
 * total energy  :  -119.4675699 Eh     change       -0.2282405E-04 Eh
 * total energy  :  -119.4675780 Eh     change       -0.8099790E-05 Eh
 * total energy  :  -119.4675976 Eh     change       -0.1966533E-04 Eh
 * total energy  :  -119.4679106 Eh     change       -0.2607236E-06 Eh
 * total energy  :  -119.4679110 Eh     change       -0.3202629E-06 Eh
 * total energy  :  -119.4679112 Eh     change       -0.2254860E-06 Eh
 * total energy  :  -119.4679114 Eh     change       -0.1760919E-06 Eh
 * total energy  :  -119.4679116 Eh     change       -0.2758787E-06 Eh
 * total energy  :  -119.4679119 Eh     change       -0.2853810E-06 Eh
 * total energy  :  -119.4679123 Eh     change       -0.4109213E-06 Eh
 * total energy  :  -119.4679126 Eh     change       -0.2569584E-06 Eh
 * total energy  :  -119.4679126 Eh     change       -0.3799252E-07 Eh
   *** GEOMETRY OPTIMIZATION CONVERGED AFTER 94 ITERATIONS ***

 final structure:
================
73
 xtb: 6.7.1 (edcfbbe)
C           -7.03484525358191        2.98969512404895        1.31225392998072
C           -5.69232543160916        3.27176089467691        1.51339015523531
C           -4.70997040840625        2.37510061071091        1.11405750587804
C           -5.09992330961440        1.19898094109083        0.51337488692849
C           -6.45606882746394        0.90874534074548        0.30777657605500
C           -7.43116347336392        1.80698770634308        0.70824370244056
C           -6.55760742292384       -0.39021057016808       -0.34032691496713
C           -7.65954872334651       -1.12093865308263       -0.75235252981092
C           -7.45162445030437       -2.35230224551893       -1.35312890927674
C           -6.16975196748609       -2.84631068650820       -1.54023550161291
C           -5.06098293332156       -2.11833995782981       -1.12932902597609
C           -5.26429483234335       -0.89480436497849       -0.53170597848653
C           -4.22190469174801        0.07566675041792       -0.00271336084627
C           -3.33827393982349        0.54856965371347       -1.12910740678581
C           -3.91183784557861        1.24499615043397       -2.18208125094526
C           -3.15587473012730        1.66550377786224       -3.26034112209409
C           -1.80131491458640        1.37526742884318       -3.29394793605454
C           -1.21242031312835        0.68380250423402       -2.25669550460910
C           -1.96738144110900        0.26807301160925       -1.15453063178062
N           -1.36519202509804       -0.41597631230406       -0.11410429054363
C            0.01923460085339       -0.73748868129675       -0.20344514772905
C            0.40099472434930       -2.01548568744472       -0.59536326543140
C            1.74113435627167       -2.34221259672839       -0.68571891796619
C            2.72959609096162       -1.40425237189589       -0.39195235975813
N            4.02899334106095       -1.68891113288491       -0.47205964508695
C            4.96236315965455       -0.78693593437225       -0.19002588536585
C            6.34843765671513       -1.10644396166186       -0.28204162640280
C            6.77318696360433       -2.38755238104774       -0.67331649855572
C            8.11659611374643       -2.65437135115169       -0.74913578690514
C            9.01779602000969       -1.62934363224713       -0.43023708560810
N            8.64738562436679       -0.43017893593253       -0.06403656882909
C            7.34661913330796       -0.14612812029799        0.01699106713505
C            6.94991482543534        1.17957154391480        0.42124298081576
N            7.89820774981138        2.07570110660369        0.69910747987096
C            7.54992793976855        3.28124599353616        1.06614923803313
C            6.21761031476690        3.69875923911107        1.18833981890024
C            5.22364727919198        2.79568508791634        0.90846542852798
C            5.57095609965331        1.49311360288658        0.51160727027782
C            4.56940263939024        0.52389368993570        0.21062817243629
N            3.27789826866122        0.82208893140003        0.29445798987336
C            2.33115066781165       -0.07483048222066        0.01415145589022
C            0.97487212052535        0.22363802282092        0.10100773593327
C           -2.06568914975493       -0.79023571283512        1.01810178084645
C           -1.39909206941233       -1.39357351129535        2.09016125763197
C           -2.08581908908570       -1.77008870509280        3.22475266027989
C           -3.45086171056512       -1.55099035943959        3.32008624226497
C           -4.11525988173571       -0.94768288699180        2.26860491113818
C           -3.44231617176930       -0.56129719352075        1.11944672255686
H           -7.78164992850081        3.70214166354785        1.63113463912482
H           -5.40712834697550        4.19984579298998        1.98634783490305
H           -3.66396125704245        2.59497291091817        1.27116474270526
H           -8.47801985956919        1.59152426356361        0.55375462225365
H           -8.65998436483131       -0.74039983190248       -0.60914901766153
H           -8.29946686816191       -2.93607827150582       -1.68076332561329
H           -6.03194435082186       -3.80844176846447       -2.01115029042969
H           -4.06218801287711       -2.50347579160488       -1.27603386268035
H           -4.97116344478467        1.45449802622942       -2.15138133410559
H           -3.61993511311856        2.20746129430398       -4.06961079957894
H           -1.19863131937887        1.68767383170455       -4.13344680303813
H           -0.15809451256403        0.45837776625821       -2.29484652828867
H           -0.35577111004847       -2.74961311618561       -0.82569754441444
H            2.04990652733036       -3.32988503946158       -0.98879231745200
H            6.02335264079961       -3.13032045235661       -0.90450366905995
H            8.47907404442198       -3.62632560792478       -1.04578109669623
H           10.08586427269878       -1.79768201009900       -0.47665490431997
H            8.36447912593528        3.96180665066861        1.27738978098505
H            5.98815412446190        4.70730580412739        1.49544536826292
H            4.17610765172093        3.04979450971947        0.98185465190637
H            0.67686011495236        1.21426302600736        0.40661789139800
H           -0.33521646378193       -1.56222051258353        2.02696723810272
H           -1.55131093851736       -2.23536508781885        4.03924499455779
H           -3.99201762778503       -1.84596338985007        4.20560022552126
H           -5.17898542062089       -0.77062388566095        2.33294303911399

 projected vibrational frequencies (cm⁻¹)
eigval :       -0.00    -0.00    -0.00     0.00     0.00     0.00
eigval :        3.49     5.71    16.50    27.78    42.42    44.48
eigval :       55.69    62.59    66.72    83.78    84.79   104.38
eigval :      107.95   108.45   112.58   139.90   149.80   159.24
eigval :      177.34   184.85   208.76   234.83   237.68   242.85
eigval :      249.15   253.46   275.93   293.59   299.23   327.17
eigval :      344.04   377.73   387.27   388.12   390.71   393.50
eigval :      399.80   407.59   408.11   416.64   423.83   428.98
eigval :      435.12   450.54   456.47   460.56   463.60   501.25
eigval :      506.67   509.31   522.53   527.69   539.60   551.19
eigval :      556.44   562.57   582.66   585.57   587.53   596.68
eigval :      598.23   602.37   622.56   628.66   644.83   662.25
eigval :      675.22   682.16   683.86   687.66   693.63   696.91
eigval :      697.79   718.34   729.89   746.57   754.33   768.80
eigval :      770.82   776.33   780.56   785.94   788.70   797.14
eigval :      800.59   818.95   838.36   845.82   865.77   866.63
eigval :      877.31   878.32   878.99   891.74   897.99   906.81
eigval :      907.02   909.19   910.21   911.09   914.24   919.03
eigval :      919.39   920.21   921.44   921.56   922.53   927.01
eigval :      927.85   947.84   994.32  1005.21  1034.78  1059.50
eigval :     1074.44  1079.40  1084.89  1087.58  1097.05  1104.98
eigval :     1106.31  1126.46  1128.01  1130.11  1134.36  1140.14
eigval :     1142.79  1175.86  1175.96  1178.43  1182.96  1183.06
eigval :     1186.07  1187.26  1202.97  1213.32  1217.02  1227.76
eigval :     1234.31  1242.38  1243.49  1249.27  1258.49  1262.08
eigval :     1271.03  1273.92  1283.53  1284.13  1285.13  1298.91
eigval :     1310.96  1320.94  1325.74  1326.53  1334.08  1334.59
eigval :     1335.68  1355.76  1367.31  1374.18  1387.26  1393.00
eigval :     1416.70  1428.69  1429.20  1432.24  1436.50  1447.63
eigval :     1454.89  1460.58  1466.18  1471.91  1474.77  1485.49
eigval :     1507.64  1509.89  1516.28  1536.07  1559.50  1564.32
eigval :     1572.43  1578.11  1582.63  1586.19  1594.91  1597.38
eigval :     1602.48  1604.51  3055.41  3056.08  3073.19  3074.19
eigval :     3076.49  3076.61  3077.45  3077.93  3082.65  3082.82
eigval :     3084.45  3085.82  3086.01  3086.81  3092.24  3093.04
eigval :     3093.42  3093.65  3094.21  3098.47  3099.16  3101.40
eigval :     3103.60  3104.81  3105.47

   temp. (K)  partition function   enthalpy   heat capacity  entropy
                                   cal/mol     cal/K/mol   cal/K/mol   J/K/mol
 298.15  VIB  0.104E+17            20538.828    134.799    127.734
         ROT  0.776E+08              888.752      2.981     39.082
         INT  0.805E+24            21427.580    137.780    166.816
         TR   0.146E+29             1481.254      4.968     45.096
         TOT                       22908.8342   142.7485   211.9119   886.6394

       T/K    H(0)-H(T)+PV         H(T)/Eh          T*S/Eh         G(T)/Eh
   ------------------------------------------------------------------------
    298.15    0.365076E-01    0.579279E+00    0.100686E+00    0.478593E+00
   ------------------------------------------------------------------------

         :::::::::::::::::::::::::::::::::::::::::::::::::::::
         ::                  THERMODYNAMIC                  ::
         :::::::::::::::::::::::::::::::::::::::::::::::::::::
         :: total free energy        -118.989319879955 Eh   ::
         ::.................................................::
         :: total energy             -119.467912657380 Eh   ::
         :: zero point energy           0.542771404286 Eh   ::
         :: G(RRHO) w/o ZPVE           -0.064178626861 Eh   ::
         :: G(RRHO) contrib.            0.478592777424 Eh   ::
         :::::::::::::::::::::::::::::::::::::::::::::::::::::

           -------------------------------------------------
          | TOTAL ENERGY             -119.467912657380 Eh   |
          | TOTAL ENTHALPY           -118.888633702061 Eh   |
          | TOTAL FREE ENERGY        -118.989319879955 Eh   |
          | GRADIENT NORM               0.000046183496 Eh/α |
           -------------------------------------------------

 * finished run on 2025/09/05 at 00:05:52.360
