   * xtb version 6.7.1 (edcfbbe) compiled by 'albert@albert-system' on 2024-07-22

   ID    Z sym.   atoms
    1    6 C      1-19, 21-24, 26-30, 32, 33, 35-39, 41-48
    2    7 N      20, 25, 31, 34, 40
    3    1 H      49-73

          program call               : xtb data2507/gas/SAF-2NP/SAF-2NP_gas_S0_crest.xyz --gfn 2 --ohess vtight --parallel 40 --molden --ceasefiles --namespace data2507/gas/SAF-2NP/SAF-2NP_gas_S0_finalOpt
          :  Hamiltonian                  GFN2-xTB          :
 * total energy  :  -119.5092364 Eh     change       -0.3901363E-08 Eh
 * total energy  :  -119.5092373 Eh     change       -0.8877318E-06 Eh
 * total energy  :  -119.5092379 Eh     change       -0.6304313E-06 Eh
 * total energy  :  -119.5092384 Eh     change       -0.4178811E-06 Eh
 * total energy  :  -119.5092390 Eh     change       -0.6482104E-06 Eh
 * total energy  :  -119.5092395 Eh     change       -0.5133572E-06 Eh
 * total energy  :  -119.5092399 Eh     change       -0.3846715E-06 Eh
 * total energy  :  -119.5092403 Eh     change       -0.4390433E-06 Eh
 * total energy  :  -119.5092411 Eh     change       -0.7032243E-06 Eh
 * total energy  :  -119.5092419 Eh     change       -0.8241413E-06 Eh
 * total energy  :  -119.5092430 Eh     change       -0.2614800E-06 Eh
 * total energy  :  -119.5092433 Eh     change       -0.3042494E-06 Eh
 * total energy  :  -119.5092437 Eh     change       -0.3947358E-06 Eh
 * total energy  :  -119.5092441 Eh     change       -0.3971414E-06 Eh
 * total energy  :  -119.5092444 Eh     change       -0.3207101E-06 Eh
 * total energy  :  -119.5092447 Eh     change       -0.3138253E-06 Eh
 * total energy  :  -119.5092450 Eh     change       -0.2860884E-06 Eh
 * total energy  :  -119.5092452 Eh     change       -0.1729638E-06 Eh
 * total energy  :  -119.5092452 Eh     change       -0.3780858E-07 Eh
   *** GEOMETRY OPTIMIZATION CONVERGED AFTER 21 ITERATIONS ***

 final structure:
================
73
 xtb: 6.7.1 (edcfbbe)
C           -7.30768737778884        2.74570348658264        1.32057922640333
C           -6.00415035576835        3.09674840653206        1.63692007236649
C           -4.93874954340989        2.29222311943916        1.25493163880994
C           -5.20592410575493        1.13739240722523        0.55383884063330
C           -6.52243554553581        0.77798350477315        0.23167276006006
C           -7.58101275521749        1.58422294006162        0.61556029039039
C           -6.49142416926453       -0.47742540630375       -0.50373396982483
C           -7.51080858941834       -1.24470710190595       -1.04221118040066
C           -7.17988963875504       -2.41574994795754       -1.70523430709791
C           -5.85781324086659       -2.81413104342961       -1.83034775621346
C           -4.83167358543425       -2.04901518518944       -1.29227517510308
C           -5.15676144052253       -0.88562803540332       -0.63145623758884
C           -4.22241231032899        0.10814397426163        0.03558627763309
C           -3.29002497139325        0.70383604899755       -0.99037386794397
C           -3.83725937800062        1.46105493915359       -2.01596111010930
C           -3.05201244800881        1.97040362541242       -3.03211777575935
C           -1.69588197787941        1.69478784328113       -3.03575929146502
C           -1.13390067261740        0.94656003424787       -2.02150422008359
C           -1.91407999096045        0.45902121738529       -0.96996941278111
N           -1.34453696623378       -0.28806830758398        0.05802005719673
C            0.02713246365214       -0.62545272510607        0.01744013298898
C            0.37940353200051       -1.99103584717868       -0.11850910251552
C            1.68464431955460       -2.37636198188279       -0.17807105199729
C            2.71057395038934       -1.40775822504817       -0.10143734370239
N            3.99304926113635       -1.78626620220981       -0.15981873663610
C            4.91899423961098       -0.84853471876756       -0.07971949662366
C            6.31155894478278       -1.22964409277697       -0.13946146491138
C            6.69652456299069       -2.56697135811055       -0.28069020035259
C            8.03813087930978       -2.87372943315151       -0.33179669578272
C            8.95745004014920       -1.82735725510392       -0.23951205127331
N            8.61631888232635       -0.56755768659059       -0.10689673761701
C            7.32306413721917       -0.25221325627870       -0.05564501744931
C            6.96599806194440        1.15031627010388        0.09156156310923
N            7.95170015809208        2.04340487471734        0.16639190337488
C            7.64881877172713        3.31297961106975        0.29879098501353
C            6.34059870087217        3.79493024329886        0.36699735416803
C            5.30831669514489        2.88635366068354        0.29142692406125
C            5.60990678453849        1.52791690183291        0.15042122261210
C            4.56756762936745        0.52988196843999        0.06482538863418
N            3.30689085434224        0.91431358093214        0.11938510744333
C            2.35880828411816       -0.03085624006702        0.03887190705571
C            1.00050090179200        0.33715167823402        0.10232761105570
C           -2.09893334763250       -0.72618738067215        1.14140741014941
C           -1.47080352918344       -1.31105628950223        2.24473417615946
C           -2.20567883849450       -1.75681590813173        3.32425454917402
C           -3.58251231950215       -1.61520810787411        3.33717737272571
C           -4.20713834799764       -1.00527207566990        2.26586019393585
C           -3.48407970128563       -0.55277462763837        1.17216122472610
H           -8.12093676634251        3.38690701029619        1.62824741744270
H           -5.81539240775351        4.00664370978851        2.18740660145447
H           -3.92305723837204        2.56509495492941        1.50222891587125
H           -8.59801160488499        1.31493503623580        0.37148952784051
H           -8.54212473376822       -0.93814403299187       -0.94865327360917
H           -7.96203384890923       -3.02673899571320       -2.13197231339373
H           -5.62364089054924       -3.73005171722381       -2.35281626988836
H           -3.80131380282866       -2.35903053746801       -1.39207585115884
H           -4.90212249604024        1.64293478531064       -2.01486075020157
H           -3.49537083584037        2.56025618524674       -3.81919728862110
H           -1.06684108349917        2.06045074134622       -3.83358921347341
H           -0.07754996502858        0.73070003907797       -2.05391977716767
H           -0.41503488327584       -2.72038948013904       -0.18035069884303
H            1.96759510152286       -3.41130182693268       -0.28927034183888
H            5.92951483084705       -3.32368580760882       -0.34563145822942
H            8.37567306139502       -3.89284051076914       -0.44005395355546
H           10.02216897716569       -2.01941237285627       -0.27514565586144
H            8.49263905406671        3.98878177771454        0.35405012797430
H            6.14977967526068        4.85130841851751        0.47599342282780
H            4.27231954231064        3.18584660487315        0.33733250476184
H            0.75207116798371        1.38079697716582        0.21877203292447
H           -0.39601572681361       -1.40926059550570        2.26039218978988
H           -1.69601020341269       -2.21063910920598        4.16103008061221
H           -4.16239425061772       -1.96579163578840        4.17674135053598
H           -5.27936565862232       -0.87384344722898        2.27022722085739

          :  Hamiltonian                  GFN2-xTB          :
         :: gradient norm              0.000082522112 Eh/a0 ::
         :: HOMO-LUMO gap              1.116648883951 eV    ::
         :: SCC energy              -121.688425039715 Eh    ::
         :: -> dispersion             -0.112330996040 Eh    ::
         :: repulsion energy           2.179179807176 Eh    ::

    * Orbital Energies and Occupations

         #    Occupation            Energy/Eh            Energy/eV
      -------------------------------------------------------------
         1        2.0000           -0.6857490             -18.6602
       ...           ...                  ...                  ...
        99        2.0000           -0.4136690             -11.2565
       100        2.0000           -0.4114947             -11.1973
       101        2.0000           -0.4101451             -11.1606
       102        2.0000           -0.4085269             -11.1166
       103        2.0000           -0.4034574             -10.9786
       104        2.0000           -0.3990666             -10.8592
       105        2.0000           -0.3966418             -10.7932
       106        2.0000           -0.3945923             -10.7374
       107        2.0000           -0.3799910             -10.3401
       108        2.0000           -0.3687838             -10.0351
       109        2.0000           -0.3677821             -10.0079
       110        2.0000           -0.3604816              -9.8092
       111        2.0000           -0.3533849              -9.6161 (HOMO)
       112                         -0.3123487              -8.4994 (LUMO)
       113                         -0.2813849              -7.6569
       114                         -0.2745503              -7.4709
       115                         -0.2524546              -6.8696
       116                         -0.2394410              -6.5155
       117                         -0.2348101              -6.3895
       118                         -0.2335521              -6.3553
       119                         -0.2257254              -6.1423
       120                         -0.2254332              -6.1343
       121                         -0.2240421              -6.0965
       122                         -0.2168139              -5.8998
       ...                                ...                  ...
       217                          0.7292504              19.8439
      -------------------------------------------------------------
                  HL-Gap            0.0410363 Eh            1.1167 eV

     #   Z          covCN         q      C6AA      α(0)
     1   6 C        2.921    -0.032    28.804     8.801
     2   6 C        2.923    -0.031    28.783     8.798
     3   6 C        2.914    -0.032    28.791     8.799
     4   6 C        3.058     0.003    27.909     8.664
     5   6 C        3.035     0.001    27.964     8.674
     6   6 C        2.914    -0.034    28.853     8.808
     7   6 C        3.034     0.002    27.955     8.672
     8   6 C        2.915    -0.034    28.840     8.806
     9   6 C        2.921    -0.032    28.804     8.801
    10   6 C        2.923    -0.032    28.789     8.799
    11   6 C        2.914    -0.032    28.806     8.801
    12   6 C        3.060     0.003    27.907     8.663
    13   6 C        3.951     0.012    20.309     6.404
    14   6 C        2.984    -0.006    28.167     8.706
    15   6 C        2.927    -0.034    28.855     8.809
    16   6 C        2.917    -0.041    29.019     8.834
    17   6 C        2.920    -0.031    28.784     8.798
    18   6 C        2.924    -0.057    29.427     8.896
    19   6 C        2.922     0.058    26.692     8.472
    20   7 N        2.753    -0.065    22.507     7.046
    21   6 C        2.923     0.072    26.396     8.425
    22   6 C        2.919    -0.035    28.879     8.812
    23   6 C        2.915    -0.039    28.970     8.826
    24   6 C        2.968     0.081    26.194     8.395
    25   7 N        1.848    -0.234    26.987     7.699
    26   6 C        2.960     0.081    26.192     8.394
    27   6 C        2.982    -0.012    28.299     8.726
    28   6 C        2.928    -0.010    28.276     8.720
    29   6 C        2.912    -0.038    28.939     8.821
    30   6 C        2.907     0.063    26.579     8.453
    31   7 N        1.841    -0.200    26.158     7.580
    32   6 C        2.971     0.085    26.109     8.381
    33   6 C        2.971     0.085    26.102     8.380
    34   7 N        1.841    -0.199    26.157     7.580
    35   6 C        2.907     0.064    26.573     8.453
    36   6 C        2.912    -0.038    28.938     8.821
    37   6 C        2.928    -0.010    28.268     8.719
    38   6 C        2.983    -0.012    28.301     8.727
    39   6 C        2.960     0.083    26.151     8.388
    40   7 N        1.849    -0.237    27.041     7.707
    41   6 C        2.967     0.082    26.161     8.390
    42   6 C        2.920    -0.053    29.326     8.880
    43   6 C        2.927     0.059    26.688     8.472
    44   6 C        2.924    -0.056    29.396     8.891
    45   6 C        2.920    -0.032    28.792     8.799
    46   6 C        2.918    -0.041    29.013     8.833
    47   6 C        2.926    -0.034    28.854     8.809
    48   6 C        2.984    -0.006    28.156     8.704
    49   1 H        0.926     0.030     2.582     2.513
    50   1 H        0.926     0.031     2.577     2.510
    51   1 H        0.926     0.026     2.638     2.540
    52   1 H        0.926     0.031     2.576     2.510
    53   1 H        0.926     0.031     2.566     2.505
    54   1 H        0.926     0.031     2.578     2.511
    55   1 H        0.926     0.030     2.583     2.513
    56   1 H        0.926     0.024     2.678     2.559
    57   1 H        0.926     0.031     2.570     2.507
    58   1 H        0.926     0.031     2.577     2.511
    59   1 H        0.926     0.032     2.563     2.504
    60   1 H        0.926     0.029     2.602     2.523
    61   1 H        0.926     0.049     2.327     2.385
    62   1 H        0.926     0.059     2.210     2.325
    63   1 H        0.926     0.061     2.192     2.315
    64   1 H        0.926     0.042     2.419     2.432
    65   1 H        0.925     0.048     2.350     2.397
    66   1 H        0.925     0.048     2.348     2.396
    67   1 H        0.926     0.043     2.415     2.430
    68   1 H        0.926     0.061     2.185     2.312
    69   1 H        0.926     0.062     2.181     2.309
    70   1 H        0.926     0.026     2.637     2.539
    71   1 H        0.926     0.032     2.564     2.504
    72   1 H        0.926     0.031     2.573     2.509
    73   1 H        0.926     0.031     2.566     2.505

molecular dipole:
                 x           y           z       tot (Debye)
 q only:       -0.338      -0.192      -0.007
   full:       -0.940      -0.375      -0.022       2.572

 projected vibrational frequencies (cm⁻¹)
eigval :       -0.00    -0.00     0.00     0.00     0.00     0.00
eigval :        2.89    13.19    16.21    28.28    42.06    45.08
eigval :       60.26    64.12    68.46    83.48    85.28   102.41
eigval :      103.89   109.07   116.91   140.95   150.88   162.58
eigval :      180.50   196.14   208.49   233.81   239.76   246.78
eigval :      256.31   258.26   289.97   294.70   302.42   325.69
eigval :      348.07   376.11   380.63   385.20   387.34   390.61
eigval :      399.36   404.51   407.87   416.38   426.84   433.84
eigval :      440.68   446.84   456.89   463.63   467.35   500.66
eigval :      505.76   512.56   524.77   528.30   540.18   556.32
eigval :      570.04   571.67   587.63   590.05   596.98   599.96
eigval :      601.25   603.82   624.85   636.93   663.64   674.09
eigval :      685.91   686.36   693.63   696.27   701.01   707.58
eigval :      729.56   730.35   749.94   754.60   768.81   772.99
eigval :      775.30   778.16   785.83   786.19   794.69   811.56
eigval :      822.97   843.03   854.82   866.06   868.18   877.64
eigval :      879.15   888.90   893.12   898.85   908.83   910.11
eigval :      911.16   914.53   916.79   917.58   921.04   921.19
eigval :      922.86   923.38   926.88   927.86   928.25   928.71
eigval :      948.41   959.10   988.01  1006.33  1047.77  1070.32
eigval :     1074.24  1078.98  1085.66  1091.35  1102.93  1109.39
eigval :     1111.96  1126.22  1130.83  1136.28  1138.02  1142.81
eigval :     1147.27  1176.98  1178.37  1179.40  1184.22  1185.54
eigval :     1186.92  1190.28  1204.46  1209.98  1219.97  1229.61
eigval :     1237.07  1243.84  1248.99  1259.83  1267.80  1273.23
eigval :     1275.62  1284.19  1284.56  1293.15  1296.21  1311.43
eigval :     1318.94  1325.01  1327.06  1333.63  1334.57  1342.54
eigval :     1359.50  1367.51  1388.33  1402.14  1413.94  1429.44
eigval :     1430.31  1432.87  1436.79  1438.52  1449.43  1461.69
eigval :     1464.93  1472.16  1478.55  1480.21  1491.64  1501.53
eigval :     1524.88  1543.36  1551.45  1563.56  1574.33  1577.35
eigval :     1586.49  1587.89  1589.87  1596.25  1597.56  1602.74
eigval :     1604.05  1605.50  3054.95  3055.22  3071.37  3073.05
eigval :     3075.27  3077.00  3080.91  3081.29  3082.98  3083.97
eigval :     3084.29  3085.21  3086.44  3088.73  3089.01  3091.25
eigval :     3092.70  3094.75  3098.32  3099.62  3100.00  3101.41
eigval :     3102.01  3104.17  3104.80

   temp. (K)  partition function   enthalpy   heat capacity  entropy
                                   cal/mol     cal/K/mol   cal/K/mol   J/K/mol
 298.15  VIB  0.405E+16            20351.082    133.717    126.064
         ROT  0.773E+08              888.752      2.981     39.076
         INT  0.313E+24            21239.834    136.698    165.141
         TR   0.146E+29             1481.254      4.968     45.096
         TOT                       22721.0881   141.6665   210.2365   879.6295

       T/K    H(0)-H(T)+PV         H(T)/Eh          T*S/Eh         G(T)/Eh
   ------------------------------------------------------------------------
    298.15    0.362084E-01    0.581815E+00    0.998901E-01    0.481925E+00
   ------------------------------------------------------------------------

         :::::::::::::::::::::::::::::::::::::::::::::::::::::
         ::                  THERMODYNAMIC                  ::
         :::::::::::::::::::::::::::::::::::::::::::::::::::::
         :: total free energy        -119.027319926990 Eh   ::
         ::.................................................::
         :: total energy             -119.509245232534 Eh   ::
         :: zero point energy           0.545607086700 Eh   ::
         :: G(RRHO) w/o ZPVE           -0.063681781157 Eh   ::
         :: G(RRHO) contrib.            0.481925305544 Eh   ::
         :::::::::::::::::::::::::::::::::::::::::::::::::::::

           -------------------------------------------------
          | TOTAL ENERGY             -119.509245232534 Eh   |
          | TOTAL ENTHALPY           -118.927429787129 Eh   |
          | TOTAL FREE ENERGY        -119.027319926990 Eh   |
          | GRADIENT NORM               0.000082519506 Eh/α |
          | HOMO-LUMO GAP               1.116653400194 eV   |
           -------------------------------------------------

 * finished run on 2025/09/05 at 00:05:37.764
