   * xtb version 6.7.1 (edcfbbe) compiled by 'albert@albert-system' on 2024-07-22

   ID    Z sym.   atoms
    1    6 C      1-4, 6, 7, 9-11, 13-18, 20, 21, 23-28, 30
    2    7 N      5, 8, 12, 19, 22, 29
    3    1 H      31-42

          program call               : xtb data2507/gas/DQP/DQP_gas_S0_crest.xyz --gfn 2 --ohess vtight --parallel 40 --molden --ceasefiles --namespace data2507/gas/DQP/DQP_gas_S0_finalOpt
          :  Hamiltonian                  GFN2-xTB          :
 * total energy  :   -75.0623409 Eh     change       -0.1847411E-10 Eh
 * total energy  :   -75.0623424 Eh     change       -0.1445890E-05 Eh
 * total energy  :   -75.0623448 Eh     change       -0.2449730E-05 Eh
 * total energy  :   -75.0623465 Eh     change       -0.1632847E-05 Eh
 * total energy  :   -75.0623476 Eh     change       -0.1153566E-05 Eh
 * total energy  :   -75.0623487 Eh     change       -0.1077468E-05 Eh
 * total energy  :   -75.0623497 Eh     change       -0.1036426E-05 Eh
 * total energy  :   -75.0623504 Eh     change       -0.6751701E-06 Eh
 * total energy  :   -75.0623507 Eh     change       -0.2743329E-06 Eh
 * total energy  :   -75.0623508 Eh     change       -0.9742928E-07 Eh
   *** GEOMETRY OPTIMIZATION CONVERGED AFTER 10 ITERATIONS ***

 final structure:
================
42
 xtb: 6.7.1 (edcfbbe)
C           -4.09015712512625       -4.35109860730322       -0.00196306658270
C           -2.95710251073164       -5.18810656214677       -0.00391108258263
C           -1.69620535851868       -4.66310236834513       -0.00518607058672
C           -1.52256738342240       -3.26266236078857       -0.00460903062178
N           -0.28721644080742       -2.74230986607961       -0.00504459247390
C           -0.16956408707745       -1.43267001282374       -0.00459116146165
C           -1.31984839296829       -0.58294408695327       -0.00432388143556
N           -2.53706447878418       -1.08031891261942       -0.00343240690515
C           -2.67134591689864       -2.41404410257225       -0.00321322486512
C           -3.95891004253070       -2.99158998205274       -0.00167185553508
C           -1.15629071308198        0.86312515688230       -0.00443631285822
N           -2.23165611896193        1.61981227319349       -0.00353680670451
C           -2.06464012699304        2.94983926082967       -0.00253943095177
C           -3.19066656765489        3.80038657925050       -0.00085333917672
C           -3.01492990667075        5.15486433557415        0.00121763031222
C           -1.72354787006177        5.71764110922673        0.00146459466023
C           -0.61177364644916        4.92425941538028       -0.00059241082578
C           -0.75533618952779        3.52042381673457       -0.00262601621330
N            0.33257917000594        2.73728334964417       -0.00415446411467
C            0.15473274593355        1.43445650826126       -0.00497570292096
C            1.32527874989410        0.56976117052197       -0.00533043439077
N            2.51828399461049        1.12270557005523       -0.00604840971473
C            3.58660360924629        0.31305490725398       -0.00418410958988
C            4.88622639214440        0.86293900524188       -0.00450518466891
C            5.97135585777550        0.03350458154954       -0.00073622744698
C            5.81303352983473       -1.36626068441147        0.00325948809899
C            4.57006129394871       -1.93238350736047        0.00300395645785
C            3.42608507130531       -1.10612625946663       -0.00093469743854
N            2.20391354272511       -1.65671170192716       -0.00158537797070
C            1.16454984734375       -0.85127607209086       -0.00399954261591
H           -5.07236564633727       -4.80052405087071       -0.00079608718993
H           -3.09800714062376       -6.25902434671697       -0.00430496116047
H           -0.81389002427804       -5.28351612493891       -0.00649204931203
H           -4.81121373721834       -2.33055102102001       -0.00030186190383
H           -4.16909621156931        3.34643803577297       -0.00099905024228
H           -3.87194326579412        5.81231654686266        0.00283268995743
H           -1.62167521804785        6.79297225751858        0.00331292832840
H            0.38682665439864        5.33192511305748       -0.00051911019756
H            4.98231186565250        1.93725574178520       -0.00741940349348
H            6.96924653435567        0.44694834968268       -0.00057664582068
H            6.69337065731641       -1.99212980011477        0.00666660974815
H            4.42377756154448       -3.00102206007665        0.00586331190962

          :  Hamiltonian                  GFN2-xTB          :
         :: gradient norm              0.000056696182 Eh/a0 ::
         :: HOMO-LUMO gap              1.078218148835 eV    ::
         :: SCC energy               -76.340583485112 Eh    ::
         :: -> dispersion             -0.057236812996 Eh    ::
         :: repulsion energy           1.278232713766 Eh    ::

    * Orbital Energies and Occupations

         #    Occupation            Energy/Eh            Energy/eV
      -------------------------------------------------------------
         1        2.0000           -0.6835496             -18.6003
       ...           ...                  ...                  ...
        57        2.0000           -0.4398967             -11.9702
        58        2.0000           -0.4375617             -11.9067
        59        2.0000           -0.4213929             -11.4667
        60        2.0000           -0.4213925             -11.4667
        61        2.0000           -0.4160487             -11.3213
        62        2.0000           -0.4160482             -11.3212
        63        2.0000           -0.4109404             -11.1823
        64        2.0000           -0.4054450             -11.0327
        65        2.0000           -0.4026402             -10.9564
        66        2.0000           -0.4026400             -10.9564
        67        2.0000           -0.3537850              -9.6270
        68        2.0000           -0.3537846              -9.6270
        69        2.0000           -0.3517001              -9.5702 (HOMO)
        70                         -0.3120763              -8.4920 (LUMO)
        71                         -0.3055339              -8.3140
        72                         -0.3055331              -8.3140
        73                         -0.2479651              -6.7475
        74                         -0.2479648              -6.7475
        75                         -0.2296477              -6.2490
        76                         -0.2195180              -5.9734
        77                         -0.2144067              -5.8343
        78                         -0.2144066              -5.8343
        79                         -0.1744421              -4.7468
        80                         -0.1744419              -4.7468
       ...                                ...                  ...
       132                          0.7242534              19.7079
      -------------------------------------------------------------
                  HL-Gap            0.0396238 Eh            1.0782 eV

     #   Z          covCN         q      C6AA      α(0)
     1   6 C        2.916    -0.024    28.601     8.770
     2   6 C        2.916    -0.024    28.601     8.770
     3   6 C        2.916    -0.036    28.885     8.813
     4   6 C        2.970     0.084    26.117     8.383
     5   7 N        1.849    -0.206    26.321     7.604
     6   6 C        2.962     0.075    26.313     8.414
     7   6 C        2.962     0.075    26.313     8.414
     8   7 N        1.849    -0.206    26.321     7.604
     9   6 C        2.970     0.084    26.117     8.383
    10   6 C        2.916    -0.036    28.885     8.813
    11   6 C        2.962     0.075    26.313     8.414
    12   7 N        1.849    -0.206    26.321     7.604
    13   6 C        2.970     0.084    26.117     8.383
    14   6 C        2.916    -0.036    28.885     8.813
    15   6 C        2.916    -0.024    28.601     8.770
    16   6 C        2.916    -0.024    28.601     8.770
    17   6 C        2.916    -0.036    28.885     8.813
    18   6 C        2.970     0.084    26.117     8.383
    19   7 N        1.849    -0.206    26.321     7.604
    20   6 C        2.962     0.075    26.313     8.414
    21   6 C        2.962     0.075    26.313     8.414
    22   7 N        1.849    -0.206    26.321     7.604
    23   6 C        2.970     0.084    26.117     8.383
    24   6 C        2.916    -0.036    28.885     8.813
    25   6 C        2.916    -0.024    28.601     8.770
    26   6 C        2.916    -0.024    28.601     8.770
    27   6 C        2.916    -0.036    28.885     8.813
    28   6 C        2.970     0.084    26.117     8.383
    29   7 N        1.849    -0.206    26.321     7.604
    30   6 C        2.962     0.075    26.313     8.414
    31   1 H        0.926     0.045     2.383     2.414
    32   1 H        0.926     0.045     2.383     2.414
    33   1 H        0.926     0.061     2.186     2.312
    34   1 H        0.926     0.061     2.186     2.312
    35   1 H        0.926     0.061     2.186     2.312
    36   1 H        0.926     0.045     2.383     2.414
    37   1 H        0.926     0.045     2.383     2.414
    38   1 H        0.926     0.061     2.186     2.312
    39   1 H        0.926     0.061     2.186     2.312
    40   1 H        0.926     0.045     2.383     2.414
    41   1 H        0.926     0.045     2.383     2.414
    42   1 H        0.926     0.061     2.186     2.312

molecular dipole:
                 x           y           z       tot (Debye)
 q only:       -0.000       0.000       0.003
   full:       -0.000      -0.000       0.003       0.007

 projected vibrational frequencies (cm⁻¹)
eigval :       -0.00    -0.00    -0.00    -0.00     0.00     0.00
eigval :       32.08    32.11    41.04    52.18    95.85    95.88
eigval :      100.58   100.59   185.00   185.01   202.91   269.92
eigval :      270.98   273.38   280.42   280.42   310.81   310.81
eigval :      358.86   400.80   400.81   440.22   440.22   445.19
eigval :      445.59   445.60   508.13   518.74   518.74   521.01
eigval :      521.01   524.38   570.21   581.39   581.42   622.88
eigval :      624.17   624.19   667.22   667.22   707.28   728.24
eigval :      759.87   759.87   765.75   773.81   773.81   782.59
eigval :      809.18   809.21   826.91   837.66   867.57   867.57
eigval :      879.47   879.72   879.73   917.25   917.25   917.26
eigval :      926.90   931.46   931.49   931.49  1051.17  1051.20
eigval :     1051.89  1085.35  1085.38  1141.91  1141.93  1141.95
eigval :     1165.22  1167.54  1167.56  1219.15  1219.17  1224.44
eigval :     1248.96  1251.13  1251.17  1292.60  1292.61  1323.24
eigval :     1329.10  1338.36  1338.39  1347.03  1347.04  1370.17
eigval :     1396.34  1403.03  1403.06  1440.98  1464.32  1464.34
eigval :     1483.73  1489.32  1489.35  1493.16  1493.18  1537.16
eigval :     1541.57  1544.18  1544.18  1603.55  1605.04  1605.06
eigval :     3079.88  3079.90  3079.93  3088.57  3088.62  3088.73
eigval :     3104.86  3105.05  3105.12  3106.41  3106.46  3106.62

   temp. (K)  partition function   enthalpy   heat capacity  entropy
                                   cal/mol     cal/K/mol   cal/K/mol   J/K/mol
 298.15  VIB  0.290E+08            11407.777     77.590     67.753
         ROT  0.336E+07              888.752      2.981     32.846
         INT  0.974E+14            12296.529     80.571    100.599
         TR   0.729E+28             1481.254      4.968     43.712
         TOT                       13777.7828    85.5394   144.3112   603.7979

       T/K    H(0)-H(T)+PV         H(T)/Eh          T*S/Eh         G(T)/Eh
   ------------------------------------------------------------------------
    298.15    0.219563E-01    0.319291E+00    0.685669E-01    0.250724E+00
   ------------------------------------------------------------------------

         :::::::::::::::::::::::::::::::::::::::::::::::::::::
         ::                  THERMODYNAMIC                  ::
         :::::::::::::::::::::::::::::::::::::::::::::::::::::
         :: total free energy         -74.811626935417 Eh   ::
         ::.................................................::
         :: total energy              -75.062350771344 Eh   ::
         :: zero point energy           0.297334426073 Eh   ::
         :: G(RRHO) w/o ZPVE           -0.046610590146 Eh   ::
         :: G(RRHO) contrib.            0.250723835927 Eh   ::
         :::::::::::::::::::::::::::::::::::::::::::::::::::::

           -------------------------------------------------
          | TOTAL ENERGY              -75.062350771344 Eh   |
          | TOTAL ENTHALPY            -74.743060050761 Eh   |
          | TOTAL FREE ENERGY         -74.811626935417 Eh   |
          | GRADIENT NORM               0.000056630153 Eh/α |
          | HOMO-LUMO GAP               1.078218573510 eV   |
           -------------------------------------------------

 * finished run on 2025/07/17 at 00:44:47.996
