   * xtb version 6.7.1 (edcfbbe) compiled by 'albert@albert-system' on 2024-07-22

   ID    Z sym.   atoms
    1    6 C      1-4, 6, 7, 9-11, 13-18, 20, 21, 23-28, 30
    2    7 N      5, 8, 12, 19, 22, 29
    3    1 H      31-42

          program call               : xtb data2507/gas/DQP/DQP_gas_S0_finalOpt.xtbopt.xyz --gfn 2 --spinpol --tblite --uhf 2 --ohess vtight --parallel 40 --molden --ceasefiles --namespace data2507/gas/DQP/DQP_gas_T1_preOpt
 * total energy  :   -75.0233257 Eh     change       -0.2136360E-07 Eh
 * total energy  :   -75.0247910 Eh     change       -0.1465323E-02 Eh
 * total energy  :   -75.0252539 Eh     change       -0.4628786E-03 Eh
 * total energy  :   -75.0252983 Eh     change       -0.4443250E-04 Eh
 * total energy  :   -75.0253109 Eh     change       -0.1261072E-04 Eh
 * total energy  :   -75.0253114 Eh     change       -0.4739203E-06 Eh
 * total energy  :   -75.0253114 Eh     change       -0.6799243E-07 Eh
   *** GEOMETRY OPTIMIZATION CONVERGED AFTER 7 ITERATIONS ***

 final structure:
================
42
 xtb: 6.7.1 (edcfbbe)
C           -4.09797426479228       -4.36982319708239       -0.00270605647242
C           -2.97267837886268       -5.20109109581719       -0.00387250914286
C           -1.70609147534712       -4.66864561772854       -0.00460268051110
C           -1.52975784747968       -3.27746952107622       -0.00416005097615
N           -0.30418783873169       -2.73540887434328       -0.00426396971714
C           -0.16802442049996       -1.42776301285968       -0.00385689549245
C           -1.31565926954020       -0.57998982726068       -0.00370408444945
N           -2.52552117513169       -1.09448553992755       -0.00332437745639
C           -2.68341738930662       -2.42524620236222       -0.00332438407367
C           -3.96131911112332       -3.00268449353834       -0.00249625276504
C           -1.15284990012701        0.85934985869208       -0.00354695912925
N           -2.21724131168239        1.63107116121323       -0.00275071602198
C           -2.07387366024566        2.96348341867047       -0.00198880568816
C           -3.19050996819997        3.81177225587200       -0.00062952108263
C           -3.01833727369097        5.17489103166776        0.00066361821097
C           -1.73579228245754        5.73380119397726        0.00051817000724
C           -0.62014032253091        4.93189376592549       -0.00099882427319
C           -0.75901106266112        3.53647815826776       -0.00225770482669
N            0.31453873078269        2.73437753215970       -0.00343165581130
C            0.15515163999377        1.42935040541451       -0.00395882961137
C            1.32024905278419        0.56868124087196       -0.00416887446957
N            2.52079343555897        1.10459988029825       -0.00456751984080
C            3.60301616686564        0.31422971334796       -0.00322630208292
C            4.89597775357500        0.85711340042960       -0.00342707624863
C            5.99038349207120        0.02644128082018       -0.00085392626719
C            5.83313296135581       -1.36372579365480        0.00193998273132
C            4.58082919152810       -1.92895187511559        0.00175896560762
C            3.44180435514627       -1.11097579504389       -0.00100755064733
N            2.21037775370505       -1.63963350922106       -0.00156631418264
C            1.15988370926321       -0.84908622441861       -0.00327444442466
H           -5.08332015808610       -4.81140068923124       -0.00198506985984
H           -3.10514021838584       -6.27270272744410       -0.00414329019234
H           -0.82677644241517       -5.29322862990459       -0.00541972900484
H           -4.81675914925973       -2.34578235501389       -0.00168069851428
H           -4.17106775112222        3.36254508168004       -0.00050183060523
H           -3.88015299937866        5.82540678150554        0.00185921466980
H           -1.62554198153173        6.80792515412962        0.00164428954227
H            0.37647137814319        5.34428146339098       -0.00113983714885
H            4.99722047274077        1.93091252943661       -0.00543350012953
H            6.98465697507829        0.44753165304215       -0.00086893240156
H            6.70822377583207       -1.99626659059033        0.00423084610819
H            4.43965749567231       -2.99823489408685        0.00375131060283

 projected vibrational frequencies (cm⁻¹)
eigval :       -0.00    -0.00    -0.00     0.00     0.00     0.00
eigval :       36.93    36.95    41.02    60.45    94.64    95.16
eigval :      104.42   104.44   189.48   189.49   206.90   257.73
eigval :      258.50   263.94   269.37   271.64   305.30   305.31
eigval :      336.91   338.29   362.01   418.80   418.84   446.06
eigval :      446.09   457.64   467.84   468.69   501.27   519.61
eigval :      519.63   519.79   552.76   553.63   565.14   586.77
eigval :      586.99   614.46   646.01   646.01   701.87   705.89
eigval :      726.07   726.08   740.51   764.79   765.33   765.34
eigval :      784.05   784.84   818.77   841.22   855.37   855.53
eigval :      860.40   860.93   860.93   901.65   902.33   902.34
eigval :      902.66   920.28   920.35   920.36   958.72   959.21
eigval :     1061.30  1064.60  1065.07  1085.99  1086.63  1134.41
eigval :     1134.66  1135.82  1167.07  1167.48  1168.99  1220.30
eigval :     1221.08  1223.85  1241.96  1242.52  1279.21  1280.30
eigval :     1281.18  1306.00  1315.34  1315.71  1316.25  1335.91
eigval :     1341.08  1341.50  1349.54  1376.74  1378.42  1431.08
eigval :     1433.44  1434.83  1451.85  1451.96  1484.19  1505.04
eigval :     1519.95  1520.27  1529.64  1576.46  1576.50  1578.45
eigval :     3082.75  3082.77  3082.79  3091.13  3091.16  3091.34
eigval :     3103.43  3103.56  3103.60  3105.27  3105.50  3105.90

   temp. (K)  partition function   enthalpy   heat capacity  entropy
                                   cal/mol     cal/K/mol   cal/K/mol   J/K/mol
 298.15  VIB  0.277E+08            11757.637     80.436     69.563
         ROT  0.339E+07              888.752      2.981     32.860
         INT  0.937E+14            12646.389     83.417    102.423
         TR   0.729E+28             1481.254      4.968     43.712
         TOT                       14127.6434    88.3850   146.1348   611.4279

       T/K    H(0)-H(T)+PV         H(T)/Eh          T*S/Eh         G(T)/Eh
   ------------------------------------------------------------------------
    298.15    0.225138E-01    0.314239E+00    0.694333E-01    0.244806E+00
   ------------------------------------------------------------------------

         :::::::::::::::::::::::::::::::::::::::::::::::::::::
         ::                  THERMODYNAMIC                  ::
         :::::::::::::::::::::::::::::::::::::::::::::::::::::
         :: total free energy         -74.780505761721 Eh   ::
         ::.................................................::
         :: total energy              -75.025311454266 Eh   ::
         :: zero point energy           0.291725204962 Eh   ::
         :: G(RRHO) w/o ZPVE           -0.046919512417 Eh   ::
         :: G(RRHO) contrib.            0.244805692545 Eh   ::
         :::::::::::::::::::::::::::::::::::::::::::::::::::::

           -------------------------------------------------
          | TOTAL ENERGY              -75.025311454266 Eh   |
          | TOTAL ENTHALPY            -74.711072416495 Eh   |
          | TOTAL FREE ENERGY         -74.780505761721 Eh   |
          | GRADIENT NORM               0.000082439766 Eh/α |
           -------------------------------------------------

 * finished run on 2025/07/17 at 00:44:50.395
