   * xtb version 6.7.1 (edcfbbe) compiled by 'albert@albert-system' on 2024-07-22

   ID    Z sym.   atoms
    1    6 C      1-4, 6, 7, 9-11, 13-18, 20, 21, 23-28, 30
    2    7 N      5, 8, 12, 19, 22, 29
    3    1 H      31-42

          program call               : xtb data2507/gas/DQP/DQP_gas_T1_crest.xyz --gfn 2 --spinpol --tblite --uhf 2 --ohess vtight --parallel 40 --molden --ceasefiles --namespace data2507/gas/DQP/DQP_gas_T1_finalOpt
 * total energy  :   -75.0252985 Eh     change        0.2764611E-07 Eh
 * total energy  :   -75.0253051 Eh     change       -0.6512204E-05 Eh
 * total energy  :   -75.0253071 Eh     change       -0.2034805E-05 Eh
 * total energy  :   -75.0253079 Eh     change       -0.8140679E-06 Eh
 * total energy  :   -75.0253087 Eh     change       -0.8225627E-06 Eh
 * total energy  :   -75.0253095 Eh     change       -0.7820347E-06 Eh
 * total energy  :   -75.0253103 Eh     change       -0.8008706E-06 Eh
 * total energy  :   -75.0253109 Eh     change       -0.6080917E-06 Eh
 * total energy  :   -75.0253112 Eh     change       -0.3001627E-06 Eh
 * total energy  :   -75.0253114 Eh     change       -0.1498596E-06 Eh
 * total energy  :   -75.0253114 Eh     change       -0.7351294E-07 Eh
   *** GEOMETRY OPTIMIZATION CONVERGED AFTER 11 ITERATIONS ***

 final structure:
================
42
 xtb: 6.7.1 (edcfbbe)
C            0.67200046019829       -5.95289620663863        0.00561892317640
C            2.03440651432923       -5.63471811543898        0.00333764850955
C            2.44983312705876       -4.32509008396156        0.00140559004089
C            1.50466946802408       -3.28916571312420        0.00173427731008
N            1.88630518646858       -2.00451202519014        0.00090141871911
C            0.97869994161955       -1.05337361453833        0.00136936651281
C           -0.41072405157235       -1.37782565414846        0.00192179644291
N           -0.80317235246440       -2.63265090517338        0.00310176582581
C            0.10798962098301       -3.61533862218255        0.00346752349014
C           -0.28053787785428       -4.96276870812033        0.00558032019998
C           -1.40130383339742       -0.32099034830959        0.00168747898224
N           -2.67888929663154       -0.63123631349502        0.00149221092108
C           -3.60073278158379        0.34142743756771        0.00211600654412
C           -4.97040466400729        0.04095620881435        0.00200628107292
C           -5.89691463770139        1.05558187970917        0.00342927037991
C           -5.49127018747848        2.39446646440066        0.00496287762735
C           -4.15744169824166        2.72427497409899        0.00480596944657
C           -3.18483464562300        1.71415730036397        0.00325560309841
N           -1.87819814621551        2.01166369551022        0.00288914215632
C           -0.98758722494306        1.04452203168682        0.00201329261611
C            0.42290857040562        1.37393937180040        0.00194472000531
N            0.79283000121228        2.63561932336813        0.00232456922029
C            2.09614029174877        2.94748518425644        0.00328942304415
C            2.52068072048385        4.28398742149537        0.00403649340128
C            3.86256678676849        4.57907307911974        0.00588440584327
C            4.81934750423476        3.55834717197387        0.00698321280418
C            4.43815051699498        2.23832262630721        0.00597623034665
C            3.07702940187281        1.90105309247556        0.00401214944950
N            2.68155240785223        0.62057447624985        0.00293354389662
C            1.39869971300982        0.33299134822797        0.00188423925232
H            0.36967100430397       -6.98947201491978        0.00739782700761
H            2.76460202724342       -6.43015192928749        0.00324839507508
H            3.49537616455622       -4.06023638079621       -0.00020809889715
H           -1.33522947740034       -5.18842446146379        0.00719387347670
H           -5.26388810993944       -0.99691801942468        0.00094427524424
H           -6.95086734950344        0.82086512622300        0.00348936779541
H           -6.23772984492784        3.17465380659092        0.00630943860406
H           -3.82554686265138        3.75050946660344        0.00590879584461
H            1.76852415789129        5.05701983805844        0.00326777356578
H            4.18627015609617        5.60917503184964        0.00658164051220
H            5.86821227160021        3.81481666124370        0.00867949007080
H            5.16096371978026        1.43779706741757        0.00666397826433

 projected vibrational frequencies (cm⁻¹)
eigval :       -0.00    -0.00    -0.00     0.00     0.00     0.00
eigval :       36.89    36.92    41.04    60.44    94.70    95.03
eigval :      104.42   104.43   189.46   189.49   206.95   257.21
eigval :      257.71   263.92   269.42   271.61   305.30   305.34
eigval :      337.01   338.38   362.00   418.82   418.85   446.12
eigval :      446.13   457.69   468.27   469.13   501.24   519.64
eigval :      519.65   519.82   553.36   554.27   565.14   586.84
eigval :      586.91   614.45   645.99   646.05   701.91   705.90
eigval :      726.02   726.17   740.52   764.82   765.36   765.37
eigval :      784.31   784.58   818.78   841.27   855.45   855.58
eigval :      860.42   860.93   861.00   901.65   902.33   902.39
eigval :      902.69   920.28   920.36   920.39   958.74   959.54
eigval :     1061.43  1063.70  1064.68  1086.33  1086.38  1134.44
eigval :     1134.61  1135.92  1167.19  1168.60  1169.07  1220.80
eigval :     1220.97  1223.93  1242.08  1242.32  1279.11  1280.32
eigval :     1280.95  1305.91  1314.08  1315.39  1315.81  1335.77
eigval :     1339.68  1340.71  1349.54  1377.38  1377.42  1431.11
eigval :     1435.63  1436.45  1451.81  1451.91  1484.16  1504.98
eigval :     1520.03  1520.12  1529.63  1576.50  1576.58  1578.42
eigval :     3082.77  3082.82  3082.85  3091.13  3091.16  3091.34
eigval :     3103.33  3103.50  3103.54  3105.26  3105.53  3105.89

   temp. (K)  partition function   enthalpy   heat capacity  entropy
                                   cal/mol     cal/K/mol   cal/K/mol   J/K/mol
 298.15  VIB  0.277E+08            11757.613     80.431     69.566
         ROT  0.339E+07              888.752      2.981     32.860
         INT  0.940E+14            12646.365     83.412    102.426
         TR   0.729E+28             1481.254      4.968     43.712
         TOT                       14127.6193    88.3804   146.1380   611.4415

       T/K    H(0)-H(T)+PV         H(T)/Eh          T*S/Eh         G(T)/Eh
   ------------------------------------------------------------------------
    298.15    0.225138E-01    0.314242E+00    0.694349E-01    0.244807E+00
   ------------------------------------------------------------------------

         :::::::::::::::::::::::::::::::::::::::::::::::::::::
         ::                  THERMODYNAMIC                  ::
         :::::::::::::::::::::::::::::::::::::::::::::::::::::
         :: total free energy         -74.780504448678 Eh   ::
         ::.................................................::
         :: total energy              -75.025311454987 Eh   ::
         :: zero point energy           0.291728099347 Eh   ::
         :: G(RRHO) w/o ZPVE           -0.046921093038 Eh   ::
         :: G(RRHO) contrib.            0.244807006309 Eh   ::
         :::::::::::::::::::::::::::::::::::::::::::::::::::::

           -------------------------------------------------
          | TOTAL ENERGY              -75.025311454987 Eh   |
          | TOTAL ENTHALPY            -74.711069561236 Eh   |
          | TOTAL FREE ENERGY         -74.780504448678 Eh   |
          | GRADIENT NORM               0.000063564512 Eh/α |
           -------------------------------------------------

 * finished run on 2025/07/17 at 00:46:04.173
