   * xtb version 6.7.1 (edcfbbe) compiled by 'albert@albert-system' on 2024-07-22

   ID    Z sym.   atoms
    1    6 C      1-4, 6, 7, 9-11, 13-18, 20, 21, 23-28, 30
    2    7 N      5, 8, 12, 19, 22, 29
    3    1 H      31-42

          program call               : xtb data2507/gas/DQP/DQP.xyz --gfn 2 --ohess vtight --parallel 40 --molden --ceasefiles --namespace data2507/gas/DQP/DQP_gas_S0_preOpt
          :  Hamiltonian                  GFN2-xTB          :
 * total energy  :   -75.0344340 Eh     change       -0.1551825E-10 Eh
 * total energy  :   -75.0573757 Eh     change       -0.2294168E-01 Eh
 * total energy  :   -75.0621620 Eh     change       -0.4786297E-02 Eh
 * total energy  :   -75.0622955 Eh     change       -0.1334739E-03 Eh
 * total energy  :   -75.0623494 Eh     change       -0.5393659E-04 Eh
 * total energy  :   -75.0623509 Eh     change       -0.1494865E-05 Eh
 * total energy  :   -75.0623510 Eh     change       -0.1431920E-06 Eh
 * total energy  :   -75.0623509 Eh     change        0.1366382E-06 Eh
 * total energy  :   -75.0623510 Eh     change       -0.1427602E-06 Eh
 * total energy  :   -75.0623509 Eh     change        0.1451569E-06 Eh
 * total energy  :   -75.0623509 Eh     change        0.1586922E-06 Eh
 * total energy  :   -75.0623510 Eh     change       -0.1588307E-06 Eh
 * total energy  :   -75.0623509 Eh     change        0.1679049E-06 Eh
 * total energy  :   -75.0623510 Eh     change       -0.1690432E-06 Eh
 * total energy  :   -75.0623509 Eh     change        0.1763834E-06 Eh
 * total energy  :   -75.0623510 Eh     change       -0.1764198E-06 Eh
 * total energy  :   -75.0623509 Eh     change        0.1828236E-06 Eh
 * total energy  :   -75.0623510 Eh     change       -0.1828679E-06 Eh
 * total energy  :   -75.0623510 Eh     change       -0.2939586E-08 Eh
   *** GEOMETRY OPTIMIZATION CONVERGED AFTER 22 ITERATIONS ***

 final structure:
================
42
 xtb: 6.7.1 (edcfbbe)
C           -5.80514318242383       -1.40033765119846       -0.00000062260321
C           -5.31559983191764       -2.72121870182088        0.00000105256730
C           -3.97308653006744       -2.97256537907224        0.00000168086606
C           -3.06078635428587       -1.89596828821434        0.00000057447744
N           -1.74219417701504       -2.13722713295104        0.00000088646743
C           -0.92645892615579       -1.10594774050438       -0.00000007227371
C           -1.42344956914224        0.23502752031280       -0.00000100953512
N           -2.71425676209200        0.48558269384079       -0.00000152384702
C           -3.55712443453330       -0.55675374453888       -0.00000095495517
C           -4.95070677962761       -0.33476007922413       -0.00000161789023
C           -0.49454934141797        1.35531088649220       -0.00000094112812
N           -0.97979586054364        2.57739800889208       -0.00000081211090
C           -0.11156348872392        3.59870290468360       -0.00000028780793
C           -0.58777384478951        4.92707658717980       -0.00000062965060
C            0.30115542156644        5.96405386913254        0.00000042646143
C            1.68984364456625        5.72757032197910        0.00000177332219
C            2.18544268561369        4.45481790969248        0.00000196204791
C            1.29639936835035        3.35893703019178        0.00000068794301
N            1.77765539638452        2.10782402154698        0.00000020922019
C            0.91526462840041        1.11522974982335       -0.00000062977290
C            1.42100833895529       -0.24936305101143       -0.00000075448473
N            2.72199007863679       -0.44017082717418       -0.00000107614419
C            3.17234993353665       -1.70273453753491       -0.00000070052158
C            4.56086046519085       -1.95451112509588       -0.00000131698489
C            5.01444447564468       -3.24283509849851       -0.00000076231472
C            4.11529959195386       -4.32723259445087        0.00000007384501
C            2.76526415141488       -4.12005774575916        0.00000059770958
C            2.26072515893770       -2.80218319136236        0.00000018938298
N            0.93660148401906       -2.59340661858263        0.00000041409231
C            0.50818498845412       -1.35025724657843       -0.00000020730344
H           -6.87308127801919       -1.23836422809843       -0.00000080128225
H           -6.02002792975191       -3.54006437259219        0.00000242210545
H           -3.57468377934355       -3.97490127965337        0.00000314492464
H           -5.30177493829574        0.68511890682675       -0.00000284606647
H           -1.65502356897834        5.08321762706419       -0.00000185240987
H           -0.05577167345018        6.98352933201455       -0.00000022316663
H            2.36408580633348        6.57144511847189        0.00000263698897
H            3.24421788220047        4.24891236409744        0.00000289146039
H            5.22970743537615       -1.10831627204351       -0.00000194038196
H            6.07579966975220       -3.44346494294719       -0.00000063966288
H            4.50899553823040       -5.33308083098928        0.00000121091223
H            2.05755710705650       -4.93403117234563        0.00000138750400

          :  Hamiltonian                  GFN2-xTB          :
         :: gradient norm              0.000019004049 Eh/a0 ::
         :: HOMO-LUMO gap              1.078183710055 eV    ::
         :: SCC energy               -76.340577706200 Eh    ::
         :: -> dispersion             -0.057236792254 Eh    ::
         :: repulsion energy           1.278226658856 Eh    ::

    * Orbital Energies and Occupations

         #    Occupation            Energy/Eh            Energy/eV
      -------------------------------------------------------------
         1        2.0000           -0.6835498             -18.6003
       ...           ...                  ...                  ...
        57        2.0000           -0.4398968             -11.9702
        58        2.0000           -0.4375602             -11.9066
        59        2.0000           -0.4213923             -11.4667
        60        2.0000           -0.4213923             -11.4667
        61        2.0000           -0.4160490             -11.3213
        62        2.0000           -0.4160489             -11.3213
        63        2.0000           -0.4109405             -11.1823
        64        2.0000           -0.4054447             -11.0327
        65        2.0000           -0.4026405             -10.9564
        66        2.0000           -0.4026405             -10.9564
        67        2.0000           -0.3537848              -9.6270
        68        2.0000           -0.3537847              -9.6270
        69        2.0000           -0.3516994              -9.5702 (HOMO)
        70                         -0.3120769              -8.4920 (LUMO)
        71                         -0.3055326              -8.3140
        72                         -0.3055326              -8.3140
        73                         -0.2479648              -6.7475
        74                         -0.2479648              -6.7475
        75                         -0.2296489              -6.2491
        76                         -0.2195184              -5.9734
        77                         -0.2144070              -5.8343
        78                         -0.2144070              -5.8343
        79                         -0.1744414              -4.7468
        80                         -0.1744414              -4.7468
       ...                                ...                  ...
       132                          0.7242553              19.7080
      -------------------------------------------------------------
                  HL-Gap            0.0396225 Eh            1.0782 eV

     #   Z          covCN         q      C6AA      α(0)
     1   6 C        2.916    -0.024    28.601     8.770
     2   6 C        2.916    -0.024    28.601     8.770
     3   6 C        2.916    -0.036    28.885     8.813
     4   6 C        2.970     0.084    26.117     8.383
     5   7 N        1.849    -0.206    26.321     7.604
     6   6 C        2.962     0.075    26.313     8.414
     7   6 C        2.962     0.075    26.313     8.414
     8   7 N        1.849    -0.206    26.321     7.604
     9   6 C        2.970     0.084    26.117     8.383
    10   6 C        2.916    -0.036    28.885     8.813
    11   6 C        2.962     0.075    26.313     8.414
    12   7 N        1.849    -0.206    26.321     7.604
    13   6 C        2.970     0.084    26.117     8.383
    14   6 C        2.916    -0.036    28.885     8.813
    15   6 C        2.916    -0.024    28.601     8.770
    16   6 C        2.916    -0.024    28.601     8.770
    17   6 C        2.916    -0.036    28.885     8.813
    18   6 C        2.970     0.084    26.117     8.383
    19   7 N        1.849    -0.206    26.321     7.604
    20   6 C        2.962     0.075    26.313     8.414
    21   6 C        2.962     0.075    26.313     8.414
    22   7 N        1.849    -0.206    26.321     7.604
    23   6 C        2.970     0.084    26.117     8.383
    24   6 C        2.916    -0.036    28.885     8.813
    25   6 C        2.916    -0.024    28.601     8.770
    26   6 C        2.916    -0.024    28.601     8.770
    27   6 C        2.916    -0.036    28.885     8.813
    28   6 C        2.970     0.084    26.117     8.383
    29   7 N        1.849    -0.206    26.321     7.604
    30   6 C        2.962     0.075    26.313     8.414
    31   1 H        0.926     0.045     2.383     2.414
    32   1 H        0.926     0.045     2.383     2.414
    33   1 H        0.926     0.061     2.186     2.312
    34   1 H        0.926     0.061     2.186     2.312
    35   1 H        0.926     0.061     2.186     2.312
    36   1 H        0.926     0.045     2.383     2.414
    37   1 H        0.926     0.045     2.383     2.414
    38   1 H        0.926     0.061     2.186     2.312
    39   1 H        0.926     0.061     2.186     2.312
    40   1 H        0.926     0.045     2.383     2.414
    41   1 H        0.926     0.045     2.383     2.414
    42   1 H        0.926     0.061     2.186     2.312

molecular dipole:
                 x           y           z       tot (Debye)
 q only:        0.000       0.000       0.000
   full:        0.000       0.000       0.000       0.000

 projected vibrational frequencies (cm⁻¹)
eigval :       -0.00    -0.00    -0.00     0.00     0.00     0.00
eigval :       31.86    32.33    41.15    52.05    95.86    95.88
eigval :       98.33   100.54   184.72   185.04   203.06   269.93
eigval :      270.89   273.38   280.42   280.42   310.89   310.92
eigval :      358.96   400.82   400.99   439.93   440.48   445.09
eigval :      445.59   445.60   508.13   518.72   518.85   521.01
eigval :      521.01   524.62   570.21   581.39   581.42   622.88
eigval :      624.18   624.19   667.16   667.20   707.27   728.27
eigval :      759.80   760.04   765.66   773.62   773.89   782.71
eigval :      809.18   809.21   826.91   837.66   867.57   867.57
eigval :      879.49   879.69   879.84   917.15   917.18   917.20
eigval :      926.91   931.43   931.47   931.49  1051.18  1051.21
eigval :     1051.90  1085.35  1085.38  1141.91  1141.93  1141.95
eigval :     1165.22  1167.54  1167.56  1219.15  1219.17  1224.45
eigval :     1248.96  1251.13  1251.17  1292.61  1292.62  1323.23
eigval :     1329.10  1338.37  1338.40  1347.05  1347.06  1370.17
eigval :     1396.32  1403.01  1403.04  1440.99  1464.31  1464.34
eigval :     1483.75  1489.32  1489.36  1493.19  1493.20  1537.16
eigval :     1541.60  1544.18  1544.19  1603.54  1605.02  1605.05
eigval :     3079.84  3079.86  3079.89  3088.54  3088.58  3088.69
eigval :     3104.83  3105.03  3105.09  3106.37  3106.44  3106.59

   temp. (K)  partition function   enthalpy   heat capacity  entropy
                                   cal/mol     cal/K/mol   cal/K/mol   J/K/mol
 298.15  VIB  0.295E+08            11410.384     77.586     67.794
         ROT  0.336E+07              888.752      2.981     32.846
         INT  0.992E+14            12299.136     80.567    100.640
         TR   0.729E+28             1481.254      4.968     43.712
         TOT                       13780.3902    85.5349   144.3519   603.9683

       T/K    H(0)-H(T)+PV         H(T)/Eh          T*S/Eh         G(T)/Eh
   ------------------------------------------------------------------------
    298.15    0.219604E-01    0.319289E+00    0.685862E-01    0.250703E+00
   ------------------------------------------------------------------------

         :::::::::::::::::::::::::::::::::::::::::::::::::::::
         ::                  THERMODYNAMIC                  ::
         :::::::::::::::::::::::::::::::::::::::::::::::::::::
         :: total free energy         -74.811647822677 Eh   ::
         ::.................................................::
         :: total energy              -75.062351047342 Eh   ::
         :: zero point energy           0.297329012833 Eh   ::
         :: G(RRHO) w/o ZPVE           -0.046625788167 Eh   ::
         :: G(RRHO) contrib.            0.250703224666 Eh   ::
         :::::::::::::::::::::::::::::::::::::::::::::::::::::

           -------------------------------------------------
          | TOTAL ENERGY              -75.062351047342 Eh   |
          | TOTAL ENTHALPY            -74.743061584862 Eh   |
          | TOTAL FREE ENERGY         -74.811647822677 Eh   |
          | GRADIENT NORM               0.000018996941 Eh/α |
          | HOMO-LUMO GAP               1.078183699398 eV   |
           -------------------------------------------------

 * finished run on 2025/07/17 at 00:43:58.503
