   * xtb version 6.7.1 (edcfbbe) compiled by 'albert@albert-system' on 2024-07-22

   ID    Z sym.   atoms
    1    6 C      1-21, 23-41, 43-52
    2    8 O      22
    3    7 N      42
    4    1 H      53-93

          program call               : xtb data2507/gas/SIR-B/SIR-B_gas_S0_finalOpt.xtbopt.xyz --gfn 2 --spinpol --tblite --uhf 2 --ohess vtight --parallel 40 --molden --ceasefiles --namespace data2507/gas/SIR-B/SIR-B_gas_T1_preOpt
 * total energy  :  -134.9485498 Eh     change       -0.9216109E-08 Eh
 * total energy  :  -134.9515527 Eh     change       -0.3002839E-02 Eh
 * total energy  :  -134.9523099 Eh     change       -0.7571793E-03 Eh
 * total energy  :  -134.9523617 Eh     change       -0.5187592E-04 Eh
 * total energy  :  -134.9523952 Eh     change       -0.3346279E-04 Eh
 * total energy  :  -134.9524223 Eh     change       -0.2711638E-04 Eh
 * total energy  :  -134.9524492 Eh     change       -0.2687520E-04 Eh
 * total energy  :  -134.9524683 Eh     change       -0.1911340E-04 Eh
 * total energy  :  -134.9524823 Eh     change       -0.1398078E-04 Eh
 * total energy  :  -134.9524895 Eh     change       -0.7224041E-05 Eh
 * total energy  :  -134.9525216 Eh     change       -0.1062449E-05 Eh
 * total energy  :  -134.9525223 Eh     change       -0.7202218E-06 Eh
 * total energy  :  -134.9525228 Eh     change       -0.5389670E-06 Eh
 * total energy  :  -134.9525234 Eh     change       -0.5471893E-06 Eh
 * total energy  :  -134.9525235 Eh     change       -0.1510444E-06 Eh
 * total energy  :  -134.9525238 Eh     change       -0.2768531E-06 Eh
 * total energy  :  -134.9525237 Eh     change        0.9658567E-07 Eh
 * total energy  :  -134.9525239 Eh     change       -0.2183866E-06 Eh
 * total energy  :  -134.9525240 Eh     change       -0.8797835E-07 Eh
   *** GEOMETRY OPTIMIZATION CONVERGED AFTER 48 ITERATIONS ***

 final structure:
================
93
 xtb: 6.7.1 (edcfbbe)
C            1.06184016652384        0.16565805818038        4.95608986236439
C            0.35843624722028        0.41121284912877        3.65940955545233
C           -0.89689655865062        1.01344408231555        3.61932521677993
C           -1.53020408982579        1.25585570217049        2.42103044789303
C           -0.92155642967710        0.90631680886934        1.21028627442373
C            0.33371420834091        0.28114217156910        1.23888473705097
C            0.94831043793564        0.04743279834859        2.45795590105092
C            0.98756155009044       -0.22947097138774       -0.02018402290616
C            2.45434407545928        0.14561215993843       -0.02082915394921
C            2.77287394011256        1.49361472883881       -0.01182382839761
C            4.08739819484892        1.92316164898528       -0.01136571760733
C            5.12918880543740        0.99075609695363       -0.01741934681657
C            6.53305307094331        1.42929706964837       -0.01949750471094
C            7.48222422953941        0.77639331185223        0.76329898853592
C            8.80041531048422        1.19245745133082        0.76346386383151
C            9.19338832169105        2.26362403633027       -0.02146985419861
C            8.25849635100930        2.91755376980526       -0.80630818021392
C            6.93880397542495        2.50595670800837       -0.80444675542746
C            4.81955391335906       -0.35596702181666       -0.02537135912002
C            3.48655383107155       -0.79916896320612       -0.02966691105850
C            3.23863318392557       -2.22958190605212       -0.04189130704413
O            4.19049638848190       -3.05796015783433       -0.05022461335429
C            1.86158366663807       -2.64206880321154       -0.04259908872824
C            1.57201442757184       -4.02507932050473       -0.05648032035919
C            0.28142891568660       -4.47833784803142       -0.05366341646636
C           -0.79793040041427       -3.58325562652954       -0.03123786949079
C           -2.18625706273061       -4.03612051085278       -0.01612179711834
C           -3.16354016861911       -3.32388419537343        0.68492178467665
C           -4.47982950444682       -3.74100740736034        0.68832378644823
C           -4.85426722299374       -4.88059173325327       -0.00526171241096
C           -3.89541059204883       -5.60130727503488       -0.69906816700916
C           -2.57851797430186       -5.18589862691720       -0.70550729655158
C           -0.50573597530813       -2.21727033426088       -0.02364513757439
C            0.78750327104689       -1.74280357286515       -0.03152234284912
C            0.32774835685041        0.31770224951548       -1.25948989660400
C            0.93952811814396        0.12940079017159       -2.48885895054948
C            0.35604142080764        0.55734264994860       -3.67082305991864
C            1.02562539935184        0.32571259074012       -4.98787090626518
C           -0.88546869984416        1.18798334169064       -3.60193932238430
C           -1.51548609528485        1.38437123451790       -2.39467743169107
C           -0.92025045759709        0.95309848652320       -1.20313458610084
N           -1.54868626199072        1.16732657767139        0.00769360487428
C           -2.89040334485146        1.64425401271917        0.01111077450275
C           -3.16413693078941        2.99451980538641        0.18226612674699
C           -4.47275497495318        3.43434991720135        0.18497870845044
C           -5.54003475899408        2.55307984817437        0.01890702001848
C           -6.96110977089494        3.09193320879881        0.03048459388886
C           -7.11736132913179        4.10930352710739       -1.10872333152824
C           -7.22445654496424        3.77524814565042        1.37993785302655
C           -8.00985053910609        1.99345844465293       -0.16203959739159
C           -5.24394298129273        1.20590647872661       -0.15281058562931
C           -3.93671808428570        0.75121293845041       -0.15813196924345
H            1.82693088958370        0.92663423312637        5.11374490855268
H            0.36668928893638        0.20275970600450        5.79115094284148
H            1.55583668095401       -0.80345760239950        4.94668258153202
H           -1.38559870857252        1.29347982874981        4.54098422134340
H           -2.50524239851597        1.71839797898919        2.41493197874416
H            1.91203076219392       -0.44068918816941        2.46427169246529
H            1.96982811698299        2.21898628473827       -0.00106578125452
H            4.30705863270581        2.97959804002325        0.01690786079814
H            7.17812788003154       -0.05183680051345        1.38625930997933
H            9.52526162335526        0.67970419528406        1.37920813556627
H           10.22409573506135        2.58682071800682       -0.02259023271753
H            8.56027097197454        3.75098738212997       -1.42460268830814
H            6.21693529372007        3.00946076104118       -1.43141634606521
H            5.59621847231493       -1.10520780961133       -0.05188606186328
H            2.41027537152856       -4.70574185774289       -0.06115919114457
H            0.09335765201244       -5.54203793985923       -0.03798701671652
H           -2.87949992541868       -2.45176222736155        1.25772465638227
H           -5.21923685422015       -3.17858015476877        1.24173216978421
H           -5.88403960322961       -5.20643824074235       -0.00189776280650
H           -4.17941874842597       -6.49140682194256       -1.24234732920517
H           -1.84452284185901       -5.74367372812703       -1.26834573059377
H           -1.32365764389518       -1.51240592270525       -0.03884526215929
H            1.89740040453905       -0.36943899398397       -2.51592901799078
H            0.64643890460805       -0.59152569418383       -5.44005547702775
H            0.82479533542900        1.14501351617656       -5.67484837197899
H            2.10016043437053        0.22010114406200       -4.86250866500333
H           -1.36083529811928        1.53032910031268       -4.50940751277805
H           -2.47354326239125        1.88049487695985       -2.36271216477288
H           -2.34939445183441        3.69176402619540        0.31190303772631
H           -4.65723037046221        4.48901226595995        0.31910529092217
H           -6.44078587141230        4.95067041883470       -0.98762174524701
H           -8.13505653687493        4.49235616721359       -1.12903299600081
H           -6.90779050255860        3.63726230925107       -2.06640251236200
H           -7.09049424299203        3.06562643321188        2.19379586895091
H           -8.24473235717898        4.15031863829237        1.41463432533366
H           -6.55024801306700        4.61163058166821        1.54185187114856
H           -7.88341176771737        1.49326291843465       -1.11936964176541
H           -7.95800883771522        1.25704363022826        0.63648545164895
H           -9.00337702889655        2.43623420042972       -0.14466973563595
H           -6.03017147486015        0.48189018945646       -0.28604028700758
H           -3.72932593696663       -0.30006319460857       -0.29637006109319

 projected vibrational frequencies (cm⁻¹)
eigval :       -0.00    -0.00    -0.00     0.00     0.00     0.00
eigval :      -13.59     6.61    10.43    15.27    17.69    18.06
eigval :       26.48    28.54    36.72    41.46    43.49    48.02
eigval :       53.04    57.08    64.79    79.45    83.60    87.78
eigval :      102.38   114.22   123.36   125.08   136.13   139.60
eigval :      174.10   178.05   181.41   193.97   197.98   209.11
eigval :      215.21   226.52   242.05   249.31   255.20   259.19
eigval :      285.41   290.75   299.32   316.15   318.31   325.25
eigval :      327.13   337.56   348.74   357.62   361.24   363.10
eigval :      372.13   374.63   379.91   388.00   395.38   402.54
eigval :      404.73   422.78   424.78   435.07   437.65   445.45
eigval :      453.91   465.37   476.12   482.79   499.28   505.54
eigval :      525.00   527.51   534.19   544.50   568.27   570.88
eigval :      579.30   584.26   590.01   594.54   604.41   608.54
eigval :      612.93   615.95   625.58   633.80   656.60   662.99
eigval :      668.19   671.31   678.98   680.78   689.20   691.24
eigval :      703.82   737.41   740.69   754.74   756.50   776.67
eigval :      804.56   810.63   811.60   813.39   816.98   821.72
eigval :      863.15   867.71   868.18   870.99   876.13   878.66
eigval :      880.48   883.53   884.47   894.23   895.14   902.41
eigval :      905.74   911.40   912.99   915.51   917.38   922.55
eigval :      927.59   928.31   929.23   929.73   930.72   931.68
eigval :      947.45   959.42   960.97   963.26   964.12   982.69
eigval :      986.96   994.98  1014.26  1020.05  1026.60  1027.29
eigval :     1031.14  1035.34  1035.37  1078.29  1080.34  1082.62
eigval :     1087.59  1091.85  1121.11  1122.07  1124.70  1138.16
eigval :     1141.81  1146.09  1146.77  1161.65  1179.99  1182.46
eigval :     1182.78  1183.45  1196.35  1198.27  1200.43  1201.09
eigval :     1204.61  1216.52  1217.60  1227.80  1233.54  1234.04
eigval :     1248.76  1259.37  1261.04  1269.34  1273.79  1279.75
eigval :     1281.57  1285.33  1286.72  1290.29  1297.93  1312.01
eigval :     1318.40  1322.39  1326.34  1330.32  1340.74  1341.77
eigval :     1343.33  1345.34  1356.99  1397.20  1401.71  1402.24
eigval :     1406.45  1406.58  1409.48  1422.01  1425.27  1426.98
eigval :     1429.44  1432.96  1440.44  1449.66  1457.20  1466.18
eigval :     1475.75  1476.22  1478.54  1478.93  1484.00  1484.24
eigval :     1488.07  1489.14  1491.04  1492.72  1496.17  1501.14
eigval :     1505.37  1514.12  1518.16  1527.76  1546.03  1546.67
eigval :     1559.03  1568.95  1569.48  1570.90  1582.22  1587.75
eigval :     1596.63  1598.18  1599.03  1602.16  2995.63  2997.15
eigval :     3027.17  3028.00  3030.74  3032.29  3033.57  3035.34
eigval :     3036.00  3038.14  3042.49  3043.36  3046.48  3047.77
eigval :     3051.23  3054.48  3058.57  3067.63  3067.98  3071.32
eigval :     3072.24  3075.00  3079.66  3081.58  3081.93  3082.85
eigval :     3082.99  3084.15  3085.29  3088.20  3088.44  3088.84
eigval :     3089.19  3089.21  3091.50  3091.83  3097.05  3097.19
eigval :     3097.37  3099.12  3122.94

   temp. (K)  partition function   enthalpy   heat capacity  entropy
                                   cal/mol     cal/K/mol   cal/K/mol   J/K/mol
 298.15  VIB  0.104E+24            27198.637    164.595    172.156
         ROT  0.930E+08              888.752      2.981     39.444
         INT  0.966E+31            28087.390    167.576    211.600
         TR   0.168E+29             1481.254      4.968     45.375
         TOT                       29568.6436   172.5441   256.9758  1075.1866

       T/K    H(0)-H(T)+PV         H(T)/Eh          T*S/Eh         G(T)/Eh
   ------------------------------------------------------------------------
    298.15    0.471206E-01    0.787581E+00    0.122097E+00    0.665484E+00
   ------------------------------------------------------------------------

         :::::::::::::::::::::::::::::::::::::::::::::::::::::
         ::                  THERMODYNAMIC                  ::
         :::::::::::::::::::::::::::::::::::::::::::::::::::::
         :: total free energy        -134.287040039849 Eh   ::
         ::.................................................::
         :: total energy             -134.952524022897 Eh   ::
         :: zero point energy           0.740460823790 Eh   ::
         :: G(RRHO) w/o ZPVE           -0.074976840742 Eh   ::
         :: G(RRHO) contrib.            0.665483983048 Eh   ::
         :::::::::::::::::::::::::::::::::::::::::::::::::::::

           -------------------------------------------------
          | TOTAL ENERGY             -134.952524022897 Eh   |
          | TOTAL ENTHALPY           -134.164942566239 Eh   |
          | TOTAL FREE ENERGY        -134.287040039849 Eh   |
          | GRADIENT NORM               0.000057223512 Eh/α |
           -------------------------------------------------

 * finished run on 2025/09/11 at 21:05:55.829
