   * xtb version 6.7.1 (edcfbbe) compiled by 'albert@albert-system' on 2024-07-22

   ID    Z sym.   atoms
    1    6 C      1-21, 23-41, 43-52
    2    8 O      22
    3    7 N      42
    4    1 H      53-93

          program call               : xtb data2507/gas/SIR-B/SIR-B.xyz --gfn 2 --ohess vtight --parallel 40 --molden --ceasefiles --namespace data2507/gas/SIR-B/SIR-B_gas_S0_preOpt
          :  Hamiltonian                  GFN2-xTB          :
 * total energy  :  -135.0019042 Eh     change       -0.3028362E-08 Eh
 * total energy  :  -135.0180087 Eh     change       -0.1610445E-01 Eh
 * total energy  :  -135.0238537 Eh     change       -0.5845089E-02 Eh
 * total energy  :  -135.0254565 Eh     change       -0.1602739E-02 Eh
 * total energy  :  -135.0262144 Eh     change       -0.7579009E-03 Eh
 * total energy  :  -135.0264991 Eh     change       -0.2847118E-03 Eh
 * total energy  :  -135.0266623 Eh     change       -0.1632161E-03 Eh
 * total energy  :  -135.0268171 Eh     change       -0.1547627E-03 Eh
 * total energy  :  -135.0269329 Eh     change       -0.1158632E-03 Eh
 * total energy  :  -135.0270465 Eh     change       -0.1135207E-03 Eh
 * total energy  :  -135.0275298 Eh     change       -0.3238895E-06 Eh
 * total energy  :  -135.0275302 Eh     change       -0.3916826E-06 Eh
 * total energy  :  -135.0275309 Eh     change       -0.6137381E-06 Eh
 * total energy  :  -135.0275318 Eh     change       -0.9107684E-06 Eh
 * total energy  :  -135.0275328 Eh     change       -0.1025102E-05 Eh
 * total energy  :  -135.0275336 Eh     change       -0.8426424E-06 Eh
 * total energy  :  -135.0275343 Eh     change       -0.6545302E-06 Eh
 * total energy  :  -135.0275349 Eh     change       -0.6209891E-06 Eh
 * total energy  :  -135.0275349 Eh     change       -0.6297086E-08 Eh
   *** GEOMETRY OPTIMIZATION CONVERGED AFTER 152 ITERATIONS ***

 final structure:
================
93
 xtb: 6.7.1 (edcfbbe)
C            1.41453285911314       -0.34923058629097        4.98806021326464
C            0.71535916828667       -0.07803376517245        3.69103008509884
C           -0.56697182681827        0.45282180705904        3.65588432763468
C           -1.21065090218911        0.68044324751064        2.45720819364741
C           -0.59108273207348        0.37900524803881        1.24245106637742
C            0.70093472315938       -0.14961163327441        1.26792065160327
C            1.32895551955406       -0.37138904440165        2.48213438665326
C            1.44229956324756       -0.51650311234092       -0.00495856021949
C            2.77317423473463        0.19083512039760        0.00426496902070
C            2.78291206590201        1.58169132290789       -0.00313530886541
C            3.96796908141777        2.28616946513050        0.00903012167039
C            5.19475695395094        1.61904952737756        0.03523358588670
C            6.46089034535750        2.36612841905869        0.05056073214058
C            7.51962086924080        1.94892830563068        0.85382623323362
C            8.70892325266629        2.65317990630891        0.87057497343335
C            8.86226736659149        3.78094251958235        0.08148190682461
C            7.81748222621817        4.20174784387638       -0.72408399835463
C            6.62500680002833        3.50253432423560       -0.73788221308659
C            5.18565118150424        0.23345803026364        0.04778392024694
C            3.99151044890217       -0.48658197327537        0.03065186618600
C            4.07021740031473       -1.96217378346828        0.04059719052805
O            5.13842558806937       -2.54833558927508        0.09618141678579
C            2.78683832703102       -2.68444722554278       -0.02268805691853
C            2.81013920302134       -4.08159420510871       -0.06514865347008
C            1.64533514424462       -4.80881006465870       -0.13161390003625
C            0.41112073515849       -4.15414959540518       -0.15508441178378
C           -0.84584644462182       -4.90954382576897       -0.24002825266709
C           -1.01962237539999       -6.08936610889951        0.48002751009681
C           -2.20526893922914       -6.79541146856147        0.39744154220989
C           -3.23348291575194       -6.33839541642240       -0.40989651874939
C           -3.07034849631561       -5.16795435139292       -1.13227193092600
C           -1.88818231705478       -4.45671534799801       -1.04677262454552
C            0.39100576066466       -2.76615530204739       -0.10549380042248
C            1.56028121519318       -2.02192426552101       -0.04425039908379
C            0.67917384915178       -0.09284838872909       -1.24638088639552
C            1.28279337622949       -0.27197867756674       -2.47924413123616
C            0.63681617141644        0.04161666833281       -3.66699967605893
C            1.32568970810921       -0.16696574175336       -4.98112422882731
C           -0.65634132765362        0.53873053247221       -3.58997373913775
C           -1.27626802878314        0.72572758075072       -2.37102004638646
C           -0.61795647445579        0.42120917379035       -1.17791441600865
N           -1.24417799756104        0.61329592968068        0.04282985792697
C           -2.57818987119301        1.10636170293431        0.06847479882962
C           -2.83052218385008        2.46592001137485       -0.05747160002234
C           -4.12963963006646        2.93193434442079       -0.03017268277724
C           -5.21175027469127        2.06737857093860        0.12474201925274
C           -6.62186280419865        2.63506855369207        0.15135191168068
C           -7.69091274714809        1.55324507710606        0.32666379317858
C           -6.89162165254797        3.36467151086064       -1.17231790417163
C           -6.74090827957255        3.62001213898686        1.32306581175295
C           -4.94027520046049        0.71010371597246        0.24998220343622
C           -3.64187579064819        0.23111323848753        0.22150879061398
H            0.98700360024592        0.24635273980741        5.79117251673041
H            1.31495018724785       -1.40201253371403        5.25520814996464
H            2.47598340519101       -0.12434596108898        4.90753626143529
H           -1.07250088938438        0.69591821058781        4.57935077524301
H           -2.20529355432175        1.09986785230912        2.45740646511568
H            2.32751573984404       -0.78646460495291        2.48104023990523
H            1.84147114513009        2.11257497853677       -0.01620330647185
H            3.94848169075501        3.36622809781076        0.01925808963716
H            7.40022093510432        1.07771275897436        1.48096320282724
H            9.52016252633583        2.32190802780600        1.50245844660068
H            9.79270433072711        4.32924247504502        0.09335261174537
H            7.93356967038647        5.07775702148590       -1.34589624104100
H            5.81953499454749        3.82564439284674       -1.38166653220130
H            6.10914000786951       -0.32710835115098        0.05118067702910
H            3.77362225119746       -4.56972551160127       -0.05053278918128
H            1.68108258325461       -5.88664590036851       -0.18844990959306
H           -0.22731161996817       -6.44166106517324        1.12427272197936
H           -2.32863233973383       -7.70596489723310        0.96561458534297
H           -4.15796106954821       -6.89278461926832       -0.47665103855776
H           -3.86747209032910       -4.80965924882708       -1.76763853239826
H           -1.75870585700173       -3.55469909713286       -1.62786414544554
H           -0.55876939851388       -2.25143333574209       -0.10027726858747
H            2.28619019610329       -0.67410609015399       -2.51185301366537
H            0.68172976759398        0.12270796061374       -5.80771668306789
H            2.24030368800040        0.42318957965831       -5.02855893853440
H            1.60058073635710       -1.21406136416218       -5.10417986733273
H           -1.19278749626435        0.78380059066699       -4.49537141584500
H           -2.28486728169318        1.10904949909229       -2.33988717362157
H           -2.00423806367413        3.15126986727775       -0.17789693990969
H           -4.29524210529967        3.99377517613531       -0.13012242583377
H           -7.66594069237587        0.84047205684049       -0.49437796506002
H           -8.67526668264505        2.01661723576868        0.33806371835905
H           -7.56040388518608        1.02152911562175        1.26635678866974
H           -7.90470324344541        3.76072233357884       -1.18084424771800
H           -6.78271403339790        2.67801917265619       -2.00935054754517
H           -6.20268629858206        4.19191503214106       -1.31827787871933
H           -6.52639766903580        3.11469544292452        2.26253969094208
H           -6.04825268009202        4.45022320771885        1.21697410377517
H           -7.75002815107266        4.02330231894083        1.37104535753091
H           -5.74003637820022       -0.00153352626040        0.37173480764391
H           -3.45036090235572       -0.82749040224535        0.32304851077016

          :  Hamiltonian                  GFN2-xTB          :
         :: gradient norm              0.000053180728 Eh/a0 ::
         :: HOMO-LUMO gap              1.622449128542 eV    ::
         :: SCC energy              -137.492741075751 Eh    ::
         :: -> dispersion             -0.130348998616 Eh    ::
         :: repulsion energy           2.465206163163 Eh    ::

    * Orbital Energies and Occupations

         #    Occupation            Energy/Eh            Energy/eV
      -------------------------------------------------------------
         1        2.0000           -0.6879271             -18.7194
       ...           ...                  ...                  ...
       114        2.0000           -0.4076336             -11.0923
       115        2.0000           -0.4071131             -11.0781
       116        2.0000           -0.4047200             -11.0130
       117        2.0000           -0.4036214             -10.9831
       118        2.0000           -0.4016552             -10.9296
       119        2.0000           -0.3999988             -10.8845
       120        2.0000           -0.3943750             -10.7315
       121        2.0000           -0.3931794             -10.6990
       122        2.0000           -0.3923958             -10.6776
       123        2.0000           -0.3891860             -10.5903
       124        2.0000           -0.3819807             -10.3942
       125        2.0000           -0.3752092             -10.2100
       126        2.0000           -0.3425068              -9.3201 (HOMO)
       127                         -0.2828829              -7.6976 (LUMO)
       128                         -0.2474884              -6.7345
       129                         -0.2389604              -6.5024
       130                         -0.2335198              -6.3544
       131                         -0.2319943              -6.3129
       132                         -0.2286301              -6.2213
       133                         -0.2249370              -6.1208
       134                         -0.2197654              -5.9801
       135                         -0.2195233              -5.9735
       136                         -0.2192389              -5.9658
       137                         -0.2171445              -5.9088
       ...                                ...                  ...
       249                          0.7146942              19.4478
      -------------------------------------------------------------
                  HL-Gap            0.0596239 Eh            1.6224 eV

     #   Z          covCN         q      C6AA      α(0)
     1   6 C        3.757    -0.107    22.598     6.777
     2   6 C        2.964     0.005    27.904     8.665
     3   6 C        2.925    -0.042    29.046     8.838
     4   6 C        2.922    -0.060    29.481     8.904
     5   6 C        2.926     0.056    26.747     8.481
     6   6 C        2.990    -0.012    28.309     8.728
     7   6 C        2.932    -0.046    29.137     8.852
     8   6 C        3.929     0.015    20.259     6.397
     9   6 C        2.987     0.014    27.697     8.633
    10   6 C        2.922    -0.033    28.830     8.805
    11   6 C        2.924    -0.029    28.735     8.791
    12   6 C        2.974     0.009    27.816     8.651
    13   6 C        2.977     0.011    27.775     8.645
    14   6 C        2.925    -0.033    28.814     8.803
    15   6 C        2.919    -0.029    28.717     8.788
    16   6 C        2.920    -0.031    28.764     8.795
    17   6 C        2.919    -0.030    28.740     8.791
    18   6 C        2.925    -0.034    28.837     8.806
    19   6 C        2.932    -0.026    28.659     8.780
    20   6 C        2.974    -0.022    28.546     8.764
    21   6 C        2.832     0.223    23.310     7.912
    22   8 O        0.858    -0.393    21.537     6.222
    23   6 C        2.976    -0.023    28.569     8.768
    24   6 C        2.924    -0.021    28.535     8.760
    25   6 C        2.921    -0.037    28.908     8.817
    26   6 C        2.977     0.015    27.668     8.628
    27   6 C        2.978     0.011    27.769     8.644
    28   6 C        2.925    -0.032    28.806     8.802
    29   6 C        2.918    -0.029    28.724     8.789
    30   6 C        2.920    -0.030    28.752     8.793
    31   6 C        2.918    -0.029    28.730     8.790
    32   6 C        2.925    -0.032    28.808     8.802
    33   6 C        2.931    -0.039    28.970     8.827
    34   6 C        2.989     0.015    27.660     8.627
    35   6 C        2.990    -0.012    28.315     8.729
    36   6 C        2.932    -0.046    29.138     8.853
    37   6 C        2.964     0.005    27.915     8.666
    38   6 C        3.757    -0.107    22.596     6.777
    39   6 C        2.925    -0.042    29.049     8.839
    40   6 C        2.922    -0.060    29.502     8.907
    41   6 C        2.926     0.056    26.750     8.482
    42   7 N        2.753    -0.074    22.671     7.072
    43   6 C        2.928     0.064    26.566     8.453
    44   6 C        2.920    -0.040    29.006     8.832
    45   6 C        2.928    -0.035    28.859     8.810
    46   6 C        2.973     0.009    27.801     8.649
    47   6 C        3.903     0.026    20.082     6.370
    48   6 C        3.761    -0.109    22.623     6.780
    49   6 C        3.762    -0.106    22.575     6.773
    50   6 C        3.762    -0.106    22.575     6.773
    51   6 C        2.925    -0.039    28.961     8.825
    52   6 C        2.921    -0.040    29.003     8.832
    53   1 H        0.925     0.040     2.443     2.444
    54   1 H        0.924     0.045     2.384     2.415
    55   1 H        0.925     0.042     2.416     2.431
    56   1 H        0.926     0.029     2.596     2.520
    57   1 H        0.926     0.027     2.633     2.538
    58   1 H        0.925     0.027     2.636     2.539
    59   1 H        0.926     0.031     2.579     2.511
    60   1 H        0.926     0.036     2.499     2.472
    61   1 H        0.926     0.036     2.502     2.474
    62   1 H        0.926     0.031     2.569     2.506
    63   1 H        0.926     0.030     2.592     2.518
    64   1 H        0.926     0.029     2.599     2.521
    65   1 H        0.926     0.030     2.587     2.515
    66   1 H        0.926     0.061     2.182     2.310
    67   1 H        0.926     0.060     2.194     2.316
    68   1 H        0.926     0.037     2.482     2.464
    69   1 H        0.926     0.034     2.533     2.489
    70   1 H        0.926     0.031     2.566     2.505
    71   1 H        0.926     0.031     2.576     2.510
    72   1 H        0.926     0.030     2.582     2.513
    73   1 H        0.926     0.032     2.558     2.501
    74   1 H        0.926     0.033     2.542     2.493
    75   1 H        0.925     0.026     2.640     2.541
    76   1 H        0.925     0.040     2.455     2.450
    77   1 H        0.925     0.044     2.399     2.422
    78   1 H        0.925     0.044     2.399     2.422
    79   1 H        0.926     0.029     2.605     2.524
    80   1 H        0.926     0.027     2.635     2.538
    81   1 H        0.926     0.037     2.487     2.466
    82   1 H        0.926     0.036     2.498     2.472
    83   1 H        0.925     0.037     2.492     2.469
    84   1 H        0.925     0.038     2.470     2.457
    85   1 H        0.925     0.037     2.491     2.468
    86   1 H        0.925     0.040     2.455     2.450
    87   1 H        0.925     0.035     2.521     2.483
    88   1 H        0.925     0.037     2.484     2.465
    89   1 H        0.925     0.035     2.521     2.483
    90   1 H        0.925     0.037     2.484     2.465
    91   1 H        0.925     0.040     2.455     2.450
    92   1 H        0.926     0.043     2.407     2.426
    93   1 H        0.926     0.036     2.497     2.471

molecular dipole:
                 x           y           z       tot (Debye)
 q only:       -2.087       0.888       0.004
   full:       -2.215       0.965      -0.012       6.141

 projected vibrational frequencies (cm⁻¹)
eigval :       -0.00    -0.00    -0.00     0.00     0.00     0.00
eigval :       -2.49     5.04     7.22     9.39    10.55    17.25
eigval :       26.28    28.17    30.86    38.99    41.22    46.98
eigval :       50.92    51.58    60.98    77.27    82.93    86.98
eigval :      102.31   114.42   121.96   124.53   127.95   135.72
eigval :      174.39   179.92   182.26   192.26   196.37   207.63
eigval :      214.56   226.03   233.73   252.87   255.09   264.74
eigval :      285.55   290.46   300.09   315.89   317.26   326.93
eigval :      334.39   340.99   350.91   361.17   361.89   365.68
eigval :      372.17   373.65   380.61   392.52   399.16   404.40
eigval :      405.88   423.95   426.74   438.46   440.78   451.42
eigval :      452.48   465.48   470.28   487.47   502.38   513.46
eigval :      523.92   537.95   545.73   546.09   577.67   578.37
eigval :      581.80   588.82   595.46   602.99   612.44   620.01
eigval :      628.25   629.50   636.16   657.91   664.96   667.26
eigval :      673.62   675.96   677.23   691.89   703.67   705.13
eigval :      736.72   739.60   745.49   758.71   763.19   787.55
eigval :      808.81   813.37   814.59   818.47   837.02   844.15
eigval :      868.77   871.40   876.99   877.27   882.01   883.29
eigval :      884.61   887.41   895.69   904.79   905.16   910.59
eigval :      911.69   915.20   923.31   924.15   926.39   927.10
eigval :      929.07   931.10   931.40   932.27   932.60   933.23
eigval :      959.24   960.99   962.06   963.52   963.83   986.98
eigval :      992.40   996.00  1014.76  1021.43  1031.56  1033.48
eigval :     1033.79  1035.37  1035.75  1081.59  1083.55  1087.21
eigval :     1091.12  1097.73  1122.04  1122.54  1138.41  1140.20
eigval :     1144.16  1145.29  1146.23  1178.54  1182.56  1183.27
eigval :     1186.02  1195.88  1200.06  1201.33  1201.91  1202.22
eigval :     1219.47  1226.68  1228.06  1234.06  1237.37  1247.73
eigval :     1255.66  1257.03  1267.07  1272.74  1275.08  1280.77
eigval :     1281.81  1282.87  1291.96  1301.32  1305.05  1312.18
eigval :     1318.50  1319.10  1329.12  1334.19  1339.43  1341.21
eigval :     1343.32  1365.76  1393.77  1397.69  1401.35  1405.04
eigval :     1405.69  1406.74  1409.86  1422.30  1425.85  1430.25
eigval :     1433.91  1434.38  1459.16  1463.13  1481.85  1483.58
eigval :     1485.53  1486.80  1488.71  1491.76  1492.76  1493.79
eigval :     1494.78  1497.28  1502.11  1505.75  1509.63  1514.67
eigval :     1519.19  1555.53  1566.26  1568.50  1570.43  1581.79
eigval :     1582.29  1584.14  1588.30  1591.29  1600.76  1601.79
eigval :     1603.04  1606.12  1614.39  1675.27  2993.17  3002.87
eigval :     3016.14  3024.95  3026.60  3028.57  3031.07  3031.65
eigval :     3033.70  3036.92  3038.91  3040.35  3043.16  3047.75
eigval :     3051.37  3070.11  3070.21  3072.23  3072.60  3072.66
eigval :     3073.44  3074.15  3075.16  3076.13  3079.64  3079.88
eigval :     3080.85  3081.26  3082.03  3085.32  3085.49  3086.66
eigval :     3086.98  3090.60  3092.55  3092.87  3093.45  3093.89
eigval :     3095.22  3095.85  3117.56

   temp. (K)  partition function   enthalpy   heat capacity  entropy
                                   cal/mol     cal/K/mol   cal/K/mol   J/K/mol
 298.15  VIB  0.457E+25            27134.552    162.887    175.105
         ROT  0.974E+08              888.752      2.981     39.536
         INT  0.445E+33            28023.304    165.868    214.641
         TR   0.168E+29             1481.254      4.968     45.375
         TOT                       29504.5582   170.8364   260.0169  1087.9105

       T/K    H(0)-H(T)+PV         H(T)/Eh          T*S/Eh         G(T)/Eh
   ------------------------------------------------------------------------
    298.15    0.470185E-01    0.790458E+00    0.123542E+00    0.666915E+00
   ------------------------------------------------------------------------

         :::::::::::::::::::::::::::::::::::::::::::::::::::::
         ::                  THERMODYNAMIC                  ::
         :::::::::::::::::::::::::::::::::::::::::::::::::::::
         :: total free energy        -134.360619701939 Eh   ::
         ::.................................................::
         :: total energy             -135.027534912585 Eh   ::
         :: zero point energy           0.743439100838 Eh   ::
         :: G(RRHO) w/o ZPVE           -0.076523890193 Eh   ::
         :: G(RRHO) contrib.            0.666915210645 Eh   ::
         :::::::::::::::::::::::::::::::::::::::::::::::::::::

           -------------------------------------------------
          | TOTAL ENERGY             -135.027534912585 Eh   |
          | TOTAL ENTHALPY           -134.237077305472 Eh   |
          | TOTAL FREE ENERGY        -134.360619701939 Eh   |
          | GRADIENT NORM               0.000053233171 Eh/α |
          | HOMO-LUMO GAP               1.622449759186 eV   |
           -------------------------------------------------

 * finished run on 2025/09/11 at 20:44:40.436
