   * xtb version 6.7.1 (edcfbbe) compiled by 'albert@albert-system' on 2024-07-22

   ID    Z sym.   atoms
    1    6 C      1-21, 23-41, 43-52
    2    8 O      22
    3    7 N      42
    4    1 H      53-93

          program call               : xtb data2507/gas/SIR-B/SIR-B_gas_S0_crest.xyz --gfn 2 --ohess vtight --parallel 40 --molden --ceasefiles --namespace data2507/gas/SIR-B/SIR-B_gas_S0_finalOpt
          :  Hamiltonian                  GFN2-xTB          :
 * total energy  :  -135.0277229 Eh     change       -0.4852978E-08 Eh
 * total energy  :  -135.0277244 Eh     change       -0.1484869E-05 Eh
 * total energy  :  -135.0277257 Eh     change       -0.1332818E-05 Eh
 * total energy  :  -135.0277296 Eh     change       -0.3825918E-05 Eh
 * total energy  :  -135.0277317 Eh     change       -0.2175020E-05 Eh
 * total energy  :  -135.0277326 Eh     change       -0.8429407E-06 Eh
 * total energy  :  -135.0277332 Eh     change       -0.5945510E-06 Eh
 * total energy  :  -135.0277338 Eh     change       -0.6374967E-06 Eh
 * total energy  :  -135.0277344 Eh     change       -0.5828677E-06 Eh
 * total energy  :  -135.0277351 Eh     change       -0.7530111E-06 Eh
 * total energy  :  -135.0277478 Eh     change       -0.4045931E-06 Eh
 * total energy  :  -135.0277488 Eh     change       -0.9990852E-06 Eh
 * total energy  :  -135.0277496 Eh     change       -0.7702065E-06 Eh
 * total energy  :  -135.0277500 Eh     change       -0.3808246E-06 Eh
 * total energy  :  -135.0277504 Eh     change       -0.3969232E-06 Eh
 * total energy  :  -135.0277508 Eh     change       -0.3927354E-06 Eh
 * total energy  :  -135.0277510 Eh     change       -0.2391522E-06 Eh
 * total energy  :  -135.0277511 Eh     change       -0.1220394E-06 Eh
 * total energy  :  -135.0277512 Eh     change       -0.4153765E-07 Eh
   *** GEOMETRY OPTIMIZATION CONVERGED AFTER 33 ITERATIONS ***

 final structure:
================
93
 xtb: 6.7.1 (edcfbbe)
C            1.09458024012161        0.16106459059361        4.95653831493042
C            0.37858677519661        0.40102950740058        3.66258717030780
C           -0.87031594199238        1.00474874026223        3.62339632782265
C           -1.51139988213249        1.23729549115759        2.42366988306040
C           -0.91943765746162        0.87382202687927        1.21276302210369
C            0.32866943999627        0.24631849650097        1.24359014750569
C            0.95470649401569        0.02307356711328        2.45803455596857
C            0.98338384920727       -0.28169993833191       -0.02212184706698
C            2.43208754543818        0.12953619825183       -0.02750510317107
C            2.73375330189681        1.48641963003388       -0.08040555083906
C            4.04041159195695        1.92629847256757       -0.08604513799114
C            5.09977286839682        1.01757513149024       -0.03242478339146
C            6.49473997191326        1.48172126984058       -0.03786578211244
C            7.44558641842465        0.87678673291756        0.78080270570826
C            8.75664651069387        1.31470124209907        0.77727764048349
C            9.14039817900662        2.35907029879944       -0.04739040809110
C            8.20387195015631        2.96474593449089       -0.86817654990847
C            6.89083268420934        2.53231949507468       -0.86212455278534
C            4.79979438938791       -0.33399208993452        0.02760183813185
C            3.48105886543519       -0.78751755781877        0.02942274322993
C            3.24851230926869       -2.24552873077290        0.09649228320720
O            4.17044476867954       -3.03965641352130        0.18078105948261
C            1.84202499397371       -2.68414835229550        0.05640196690898
C            1.56968547082973       -4.05515360492218        0.08860139671427
C            0.27763065260029       -4.52462769232291        0.05669173020720
C           -0.79054142815960       -3.62674208786257       -0.01024845717636
C           -2.18344045767448       -4.09224900161928       -0.03678532047381
C           -3.16816577507375       -3.40901030255940        0.67510797432330
C           -4.48232158011732       -3.83607525362835        0.64406830439268
C           -4.83560327176127       -4.94981725262734       -0.09975063011762
C           -3.86498755026245       -5.63697873063788       -0.80936718003088
C           -2.54913537578980       -5.21409413268811       -0.77710675423694
C           -0.51590660073440       -2.26587129216639       -0.04763508540316
C            0.78281651748857       -1.78015212768639       -0.01240913904867
C            0.31152815941936        0.26592467290419       -1.26714848535226
C            0.92555748470385        0.07531916338214       -2.49378267977728
C            0.34977046154277        0.51109450983177       -3.67818174898615
C            1.02731654152778        0.26977843201046       -4.99259549216152
C           -0.88008273216760        1.15166430554772       -3.60651339999505
C           -1.50939868359348        1.35053306491328       -2.39519178959407
C           -0.92710860605813        0.90768038473701       -1.20599581298936
N           -1.56160069279031        1.11783598450805        0.00857825401141
C           -2.89090716693083        1.62231508650262        0.01300217186403
C           -3.14181347685401        2.97178381985663        0.22422196279978
C           -4.44063399891896        3.43939141292380        0.22951772752288
C           -5.52416785871851        2.58718922617701        0.02361096900555
C           -6.93399359582531        3.15589978961039        0.03990152464680
C           -7.05943803486874        4.20942085970021       -1.06977336230609
C           -7.19551859323443        3.80476201534853        1.40658016282840
C           -8.00471099840963        2.08671887984404       -0.19317442450026
C           -5.25404200954945        1.24102899507785       -0.19109687635627
C           -3.95609396535677        0.76028926905082       -0.19626298505217
H            1.88462986773869        0.90063610988553        5.09149398082771
H            0.41062562555817        0.23521061276256        5.79852112124072
H            1.55676766955407       -0.82417325869721        4.96296179342729
H           -1.35466861335757        1.29722260817499        4.54391393345293
H           -2.48595958146653        1.70115405183796        2.42267213977429
H            1.91648949300915       -0.47084922046519        2.46431361037289
H            1.92417465000507        2.20174365461004       -0.11664558481336
H            4.24810901047725        2.98609206900140       -0.11163532662992
H            7.14842263979481        0.07072514507285        1.43542392124567
H            9.48288635759079        0.84008281501259        1.42105291318107
H           10.16553002672119        2.69903978313662       -0.05127059264869
H            8.49890210664771        3.77650142327222       -1.51742447110842
H            6.16852799815409        2.99734273524316       -1.51763229616620
H            5.58487400366577       -1.07558364689911        0.05492916019309
H            2.40871176979834       -4.73313407898561        0.14523157075544
H            0.08439788138302       -5.58598762455814        0.10584448854760
H           -2.89470959692494       -2.55307335805373        1.27590114214561
H           -5.23417303383004       -3.29958916321350        1.20490525811725
H           -5.86298000602967       -5.28194961580458       -0.12487074222971
H           -4.13552981697012       -6.50547317227575       -1.39215192035689
H           -1.79977839144077       -5.74306704647749       -1.34762456021715
H           -1.33608795242486       -1.56835915463977       -0.12211885691867
H            1.87989328461666       -0.43228810830053       -2.52281178593379
H            0.77527222698231       -0.72296437593398       -5.36776067487836
H            0.70973699067241        1.00090201347582       -5.73245360792583
H            2.10849469532008        0.32195053885453       -4.88461497373882
H           -1.35441404293998        1.50429345423685       -4.51100179607913
H           -2.46234496110105        1.85687293556618       -2.36440690029180
H           -2.31458049412369        3.64773239757851        0.38500111417109
H           -4.60494366112928        4.49303454763052        0.39643439424593
H           -6.36385395971079        5.03029326536413       -0.91927632424938
H           -8.06788314816406        4.61691843471422       -1.08596256367067
H           -6.85307156633315        3.76073948080918       -2.03934145577518
H           -7.08188141976456        3.06906019436699        2.20018232378750
H           -8.20838275415388        4.19961987364299        1.44496318304232
H           -6.50558330918798        4.62182657619452        1.59797595236899
H           -7.88204100547538        1.61391695366059       -1.16485216637907
H           -7.97292244857584        1.32472650762445        0.58215780005041
H           -8.98906036179069        2.54957350851382       -0.16785980338805
H           -6.05414130311414        0.53889171219901       -0.35753006103987
H           -3.76893638093735       -0.29018965033016       -0.36838124735232

          :  Hamiltonian                  GFN2-xTB          :
         :: gradient norm              0.000083310771 Eh/a0 ::
         :: HOMO-LUMO gap              1.621650338364 eV    ::
         :: SCC energy              -137.492717802946 Eh    ::
         :: -> dispersion             -0.131390534750 Eh    ::
         :: repulsion energy           2.464966626185 Eh    ::

    * Orbital Energies and Occupations

         #    Occupation            Energy/Eh            Energy/eV
      -------------------------------------------------------------
         1        2.0000           -0.6879403             -18.7198
       ...           ...                  ...                  ...
       114        2.0000           -0.4077710             -11.0960
       115        2.0000           -0.4076153             -11.0918
       116        2.0000           -0.4050770             -11.0227
       117        2.0000           -0.4034291             -10.9779
       118        2.0000           -0.4016545             -10.9296
       119        2.0000           -0.3997409             -10.8775
       120        2.0000           -0.3949626             -10.7475
       121        2.0000           -0.3929128             -10.6917
       122        2.0000           -0.3927117             -10.6862
       123        2.0000           -0.3893609             -10.5950
       124        2.0000           -0.3820111             -10.3951
       125        2.0000           -0.3752732             -10.2117
       126        2.0000           -0.3426855              -9.3249 (HOMO)
       127                         -0.2830909              -7.7033 (LUMO)
       128                         -0.2474436              -6.7333
       129                         -0.2392696              -6.5109
       130                         -0.2334294              -6.3519
       131                         -0.2319364              -6.3113
       132                         -0.2295089              -6.2453
       133                         -0.2255870              -6.1385
       134                         -0.2197232              -5.9790
       135                         -0.2194808              -5.9724
       136                         -0.2190606              -5.9609
       137                         -0.2168620              -5.9011
       ...                                ...                  ...
       249                          0.7146291              19.4460
      -------------------------------------------------------------
                  HL-Gap            0.0595946 Eh            1.6217 eV

     #   Z          covCN         q      C6AA      α(0)
     1   6 C        3.757    -0.107    22.597     6.777
     2   6 C        2.964     0.005    27.908     8.665
     3   6 C        2.925    -0.042    29.053     8.839
     4   6 C        2.922    -0.060    29.502     8.907
     5   6 C        2.925     0.056    26.747     8.481
     6   6 C        2.991    -0.012    28.308     8.728
     7   6 C        2.931    -0.046    29.145     8.854
     8   6 C        3.929     0.015    20.258     6.396
     9   6 C        2.985     0.014    27.693     8.632
    10   6 C        2.922    -0.033    28.821     8.804
    11   6 C        2.924    -0.029    28.734     8.791
    12   6 C        2.974     0.009    27.815     8.651
    13   6 C        2.977     0.011    27.777     8.645
    14   6 C        2.925    -0.033    28.815     8.803
    15   6 C        2.919    -0.029    28.717     8.788
    16   6 C        2.920    -0.031    28.764     8.795
    17   6 C        2.918    -0.030    28.740     8.791
    18   6 C        2.925    -0.034    28.838     8.807
    19   6 C        2.932    -0.026    28.663     8.780
    20   6 C        2.974    -0.022    28.550     8.765
    21   6 C        2.832     0.223    23.310     7.912
    22   8 O        0.858    -0.393    21.533     6.222
    23   6 C        2.976    -0.023    28.568     8.767
    24   6 C        2.924    -0.021    28.532     8.760
    25   6 C        2.921    -0.036    28.908     8.817
    26   6 C        2.977     0.015    27.676     8.629
    27   6 C        2.978     0.011    27.770     8.644
    28   6 C        2.925    -0.032    28.810     8.802
    29   6 C        2.918    -0.029    28.731     8.790
    30   6 C        2.920    -0.030    28.753     8.793
    31   6 C        2.918    -0.029    28.722     8.788
    32   6 C        2.925    -0.032    28.803     8.801
    33   6 C        2.932    -0.040    28.998     8.831
    34   6 C        2.989     0.015    27.664     8.628
    35   6 C        2.989    -0.012    28.316     8.729
    36   6 C        2.931    -0.046    29.134     8.852
    37   6 C        2.964     0.005    27.904     8.665
    38   6 C        3.757    -0.107    22.598     6.778
    39   6 C        2.925    -0.042    29.048     8.839
    40   6 C        2.922    -0.059    29.473     8.903
    41   6 C        2.927     0.056    26.748     8.482
    42   7 N        2.753    -0.075    22.692     7.075
    43   6 C        2.927     0.064    26.570     8.453
    44   6 C        2.920    -0.041    29.015     8.833
    45   6 C        2.928    -0.035    28.865     8.811
    46   6 C        2.973     0.009    27.804     8.649
    47   6 C        3.903     0.026    20.082     6.370
    48   6 C        3.762    -0.106    22.574     6.773
    49   6 C        3.762    -0.106    22.574     6.773
    50   6 C        3.761    -0.109    22.621     6.780
    51   6 C        2.925    -0.039    28.958     8.825
    52   6 C        2.921    -0.040    29.004     8.832
    53   1 H        0.924     0.045     2.387     2.416
    54   1 H        0.925     0.040     2.447     2.446
    55   1 H        0.925     0.043     2.410     2.428
    56   1 H        0.926     0.029     2.599     2.521
    57   1 H        0.926     0.027     2.623     2.533
    58   1 H        0.925     0.027     2.632     2.537
    59   1 H        0.926     0.031     2.572     2.508
    60   1 H        0.926     0.036     2.498     2.471
    61   1 H        0.926     0.036     2.501     2.473
    62   1 H        0.926     0.031     2.569     2.507
    63   1 H        0.926     0.030     2.593     2.518
    64   1 H        0.926     0.029     2.599     2.521
    65   1 H        0.926     0.030     2.586     2.515
    66   1 H        0.926     0.061     2.184     2.311
    67   1 H        0.926     0.061     2.193     2.316
    68   1 H        0.926     0.037     2.483     2.464
    69   1 H        0.926     0.032     2.561     2.502
    70   1 H        0.926     0.030     2.586     2.515
    71   1 H        0.926     0.031     2.578     2.511
    72   1 H        0.926     0.031     2.566     2.505
    73   1 H        0.926     0.034     2.533     2.489
    74   1 H        0.926     0.035     2.520     2.482
    75   1 H        0.925     0.027     2.636     2.539
    76   1 H        0.924     0.045     2.386     2.415
    77   1 H        0.925     0.041     2.439     2.442
    78   1 H        0.925     0.042     2.424     2.435
    79   1 H        0.926     0.029     2.596     2.520
    80   1 H        0.926     0.027     2.636     2.539
    81   1 H        0.926     0.038     2.477     2.461
    82   1 H        0.926     0.036     2.502     2.474
    83   1 H        0.925     0.037     2.485     2.465
    84   1 H        0.925     0.040     2.455     2.450
    85   1 H        0.925     0.035     2.521     2.483
    86   1 H        0.925     0.035     2.522     2.483
    87   1 H        0.925     0.039     2.456     2.451
    88   1 H        0.925     0.037     2.484     2.465
    89   1 H        0.925     0.037     2.491     2.468
    90   1 H        0.925     0.037     2.493     2.469
    91   1 H        0.925     0.038     2.470     2.458
    92   1 H        0.926     0.043     2.410     2.427
    93   1 H        0.926     0.036     2.507     2.476

molecular dipole:
                 x           y           z       tot (Debye)
 q only:       -1.912       1.166      -0.077
   full:       -2.022       1.272      -0.096       6.075

 projected vibrational frequencies (cm⁻¹)
eigval :       -0.00    -0.00    -0.00    -0.00    -0.00     0.00
eigval :        5.32     9.66    14.32    15.61    17.27    17.40
eigval :       26.17    28.45    32.33    39.81    42.34    47.89
eigval :       52.01    54.30    62.43    77.47    84.82    87.10
eigval :      102.24   114.92   122.19   124.66   127.86   136.35
eigval :      174.50   179.34   182.29   192.73   197.12   207.79
eigval :      214.51   225.85   240.69   251.75   255.76   259.94
eigval :      285.74   289.27   300.70   315.86   323.98   326.31
eigval :      333.46   340.07   350.79   361.32   362.47   365.32
eigval :      372.12   373.60   381.27   393.61   398.70   404.85
eigval :      407.56   423.60   426.93   438.96   440.34   449.31
eigval :      453.33   467.92   469.70   483.08   507.12   512.63
eigval :      523.71   537.08   545.41   546.65   577.68   578.51
eigval :      582.08   588.67   595.22   603.37   612.51   620.31
eigval :      626.78   629.29   636.45   657.66   663.18   667.21
eigval :      675.17   677.05   677.91   692.16   702.87   704.75
eigval :      736.58   739.51   745.79   758.79   763.35   787.79
eigval :      808.23   813.44   815.50   819.32   837.08   843.65
eigval :      868.86   872.40   876.42   877.32   881.93   883.00
eigval :      883.71   885.06   896.09   905.02   905.55   910.72
eigval :      911.86   916.24   923.68   924.62   926.42   927.01
eigval :      930.04   931.10   931.36   932.33   932.65   934.28
eigval :      959.26   961.00   962.50   963.69   963.84   987.02
eigval :      992.16   996.15  1014.76  1021.10  1030.76  1033.37
eigval :     1034.01  1035.36  1035.76  1081.73  1083.77  1087.23
eigval :     1092.23  1097.54  1122.07  1122.65  1136.58  1140.35
eigval :     1143.55  1145.77  1146.63  1177.85  1182.52  1183.16
eigval :     1185.69  1195.45  1199.64  1200.60  1201.98  1202.46
eigval :     1219.42  1227.87  1228.11  1234.16  1236.98  1249.72
eigval :     1255.83  1258.30  1267.93  1273.13  1275.33  1280.27
eigval :     1281.85  1283.25  1292.09  1301.43  1305.39  1312.48
eigval :     1318.50  1319.09  1328.99  1334.28  1338.98  1341.08
eigval :     1342.86  1364.46  1393.68  1397.67  1401.27  1405.16
eigval :     1405.45  1406.72  1409.87  1422.21  1426.28  1430.24
eigval :     1433.86  1434.39  1459.39  1463.31  1482.87  1483.92
eigval :     1485.54  1486.25  1488.66  1491.77  1492.89  1493.01
eigval :     1493.97  1497.39  1502.08  1505.49  1508.80  1514.60
eigval :     1519.23  1555.33  1565.95  1567.99  1570.25  1581.60
eigval :     1582.08  1583.94  1588.24  1591.23  1600.73  1601.79
eigval :     1602.91  1605.81  1614.09  1675.28  2992.14  2994.82
eigval :     3024.91  3026.56  3027.45  3028.54  3031.63  3033.49
eigval :     3033.68  3036.94  3037.15  3040.34  3040.61  3047.68
eigval :     3051.31  3069.17  3070.11  3072.40  3073.10  3073.59
eigval :     3074.11  3074.56  3076.09  3076.39  3076.95  3079.42
eigval :     3080.78  3080.84  3082.00  3085.44  3085.85  3087.02
eigval :     3090.74  3092.59  3092.93  3093.09  3093.74  3094.36
eigval :     3096.75  3100.41  3117.49

   temp. (K)  partition function   enthalpy   heat capacity  entropy
                                   cal/mol     cal/K/mol   cal/K/mol   J/K/mol
 298.15  VIB  0.173E+24            27071.088    163.074    171.910
         ROT  0.935E+08              888.752      2.981     39.454
         INT  0.162E+32            27959.840    166.055    211.363
         TR   0.168E+29             1481.254      4.968     45.375
         TOT                       29441.0943   171.0235   256.7389  1074.1954

       T/K    H(0)-H(T)+PV         H(T)/Eh          T*S/Eh         G(T)/Eh
   ------------------------------------------------------------------------
    298.15    0.469174E-01    0.790502E+00    0.121985E+00    0.668517E+00
   ------------------------------------------------------------------------

         :::::::::::::::::::::::::::::::::::::::::::::::::::::
         ::                  THERMODYNAMIC                  ::
         :::::::::::::::::::::::::::::::::::::::::::::::::::::
         :: total free energy        -134.359234260859 Eh   ::
         ::.................................................::
         :: total energy             -135.027751176758 Eh   ::
         :: zero point energy           0.743584461629 Eh   ::
         :: G(RRHO) w/o ZPVE           -0.075067545730 Eh   ::
         :: G(RRHO) contrib.            0.668516915899 Eh   ::
         :::::::::::::::::::::::::::::::::::::::::::::::::::::

           -------------------------------------------------
          | TOTAL ENERGY             -135.027751176758 Eh   |
          | TOTAL ENTHALPY           -134.237249344965 Eh   |
          | TOTAL FREE ENERGY        -134.359234260859 Eh   |
          | GRADIENT NORM               0.000083382151 Eh/α |
          | HOMO-LUMO GAP               1.621652117295 eV   |
           -------------------------------------------------

 * finished run on 2025/09/11 at 21:04:58.704
