   * xtb version 6.7.1 (edcfbbe) compiled by 'albert@albert-system' on 2024-07-22

   ID    Z sym.   atoms
    1    6 C      1-21, 23-41, 43-52
    2    8 O      22
    3    7 N      42
    4    1 H      53-93

          program call               : xtb data2507/gas/SIR-B/SIR-B_gas_T1_crest.xyz --gfn 2 --spinpol --tblite --uhf 2 --ohess vtight --parallel 40 --molden --ceasefiles --namespace data2507/gas/SIR-B/SIR-B_gas_T1_finalOpt
 * total energy  :  -134.9524445 Eh     change        0.2071417E-07 Eh
 * total energy  :  -134.9524904 Eh     change       -0.4591202E-04 Eh
 * total energy  :  -134.9525084 Eh     change       -0.1803031E-04 Eh
 * total energy  :  -134.9525108 Eh     change       -0.2382040E-05 Eh
 * total energy  :  -134.9525129 Eh     change       -0.2109832E-05 Eh
 * total energy  :  -134.9525157 Eh     change       -0.2724355E-05 Eh
 * total energy  :  -134.9525179 Eh     change       -0.2283601E-05 Eh
 * total energy  :  -134.9525195 Eh     change       -0.1522613E-05 Eh
 * total energy  :  -134.9525205 Eh     change       -0.9941998E-06 Eh
 * total energy  :  -134.9525213 Eh     change       -0.8050918E-06 Eh
 * total energy  :  -134.9525233 Eh     change       -0.3439488E-06 Eh
 * total energy  :  -134.9525239 Eh     change       -0.6060003E-06 Eh
 * total energy  :  -134.9525245 Eh     change       -0.5824827E-06 Eh
 * total energy  :  -134.9525251 Eh     change       -0.6373223E-06 Eh
 * total energy  :  -134.9525257 Eh     change       -0.5520696E-06 Eh
 * total energy  :  -134.9525262 Eh     change       -0.5046530E-06 Eh
 * total energy  :  -134.9525267 Eh     change       -0.5370302E-06 Eh
 * total energy  :  -134.9525272 Eh     change       -0.5056652E-06 Eh
 * total energy  :  -134.9525272 Eh     change       -0.9744525E-08 Eh
   *** GEOMETRY OPTIMIZATION CONVERGED AFTER 22 ITERATIONS ***

 final structure:
================
93
 xtb: 6.7.1 (edcfbbe)
C            1.02061091506586        0.12583958261765        4.98952253566749
C            0.34672921696694        0.38456073696906        3.67975961029508
C           -0.91407591612348        0.98015153182798        3.63934804570579
C           -1.54205089127991        1.23247689341645        2.44201923068568
C           -0.92404193974998        0.90049990683403        1.22985508491488
C            0.33248158124698        0.27986460252383        1.25874500299430
C            0.94342595354406        0.03609848800165        2.47959553341853
C            0.99230699321844       -0.21996356809160       -0.00132255361383
C            2.46139153229509        0.14549703623023        0.01031717265186
C            2.78828433408460        1.49129023615906        0.03780010698210
C            4.10547213023091        1.91244291334363        0.04649325222419
C            5.14129557721542        0.97362356655482        0.03027691455715
C            6.54785593120341        1.40346117600994        0.03337792272426
C            7.49228864337340        0.73914209959907        0.81217009885279
C            8.81302248186820        1.14711980382134        0.81610292030634
C            9.21316063306611        2.22108245419125        0.03864047325143
C            8.28294153259067        2.88616633521321       -0.74238449972271
C            6.96068223182665        2.48293592328088       -0.74393453457852
C            4.82339944119156       -0.37095126839899        0.00586301523695
C            3.48764987651740       -0.80559570173348       -0.00698221760288
C            3.23084308517368       -2.23440386403267       -0.03708855506130
O            4.17784928479281       -3.06809104389610       -0.05175499110689
C            1.85134832632931       -2.63791205240636       -0.04842592766793
C            1.55295764573935       -4.01881744977271       -0.08085483171395
C            0.25962594300467       -4.46399694195186       -0.08994148313825
C           -0.81428044112698       -3.56243023980473       -0.06171089296378
C           -2.20589678965291       -4.00509486243282       -0.06119017133328
C           -3.18352077443122       -3.29170266157497        0.63842507901540
C           -4.50334556925702       -3.69723975140879        0.62560735475370
C           -4.88126443884740       -4.82668828174901       -0.08251648573389
C           -3.92216407460216       -5.54910931205734       -0.77425029058579
C           -2.60180786990584       -5.14493586164246       -0.76497942380277
C           -0.51315196306466       -2.19860491272362       -0.03528292080791
C            0.78288864623243       -1.73212172555115       -0.03100618837286
C            0.34286603359745        0.34466719592367       -1.23828149558470
C            0.96450203714170        0.17420641617159       -2.46574125097898
C            0.39028668361398        0.61938409987036       -3.64534548996743
C            1.06750223141880        0.41196583814773       -4.96255580919106
C           -0.85128371195128        1.25088554334327       -3.57664951483625
C           -1.49076047341608        1.42925552651331       -2.37192428909353
C           -0.90585292818135        0.97799921437948       -1.18247002538622
N           -1.54494989765250        1.17339332205469        0.02633371775934
C           -2.89326035525973        1.63031723645493        0.02342565829663
C           -3.19285972542848        2.96709286072444        0.24897764227334
C           -4.50844725729585        3.38574082776682        0.24440879761588
C           -5.55747620675995        2.49653702515758        0.01605898502524
C           -6.98729071146118        3.01178785897810        0.02247964214976
C           -7.13565927532487        4.08599118899664       -1.06441314171351
C           -7.29188827996057        3.61770663557358        1.39993472004627
C           -8.01263967750142        1.90881861801365       -0.25269883082557
C           -5.23570483030193        1.16326265155850       -0.20956584057725
C           -3.92140916628011        0.72977143063396       -0.20757748871894
H            1.95859268223857       -0.40308562708071        4.84540344391165
H            1.22626090602910        1.06634140006862        5.50035636282334
H            0.37775797525304       -0.46887774669874        5.63715485042344
H           -1.40681585371777        1.24579658868536        4.56313689353357
H           -2.51991376717590        1.68890460506963        2.43575586023169
H            1.90919157541085       -0.44789590829201        2.48242296835006
H            1.98968872017244        2.22138627815676        0.05594428066499
H            4.33196454418740        2.96696649461697        0.08854112303916
H            7.18252661498424       -0.09157985566127        1.42901477711269
H            9.53428110019130        0.62583682251106        1.42888517053257
H           10.24587794394574        2.53778971171274        0.04029054781060
H            8.59040052071266        3.72166649937209       -1.35505757598425
H            6.24213517625882        2.99503840493806       -1.36776040599154
H            5.59554433915592       -1.12457829571667       -0.02788160129461
H            2.38708539837741       -4.70450707980028       -0.09008252052033
H            0.06498185935427       -5.52662077018876       -0.08842392596368
H           -2.89770917372618       -2.42781166241264        1.22267506494813
H           -5.24280898424959       -3.13349828218131        1.17762199550911
H           -5.91385000131644       -5.14339820872459       -0.09202491817719
H           -4.20875303046719       -6.43156968031287       -1.32852698998327
H           -1.86766812625726       -5.70362066111549       -1.32669753171627
H           -1.32660569120376       -1.48874318037041       -0.04544983970522
H            1.92245369249709       -0.32447723643150       -2.49210686888436
H            0.60382189128673       -0.42103692247623       -5.49197040220311
H            0.97370238336942        1.29730850978660       -5.58851469177440
H            2.12100131915598        0.18345073181072       -4.82520737872853
H           -1.31819406801994        1.60788296756205       -4.48286542609464
H           -2.44804555340578        1.92687965469461       -2.33963249534493
H           -2.39267039474867        3.67078345658409        0.42599371799232
H           -4.71301712672449        4.43018612036413        0.42231931563043
H           -6.47857577006152        4.93172297450948       -0.88207639502717
H           -8.15971003607963        4.45141663293999       -1.08945707706380
H           -6.89446242541913        3.66986154738509       -2.04039947686632
H           -7.16619271122372        2.86710263032692        2.17755225182880
H           -8.31813068997486        3.97652159362494        1.43040638370804
H           -6.63375128177920        4.45305224525853        1.62227643868627
H           -7.85383095657606        1.46045770983204       -1.23068306533151
H           -7.96884304445473        1.13316893100409        0.50825588290850
H           -9.01346678030031        2.33495362097979       -0.23846672654932
H           -6.00680351573771        0.43358000648998       -0.39140721681760
H           -3.69438088379272       -0.31099103104831       -0.38820074884777

 projected vibrational frequencies (cm⁻¹)
eigval :       -0.00    -0.00    -0.00    -0.00    -0.00     0.00
eigval :      -16.32     6.87    10.87    15.73    16.18    18.40
eigval :       26.60    28.73    36.76    41.77    43.54    48.06
eigval :       53.54    57.74    65.00    79.48    83.55    88.00
eigval :      102.63   114.29   123.47   125.23   136.11   139.63
eigval :      174.16   178.71   181.29   194.71   198.88   209.16
eigval :      215.28   226.60   242.51   249.28   255.28   259.57
eigval :      285.94   290.75   299.23   316.12   317.35   325.26
eigval :      327.41   336.79   347.26   357.77   361.27   363.61
eigval :      372.07   374.73   380.18   388.11   395.39   402.54
eigval :      404.67   422.36   424.71   434.84   436.06   445.53
eigval :      454.14   465.58   476.10   482.89   499.70   505.84
eigval :      526.16   526.99   533.56   544.09   567.59   570.59
eigval :      580.22   584.21   589.97   594.41   604.55   607.99
eigval :      612.85   615.84   625.19   634.33   656.63   662.52
eigval :      668.16   671.29   679.24   680.81   689.48   691.27
eigval :      703.66   737.39   741.16   754.71   756.52   776.48
eigval :      804.43   810.92   813.22   814.34   816.87   821.84
eigval :      862.64   867.91   868.57   871.19   876.17   878.65
eigval :      880.49   882.08   883.42   894.18   895.20   902.37
eigval :      905.59   912.82   913.91   916.10   917.44   923.09
eigval :      927.50   928.29   929.14   929.71   930.99   931.63
eigval :      947.34   960.13   960.91   963.14   963.96   982.69
eigval :      986.99   996.55  1014.39  1018.81  1026.80  1027.93
eigval :     1029.61  1035.07  1035.29  1078.24  1080.51  1082.54
eigval :     1087.66  1091.83  1120.87  1121.91  1124.68  1137.95
eigval :     1141.99  1144.56  1147.04  1161.74  1179.72  1182.24
eigval :     1182.71  1183.30  1196.02  1198.35  1200.60  1201.08
eigval :     1204.54  1216.31  1217.58  1227.71  1233.83  1234.06
eigval :     1248.57  1259.85  1261.28  1268.21  1273.73  1278.60
eigval :     1281.48  1285.37  1286.89  1290.05  1297.70  1312.04
eigval :     1318.42  1322.41  1323.76  1329.14  1341.66  1343.16
eigval :     1345.58  1345.82  1357.02  1397.22  1401.66  1402.06
eigval :     1406.33  1406.62  1409.27  1421.09  1424.64  1426.52
eigval :     1428.82  1432.66  1440.12  1449.99  1458.20  1465.22
eigval :     1474.40  1475.69  1479.63  1480.95  1483.38  1484.04
eigval :     1486.93  1489.02  1490.93  1492.39  1495.90  1500.66
eigval :     1505.27  1514.05  1517.68  1527.85  1545.40  1546.05
eigval :     1559.08  1568.88  1569.33  1570.90  1582.44  1589.23
eigval :     1596.59  1598.31  1599.31  1602.82  2997.46  3003.17
eigval :     3018.58  3026.91  3027.74  3027.96  3030.69  3031.74
eigval :     3035.74  3038.00  3041.84  3047.03  3050.05  3050.80
eigval :     3053.42  3054.51  3058.50  3067.55  3067.80  3071.24
eigval :     3072.14  3074.82  3079.44  3082.03  3082.44  3082.66
eigval :     3082.86  3083.81  3085.09  3087.95  3088.05  3088.76
eigval :     3089.13  3090.49  3091.37  3091.61  3096.76  3096.85
eigval :     3097.28  3099.68  3122.88

   temp. (K)  partition function   enthalpy   heat capacity  entropy
                                   cal/mol     cal/K/mol   cal/K/mol   J/K/mol
 298.15  VIB  0.794E+23            27189.674    164.635    171.895
         ROT  0.926E+08              888.752      2.981     39.435
         INT  0.735E+31            28078.426    167.615    211.330
         TR   0.168E+29             1481.254      4.968     45.375
         TOT                       29559.6801   172.5836   256.7054  1074.0553

       T/K    H(0)-H(T)+PV         H(T)/Eh          T*S/Eh         G(T)/Eh
   ------------------------------------------------------------------------
    298.15    0.471063E-01    0.787559E+00    0.121969E+00    0.665590E+00
   ------------------------------------------------------------------------

         :::::::::::::::::::::::::::::::::::::::::::::::::::::
         ::                  THERMODYNAMIC                  ::
         :::::::::::::::::::::::::::::::::::::::::::::::::::::
         :: total free energy        -134.286937508061 Eh   ::
         ::.................................................::
         :: total energy             -134.952527241391 Eh   ::
         :: zero point energy           0.740452398211 Eh   ::
         :: G(RRHO) w/o ZPVE           -0.074862664881 Eh   ::
         :: G(RRHO) contrib.            0.665589733330 Eh   ::
         :::::::::::::::::::::::::::::::::::::::::::::::::::::

           -------------------------------------------------
          | TOTAL ENERGY             -134.952527241391 Eh   |
          | TOTAL ENTHALPY           -134.164968494552 Eh   |
          | TOTAL FREE ENERGY        -134.286937508061 Eh   |
          | GRADIENT NORM               0.000072798161 Eh/α |
           -------------------------------------------------

 * finished run on 2025/09/11 at 21:25:13.890
