   * xtb version 6.7.1 (edcfbbe) compiled by 'albert@albert-system' on 2024-07-22

   ID    Z sym.   atoms
    1    6 C      1-14, 16-44, 46-49
    2    7 N      15, 45
    3    1 H      50-89

          program call               : xtb data2507/gas/mCz-TAn-CN/mCz-TAn-CN.xyz --gfn 2 --ohess vtight --parallel 40 --molden --ceasefiles --namespace data2507/gas/mCz-TAn-CN/mCz-TAn-CN_gas_S0_preOpt
          :  Hamiltonian                  GFN2-xTB          :
 * total energy  :  -126.9026863 Eh     change       -0.4960555E-08 Eh
 * total energy  :  -126.9190057 Eh     change       -0.1631947E-01 Eh
 * total energy  :  -126.9241474 Eh     change       -0.5141633E-02 Eh
 * total energy  :  -126.9254999 Eh     change       -0.1352510E-02 Eh
 * total energy  :  -126.9261169 Eh     change       -0.6170436E-03 Eh
 * total energy  :  -126.9262431 Eh     change       -0.1261980E-03 Eh
 * total energy  :  -126.9263024 Eh     change       -0.5925356E-04 Eh
 * total energy  :  -126.9263508 Eh     change       -0.4841291E-04 Eh
 * total energy  :  -126.9263734 Eh     change       -0.2257759E-04 Eh
 * total energy  :  -126.9264017 Eh     change       -0.2834514E-04 Eh
 * total energy  :  -126.9274186 Eh     change       -0.1114246E-05 Eh
 * total energy  :  -126.9274196 Eh     change       -0.1020703E-05 Eh
 * total energy  :  -126.9274206 Eh     change       -0.9371187E-06 Eh
 * total energy  :  -126.9274214 Eh     change       -0.8716941E-06 Eh
 * total energy  :  -126.9274222 Eh     change       -0.8250849E-06 Eh
 * total energy  :  -126.9274230 Eh     change       -0.7964028E-06 Eh
 * total energy  :  -126.9274238 Eh     change       -0.7866103E-06 Eh
 * total energy  :  -126.9274246 Eh     change       -0.7973242E-06 Eh
 * total energy  :  -126.9274246 Eh     change       -0.6570332E-08 Eh
   *** GEOMETRY OPTIMIZATION CONVERGED AFTER 185 ITERATIONS ***

 final structure:
================
89
 xtb: 6.7.1 (edcfbbe)
C           -5.73832280821151       -2.89824475639813       -0.01070639613815
C           -4.40752855857941       -3.44734681197064        0.51095169423145
C           -4.63581543315125       -3.99166995589557        1.92822287665038
C           -3.96179918182216       -4.58463448626685       -0.41913346116175
C           -3.31726988847120       -2.39081271416652        0.55792498044638
C           -2.02507305111197       -2.76016930641509        1.01229215060832
C           -1.01444911849513       -1.85644079137771        1.09249083166537
C           -1.19781861605793       -0.50358563783983        0.70652415213439
C           -0.17086987576849        0.44181307757569        0.79621785463596
C            1.16522647017550        0.03439077952538        1.28204839228018
C            1.59441142955835        0.39586041459559        2.55551001525956
C            2.84590853219501        0.01108482738320        3.00238110802946
C            3.68070050840806       -0.73594337088598        2.19160922488661
C            3.26428816985263       -1.09260265629458        0.91172178423406
N            4.10633696803819       -1.84271482304358        0.08036709305194
C            5.43440812127474       -1.56834698874229       -0.18036048771594
C            6.21347921801184       -0.49654827874657        0.23157487920301
C            7.52491238069555       -0.44806256834075       -0.20045049550415
C            8.05453111652318       -1.43372625659948       -1.03031433651677
C            7.27712160734173       -2.48852041643422       -1.46459755659386
C            5.95554594756121       -2.55870020161241       -1.04415744522055
C            4.88168760822366       -3.47439456800032       -1.30953460589015
C            4.78429844235165       -4.63800259053847       -2.06097669024467
C            3.57722908340135       -5.30691360003669       -2.09123246506584
C            2.48007298593917       -4.83585230447967       -1.37372668267268
C            2.55254183682915       -3.68127168886952       -0.61831273421157
C            3.75702439359249       -2.99249648202607       -0.60077113698981
C            2.00764716102329       -0.70346750562573        0.46143818406030
C           -0.40133860341565        1.77463536469496        0.42734146847960
C            0.62824274614662        2.74429789618191        0.48239945445714
C            0.43817193104540        4.04798716998155        0.11452308870317
C            1.59487640293892        5.03144121347142        0.20455291833414
C            2.08459747073551        5.09387403265693        1.65850542943453
C            2.73255699227544        4.54569771177364       -0.70495671508334
C            1.20634704292920        6.44711282180247       -0.22953296300899
C           -0.84410452872058        4.41958837940627       -0.35292256650240
C           -1.86077195355122        3.51713481452286       -0.43336225276271
C           -1.69136413917224        2.16638301636308       -0.04041672087593
C           -2.72100411688187        1.21804949875864       -0.12845379913026
C           -4.05397635620920        1.62725379104915       -0.61276882780600
C           -4.53796007406174        1.15503526892046       -1.83207556647555
C           -5.78418241380685        1.53081975271585       -2.28867034478799
C           -6.57227893114812        2.39066366344142       -1.52180335229845
C           -7.85068500361907        2.77734609946671       -1.98236948506256
N           -8.88849506282106        3.09119639492856       -2.35587912921476
C           -6.09637775349280        2.86847437569249       -0.29977026811027
C           -4.84684430978747        2.48799139096327        0.14441111458117
C           -2.48978233246055       -0.11523116740231        0.24050011588344
C           -3.52044469905983       -1.09045873384901        0.19618072539683
H           -6.47656566169738       -3.69722667837882       -0.03119892358746
H           -6.11747062830102       -2.10863950246668        0.63417530363294
H           -5.63384431968380       -2.51164388751888       -1.02203059191097
H           -3.73671480846333       -4.45271622613345        2.32773498027437
H           -5.42580954671246       -4.73952728930077        1.91841092772739
H           -4.93183735499568       -3.18577239911310        2.59683136967536
H           -3.77714673729593       -4.20088184953430       -1.42051481838191
H           -3.05146850697390       -5.05840671929861       -0.06244778934357
H           -4.73843607188458       -5.34407385859607       -0.47868940298912
H           -1.83978779478892       -3.77946329424917        1.31548186241730
H           -0.04727056318484       -2.15707880853292        1.46880397636003
H            0.94005223732591        0.97407284937451        3.19102963038263
H            3.17125157522261        0.28740119627143        3.99454085914759
H            4.64754925944865       -1.05810898375549        2.54735687022517
H            5.80833637295730        0.28241955607935        0.85997380892604
H            8.15238970516918        0.37469971463560        0.10943621566134
H            9.08547760012933       -1.36162594871697       -1.34340083305234
H            7.68222815502758       -3.24332873865579       -2.12160528304838
H            5.63931527992782       -5.00951642968688       -2.60543527846186
H            3.47930270043010       -6.21235834079377       -2.67149358659011
H            1.55148749991743       -5.38666731957239       -1.40630692819291
H            1.69787209292620       -3.33608027671240       -0.05669916156366
H            1.69101024242195       -0.96081184965039       -0.53860551560673
H            1.59585090479731        2.41179189116182        0.82593057227418
H            1.27745898598258        5.41424739490395        2.31426942289494
H            2.90366852080791        5.80434934802811        1.74752041157291
H            2.43670857959259        4.12405352006075        1.99944193745951
H            3.56649401926775        5.24331967158728       -0.66709694614782
H            2.38777704917299        4.47575566085321       -1.73464750097965
H            3.09279046195527        3.56685721117081       -0.39997872010327
H            2.06889182905211        7.10369086323722       -0.13432523855200
H            0.41157529167646        6.84569890154393        0.39704577075394
H            0.88624952490498        6.46534181473806       -1.26885381730455
H           -1.03061737481788        5.43405380980112       -0.66483883332094
H           -2.82223777660942        3.83030918301702       -0.81371948617953
H           -3.92177502444433        0.49340871926636       -2.42347617291368
H           -6.15710139711825        1.16663732312994       -3.23484833657132
H           -6.71162551905633        3.53249578986285        0.28969107772615
H           -4.47598069545164        2.85081995436314        1.09200027553334
H           -4.49166086389388       -0.75946806661417       -0.13189515943596

          :  Hamiltonian                  GFN2-xTB          :
         :: gradient norm              0.000063686503 Eh/a0 ::
         :: HOMO-LUMO gap              2.052625321486 eV    ::
         :: SCC energy              -129.306307129741 Eh    ::
         :: -> dispersion             -0.120473685325 Eh    ::
         :: repulsion energy           2.378882496025 Eh    ::

    * Orbital Energies and Occupations

         #    Occupation            Energy/Eh            Energy/eV
      -------------------------------------------------------------
         1        2.0000           -0.6757841             -18.3890
       ...           ...                  ...                  ...
       107        2.0000           -0.4188879             -11.3985
       108        2.0000           -0.4183553             -11.3840
       109        2.0000           -0.4164616             -11.3325
       110        2.0000           -0.4137672             -11.2592
       111        2.0000           -0.4110615             -11.1856
       112        2.0000           -0.4056031             -11.0370
       113        2.0000           -0.4046234             -11.0104
       114        2.0000           -0.4045481             -11.0083
       115        2.0000           -0.4038358             -10.9889
       116        2.0000           -0.3970814             -10.8051
       117        2.0000           -0.3777193             -10.2783
       118        2.0000           -0.3626003              -9.8669
       119        2.0000           -0.3603013              -9.8043 (HOMO)
       120                         -0.2848687              -7.7517 (LUMO)
       121                         -0.2684727              -7.3055
       122                         -0.2457146              -6.6862
       123                         -0.2425281              -6.5995
       124                         -0.2357676              -6.4156
       125                         -0.2344937              -6.3809
       126                         -0.2329700              -6.3394
       127                         -0.2218470              -6.0368
       128                         -0.2209941              -6.0136
       129                         -0.2039796              -5.5506
       130                         -0.1903004              -5.1783
       ...                                ...                  ...
       236                          1.1730471              31.9202
      -------------------------------------------------------------
                  HL-Gap            0.0754326 Eh            2.0526 eV

     #   Z          covCN         q      C6AA      α(0)
     1   6 C        3.761    -0.106    22.581     6.774
     2   6 C        3.903     0.026    20.088     6.371
     3   6 C        3.762    -0.105    22.544     6.768
     4   6 C        3.762    -0.104    22.541     6.768
     5   6 C        2.969     0.009    27.811     8.650
     6   6 C        2.921    -0.033    28.834     8.806
     7   6 C        2.915    -0.036    28.907     8.817
     8   6 C        2.985     0.003    27.940     8.671
     9   6 C        2.979    -0.006    28.175     8.707
    10   6 C        2.977     0.018    27.591     8.616
    11   6 C        2.923    -0.038    28.935     8.821
    12   6 C        2.918    -0.030    28.745     8.792
    13   6 C        2.922    -0.046    29.151     8.854
    14   6 C        2.912     0.064    26.567     8.452
    15   7 N        2.803    -0.045    22.107     6.983
    16   6 C        3.076     0.047    26.873     8.499
    17   6 C        2.910    -0.051    29.267     8.871
    18   6 C        2.924    -0.034    28.839     8.807
    19   6 C        2.920    -0.041    29.018     8.834
    20   6 C        2.913    -0.033    28.817     8.803
    21   6 C        3.068    -0.017    28.366     8.733
    22   6 C        3.069    -0.017    28.366     8.733
    23   6 C        2.913    -0.033    28.819     8.803
    24   6 C        2.920    -0.041    29.019     8.834
    25   6 C        2.924    -0.034    28.837     8.806
    26   6 C        2.910    -0.051    29.264     8.870
    27   6 C        3.074     0.047    26.871     8.499
    28   6 C        2.927    -0.047    29.163     8.856
    29   6 C        2.984     0.004    27.919     8.667
    30   6 C        2.927    -0.042    29.055     8.840
    31   6 C        2.969     0.009    27.815     8.651
    32   6 C        3.903     0.025    20.094     6.372
    33   6 C        3.762    -0.105    22.550     6.769
    34   6 C        3.762    -0.105    22.547     6.769
    35   6 C        3.761    -0.107    22.584     6.775
    36   6 C        2.920    -0.038    28.934     8.821
    37   6 C        2.915    -0.039    28.961     8.825
    38   6 C        2.984     0.004    27.935     8.670
    39   6 C        2.977    -0.011    28.278     8.723
    40   6 C        2.977     0.026    27.424     8.590
    41   6 C        2.923    -0.029    28.725     8.789
    42   6 C        2.924    -0.021    28.538     8.761
    43   6 C        2.974     0.016    27.655     8.626
    44   6 C        1.912     0.111    28.362     8.601
    45   7 N        0.911    -0.238    26.219     7.406
    46   6 C        2.925    -0.021    28.538     8.761
    47   6 C        2.923    -0.029    28.733     8.790
    48   6 C        2.983     0.004    27.916     8.667
    49   6 C        2.924    -0.048    29.197     8.861
    50   1 H        0.925     0.038     2.475     2.460
    51   1 H        0.925     0.034     2.526     2.485
    52   1 H        0.925     0.034     2.523     2.484
    53   1 H        0.925     0.037     2.490     2.468
    54   1 H        0.925     0.038     2.471     2.458
    55   1 H        0.925     0.033     2.538     2.492
    56   1 H        0.925     0.034     2.535     2.490
    57   1 H        0.925     0.037     2.488     2.467
    58   1 H        0.925     0.038     2.474     2.460
    59   1 H        0.926     0.030     2.580     2.512
    60   1 H        0.926     0.026     2.639     2.540
    61   1 H        0.926     0.034     2.528     2.486
    62   1 H        0.926     0.035     2.513     2.479
    63   1 H        0.926     0.040     2.452     2.449
    64   1 H        0.926     0.026     2.643     2.542
    65   1 H        0.926     0.028     2.609     2.526
    66   1 H        0.926     0.028     2.621     2.532
    67   1 H        0.926     0.031     2.579     2.511
    68   1 H        0.926     0.031     2.579     2.511
    69   1 H        0.926     0.027     2.624     2.533
    70   1 H        0.926     0.028     2.616     2.529
    71   1 H        0.926     0.027     2.628     2.535
    72   1 H        0.926     0.040     2.448     2.447
    73   1 H        0.926     0.031     2.575     2.510
    74   1 H        0.925     0.034     2.535     2.490
    75   1 H        0.925     0.038     2.476     2.460
    76   1 H        0.925     0.036     2.506     2.475
    77   1 H        0.925     0.038     2.471     2.458
    78   1 H        0.925     0.034     2.532     2.488
    79   1 H        0.925     0.036     2.509     2.477
    80   1 H        0.925     0.037     2.494     2.469
    81   1 H        0.925     0.036     2.504     2.475
    82   1 H        0.925     0.036     2.503     2.474
    83   1 H        0.926     0.037     2.485     2.465
    84   1 H        0.926     0.027     2.635     2.538
    85   1 H        0.926     0.039     2.463     2.454
    86   1 H        0.926     0.040     2.445     2.445
    87   1 H        0.926     0.040     2.444     2.445
    88   1 H        0.926     0.039     2.465     2.455
    89   1 H        0.926     0.035     2.512     2.479

molecular dipole:
                 x           y           z       tot (Debye)
 q only:        0.994      -0.146       0.757
   full:        1.366      -0.237       0.954       4.278

 projected vibrational frequencies (cm⁻¹)
eigval :       -0.00    -0.00    -0.00    -0.00     0.00     0.00
eigval :        6.64    11.38    15.77    22.96    27.67    29.33
eigval :       32.01    38.01    43.95    52.26    59.08    68.18
eigval :       78.04    87.53    93.80   105.82   108.76   130.71
eigval :      137.98   142.47   148.36   161.50   170.72   182.71
eigval :      192.77   199.69   208.24   214.45   218.61   223.51
eigval :      227.39   234.58   243.28   253.43   256.45   270.22
eigval :      272.46   302.46   313.43   318.07   320.34   324.88
eigval :      339.76   350.88   353.59   363.64   374.33   384.38
eigval :      390.10   395.67   404.39   408.77   415.47   423.44
eigval :      431.68   435.03   439.21   449.62   453.32   464.21
eigval :      484.30   505.32   517.68   520.94   522.27   534.07
eigval :      539.97   541.13   542.91   554.47   574.40   576.57
eigval :      589.89   607.49   611.06   619.39   633.30   639.34
eigval :      645.81   649.30   670.99   674.75   676.10   685.04
eigval :      699.16   708.26   716.74   730.53   740.48   757.13
eigval :      767.29   769.06   780.33   800.61   811.49   818.09
eigval :      820.45   824.57   867.39   870.11   870.65   872.06
eigval :      877.49   884.20   884.67   894.91   896.77   900.85
eigval :      905.08   907.65   908.09   917.45   921.91   922.16
eigval :      922.89   926.44   930.70   931.73   933.15   960.18
eigval :      960.40   960.64   963.52   963.67   964.07   966.83
eigval :      983.74   997.63  1008.22  1014.54  1023.31  1034.86
eigval :     1035.23  1036.18  1037.11  1070.80  1074.30  1117.04
eigval :     1125.90  1132.11  1133.54  1141.07  1152.68  1154.10
eigval :     1168.75  1176.08  1180.63  1181.44  1186.23  1190.32
eigval :     1210.66  1217.13  1227.25  1227.34  1230.22  1233.97
eigval :     1236.84  1240.79  1245.42  1249.05  1257.93  1262.32
eigval :     1265.31  1269.14  1283.78  1285.04  1300.57  1304.48
eigval :     1308.91  1312.03  1318.22  1340.02  1353.83  1359.13
eigval :     1361.45  1368.01  1393.00  1396.10  1406.32  1406.54
eigval :     1406.71  1406.72  1417.10  1424.03  1428.44  1429.44
eigval :     1430.28  1431.66  1446.85  1460.83  1470.00  1476.10
eigval :     1484.05  1488.73  1489.30  1492.00  1492.25  1493.93
eigval :     1495.03  1500.48  1501.32  1504.95  1505.90  1514.65
eigval :     1515.32  1515.75  1519.81  1520.63  1532.54  1541.05
eigval :     1547.98  1571.32  1575.78  1588.26  1589.06  1590.13
eigval :     1599.68  1607.28  1615.53  1624.24  2373.73  3022.79
eigval :     3023.55  3024.41  3025.25  3026.50  3026.63  3030.23
eigval :     3030.72  3031.54  3032.20  3034.82  3035.27  3038.86
eigval :     3039.15  3044.61  3046.52  3048.18  3050.00  3074.83
eigval :     3075.63  3076.16  3078.80  3079.35  3080.58  3080.96
eigval :     3082.05  3082.57  3087.96  3089.92  3090.24  3090.66
eigval :     3091.83  3092.14  3092.58  3093.12  3095.25  3096.98
eigval :     3098.63  3115.68  3121.35

   temp. (K)  partition function   enthalpy   heat capacity  entropy
                                   cal/mol     cal/K/mol   cal/K/mol   J/K/mol
 298.15  VIB  0.118E+21            25571.171    158.397    158.983
         ROT  0.919E+08              888.752      2.981     39.419
         INT  0.108E+29            26459.923    161.378    198.402
         TR   0.154E+29             1481.254      4.968     45.197
         TOT                       27941.1774   166.3462   243.5995  1019.2205

       T/K    H(0)-H(T)+PV         H(T)/Eh          T*S/Eh         G(T)/Eh
   ------------------------------------------------------------------------
    298.15    0.445271E-01    0.761689E+00    0.115742E+00    0.645947E+00
   ------------------------------------------------------------------------

         :::::::::::::::::::::::::::::::::::::::::::::::::::::
         ::                  THERMODYNAMIC                  ::
         :::::::::::::::::::::::::::::::::::::::::::::::::::::
         :: total free energy        -126.281477695960 Eh   ::
         ::.................................................::
         :: total energy             -126.927424633716 Eh   ::
         :: zero point energy           0.717161837973 Eh   ::
         :: G(RRHO) w/o ZPVE           -0.071214900217 Eh   ::
         :: G(RRHO) contrib.            0.645946937756 Eh   ::
         :::::::::::::::::::::::::::::::::::::::::::::::::::::

           -------------------------------------------------
          | TOTAL ENERGY             -126.927424633716 Eh   |
          | TOTAL ENTHALPY           -126.165735695258 Eh   |
          | TOTAL FREE ENERGY        -126.281477695960 Eh   |
          | GRADIENT NORM               0.000063688163 Eh/α |
          | HOMO-LUMO GAP               2.052625294940 eV   |
           -------------------------------------------------

 * finished run on 2025/09/09 at 22:59:12.888
