   * xtb version 6.7.1 (edcfbbe) compiled by 'albert@albert-system' on 2024-07-22

   ID    Z sym.   atoms
    1    6 C      1-14, 16-44, 46-49
    2    7 N      15, 45
    3    1 H      50-89

          program call               : xtb data2507/gas/mCz-TAn-CN/mCz-TAn-CN_gas_S0_finalOpt.xtbopt.xyz --gfn 2 --spinpol --tblite --uhf 2 --ohess vtight --parallel 40 --molden --ceasefiles --namespace data2507/gas/mCz-TAn-CN/mCz-TAn-CN_gas_T1_preOpt
 * total energy  :  -126.8564721 Eh     change       -0.5685389E-07 Eh
 * total energy  :  -126.8624957 Eh     change       -0.6023569E-02 Eh
 * total energy  :  -126.8640551 Eh     change       -0.1559444E-02 Eh
 * total energy  :  -126.8642140 Eh     change       -0.1588311E-03 Eh
 * total energy  :  -126.8643769 Eh     change       -0.1629389E-03 Eh
 * total energy  :  -126.8643734 Eh     change        0.3498200E-05 Eh
 * total energy  :  -126.8645602 Eh     change       -0.1867508E-03 Eh
 * total energy  :  -126.8646792 Eh     change       -0.1190332E-03 Eh
 * total energy  :  -126.8648234 Eh     change       -0.1441940E-03 Eh
 * total energy  :  -126.8649459 Eh     change       -0.1224755E-03 Eh
 * total energy  :  -126.8654478 Eh     change       -0.3274558E-06 Eh
 * total energy  :  -126.8654482 Eh     change       -0.4114438E-06 Eh
 * total energy  :  -126.8654486 Eh     change       -0.4101348E-06 Eh
 * total energy  :  -126.8654489 Eh     change       -0.3215028E-06 Eh
 * total energy  :  -126.8654493 Eh     change       -0.3543097E-06 Eh
 * total energy  :  -126.8654496 Eh     change       -0.3557390E-06 Eh
 * total energy  :  -126.8654499 Eh     change       -0.2892045E-06 Eh
 * total energy  :  -126.8654499 Eh     change        0.8530179E-08 Eh
 * total energy  :  -126.8654499 Eh     change       -0.9675460E-08 Eh
   *** GEOMETRY OPTIMIZATION CONVERGED AFTER 69 ITERATIONS ***

 final structure:
================
89
 xtb: 6.7.1 (edcfbbe)
C           -3.89942290250519       -5.42581998270547       -0.99536981769304
C           -4.30815149068667       -4.48610299086817        0.14862803406316
C           -5.70693865129067       -3.94309037782395       -0.15658973642143
C           -4.37590249863273       -5.27252790849668        1.46591529706216
C           -3.26473533777018       -3.39093426188159        0.28248734961666
C           -1.94662284883477       -3.71715829942547        0.56002631629299
C           -0.98204690271376       -2.73212261397488        0.73082058877612
C           -1.29279837121157       -1.37505971843462        0.61006543381776
C           -0.33239099255544       -0.35591982281497        0.86193172567654
C            1.03498786826634       -0.72127178061447        1.25470717407900
C            1.28625931959887       -1.34852216775100        2.47433359171551
C            2.58055246200743       -1.67185365920870        2.83725429020106
C            3.63763450123878       -1.39524851017948        1.98966245519941
C            3.39686445957533       -0.79737583751595        0.75384528634327
N            4.46320080564901       -0.55542584239808       -0.12244231676766
C            5.45551324236114       -1.46386342300219       -0.44030140259501
C            5.58068114302856       -2.79938214165347       -0.08441149857280
C            6.67046574837259       -3.49765088859213       -0.56793215322648
C            7.61440242150606       -2.89288142323484       -1.39485192311010
C            7.48023479411484       -1.57309170043275       -1.77615885557415
C            6.39212657805891       -0.85147154067424       -1.30358523010040
C            5.93573032085130        0.49365981674665       -1.51205814707839
C            6.43636092286856        1.56627230055363       -2.23757200844396
C            5.74514835431743        2.76074146886417       -2.21480667772328
C            4.57224908111300        2.89280399430179       -1.47578241307929
C            4.05364580576610        1.83853006989289       -0.74869441719158
C            4.73729913485277        0.63163053923017       -0.77416079543511
C            2.09882638410176       -0.45337239433321        0.39743549579048
C           -0.68622795239143        1.02027480753187        0.73000453235458
C            0.20570758407337        2.03278288649850        1.09050068359537
C           -0.08467317687129        3.38940026434992        0.90879430119221
C            0.86794757549844        4.49627249398673        1.32559459010965
C            2.06435195919404        3.98099019579327        2.13076355975888
C            1.38925238615015        5.19147530567694        0.05964691270038
C            0.11691953491406        5.50985060757221        2.20166185348977
C           -1.28452882136240        3.70386008708712        0.29002911871532
C           -2.21017155327692        2.71896046198003       -0.03844729602053
C           -1.97438280701507        1.37131230380715        0.23612789643390
C           -2.94938499908970        0.35216494005126       -0.00664446751946
C           -4.27760311307841        0.71010319018534       -0.47346440641017
C           -4.82897107069527        0.09931682710631       -1.61096820194839
C           -6.08490339015244        0.43331703644171       -2.05977294453286
C           -6.84472833764899        1.38533935950058       -1.37062012151970
C           -8.13583753670871        1.72329919545841       -1.82060469309461
N           -9.18863620605711        1.99813949633137       -2.18773559908766
C           -6.31190630651836        1.99807576263732       -0.23096646356058
C           -5.04823151485705        1.66954839857099        0.20098484006032
C           -2.61716538936413       -1.02594028647897        0.22337138279458
C           -3.57478105129907       -2.03441808714893        0.12416733351493
H           -2.93797347253088       -5.89286884121008       -0.80105002284075
H           -4.64165241838983       -6.21177626965740       -1.11645392331497
H           -3.82731195985374       -4.87265823886980       -1.92961136605682
H           -6.40596629491328       -4.77290918498449       -0.23804697004183
H           -5.72220737195958       -3.40001613476594       -1.09891575459751
H           -6.05727396000045       -3.28807011928641        0.63797802807475
H           -3.42104880731677       -5.73445166521807        1.70103692530282
H           -4.64603054161589       -4.61005983646902        2.28576417495064
H           -5.12598999785894       -6.05717105415307        1.39487541532694
H           -1.64650058982039       -4.74850267583509        0.66496104702697
H            0.03128730758310       -3.02385281250077        0.96223732174745
H            0.46280318038585       -1.55842147273392        3.14067167227903
H            2.77017964031012       -2.13788527392855        3.79300561213110
H            4.65019695147656       -1.62787496290106        2.28180250187134
H            4.84520312344982       -3.28554709874811        0.53867886983432
H            6.79058951484046       -4.53754045750740       -0.30182269397687
H            8.45430615835168       -3.47189717004053       -1.74880002642274
H            8.20030791855384       -1.10833344667416       -2.43261684345411
H            7.35023028015016        1.46368575066852       -2.80298750831030
H            6.11631170188829        3.60803930862967       -2.77177252723605
H            4.05874149762515        3.84312705686134       -1.47044630705812
H            3.14455694904873        1.95519764706765       -0.17912937720349
H            1.90464904858352       -0.00683571029407       -0.56648332759998
H            1.14250984522826        1.73705356469413        1.53318537996865
H            1.73506051747757        3.43507303603131        3.01229282776481
H            2.66682061198307        4.82443628446802        2.46183053087223
H            2.70370783656448        3.33722991983491        1.53237099159138
H            2.10215749085616        5.96935112261661        0.32456785923445
H            0.57643370034227        5.64650774479163       -0.50038346940032
H            1.88522094146973        4.47070185200549       -0.58696572535070
H            0.79533998819361        6.29643037831929        2.52491488971557
H           -0.28582459426088        5.01773143238580        3.08459553066352
H           -0.70486543303152        5.97416899554480        1.66445668876816
H           -1.53231700689064        4.72884238647860        0.06152846891307
H           -3.12889549748997        3.01433149830690       -0.52183671002001
H           -4.23457420971938       -0.61598809383783       -2.16084146264286
H           -6.49260858131542       -0.02998580528807       -2.94665036181415
H           -6.90408832461717        2.72409957682484        0.30707170389936
H           -4.65306077174694        2.12340967827287        1.09809127605457
H           -4.59269182442191       -1.74637495050287       -0.07406979887147

 projected vibrational frequencies (cm⁻¹)
eigval :       -0.00    -0.00     0.00     0.00     0.00     0.00
eigval :        9.46    13.37    16.24    25.90    29.34    34.80
eigval :       37.11    42.02    52.29    60.31    65.93    68.90
eigval :       78.99    92.26    98.30   106.60   116.44   132.77
eigval :      141.80   145.23   150.14   165.11   170.41   186.15
eigval :      189.26   197.88   207.90   214.48   222.25   223.00
eigval :      231.44   237.81   242.67   250.39   257.01   269.95
eigval :      272.63   297.76   300.76   315.17   320.46   327.26
eigval :      335.66   344.31   355.43   368.58   372.46   377.00
eigval :      383.48   394.66   399.57   405.04   409.55   413.29
eigval :      423.43   431.00   432.97   439.98   444.19   462.60
eigval :      485.58   494.16   513.19   517.35   520.49   533.15
eigval :      535.18   539.20   540.91   556.09   569.40   573.53
eigval :      590.34   603.13   605.93   615.40   623.47   628.52
eigval :      634.86   638.20   666.27   671.53   675.74   678.30
eigval :      679.16   708.30   713.01   715.88   732.45   757.39
eigval :      763.75   768.53   779.84   799.62   808.23   809.51
eigval :      809.99   820.89   841.84   846.31   866.86   868.72
eigval :      870.80   872.46   884.76   893.49   895.64   897.69
eigval :      898.07   900.79   905.32   906.34   908.28   921.13
eigval :      922.29   927.06   931.13   932.30   936.29   957.31
eigval :      958.94   959.73   961.80   962.15   962.88   967.91
eigval :      991.78   998.39  1007.88  1012.83  1018.50  1032.24
eigval :     1033.28  1035.50  1036.34  1071.91  1076.17  1117.84
eigval :     1126.12  1133.39  1135.28  1144.40  1152.43  1153.34
eigval :     1154.37  1172.34  1180.06  1181.70  1182.77  1188.45
eigval :     1196.52  1203.93  1223.66  1223.95  1229.59  1229.87
eigval :     1235.62  1239.62  1243.11  1244.32  1255.66  1260.65
eigval :     1262.45  1269.51  1282.69  1286.28  1290.62  1299.22
eigval :     1302.31  1307.88  1310.91  1312.28  1335.50  1351.57
eigval :     1356.06  1358.45  1360.13  1365.97  1379.99  1391.83
eigval :     1403.29  1404.18  1405.35  1405.55  1406.58  1416.78
eigval :     1425.15  1426.38  1427.54  1438.46  1440.96  1464.43
eigval :     1468.93  1474.79  1477.92  1488.49  1489.77  1490.36
eigval :     1491.11  1491.30  1492.26  1496.61  1502.04  1502.32
eigval :     1504.03  1510.11  1511.15  1513.11  1514.04  1516.47
eigval :     1518.27  1533.81  1549.07  1561.63  1566.89  1573.87
eigval :     1579.56  1589.23  1599.20  1614.99  2352.63  3023.77
eigval :     3023.82  3025.55  3025.64  3026.88  3028.06  3030.79
eigval :     3031.77  3031.93  3032.63  3035.09  3036.41  3039.47
eigval :     3043.77  3044.56  3047.16  3050.77  3051.84  3076.67
eigval :     3076.94  3077.08  3078.77  3079.18  3081.92  3083.32
eigval :     3083.96  3085.70  3088.96  3089.25  3090.36  3090.78
eigval :     3091.42  3093.29  3095.08  3095.59  3097.49  3098.15
eigval :     3100.25  3116.93  3130.94

   temp. (K)  partition function   enthalpy   heat capacity  entropy
                                   cal/mol     cal/K/mol   cal/K/mol   J/K/mol
 298.15  VIB  0.251E+20            25613.625    160.134    158.316
         ROT  0.915E+08              888.752      2.981     39.411
         INT  0.230E+28            26502.377    163.115    197.727
         TR   0.154E+29             1481.254      4.968     45.197
         TOT                       27983.6309   168.0831   242.9238  1016.3932

       T/K    H(0)-H(T)+PV         H(T)/Eh          T*S/Eh         G(T)/Eh
   ------------------------------------------------------------------------
    298.15    0.445948E-01    0.759174E+00    0.115421E+00    0.643753E+00
   ------------------------------------------------------------------------

         :::::::::::::::::::::::::::::::::::::::::::::::::::::
         ::                  THERMODYNAMIC                  ::
         :::::::::::::::::::::::::::::::::::::::::::::::::::::
         :: total free energy        -126.221697163991 Eh   ::
         ::.................................................::
         :: total energy             -126.865449937242 Eh   ::
         :: zero point energy           0.714578953912 Eh   ::
         :: G(RRHO) w/o ZPVE           -0.070826180661 Eh   ::
         :: G(RRHO) contrib.            0.643752773251 Eh   ::
         :::::::::::::::::::::::::::::::::::::::::::::::::::::

           -------------------------------------------------
          | TOTAL ENERGY             -126.865449937242 Eh   |
          | TOTAL ENTHALPY           -126.106276228935 Eh   |
          | TOTAL FREE ENERGY        -126.221697163991 Eh   |
          | GRADIENT NORM               0.000109938910 Eh/α |
           -------------------------------------------------

 * finished run on 2025/09/09 at 23:10:42.707
