   * xtb version 6.7.1 (edcfbbe) compiled by 'albert@albert-system' on 2024-07-22

   ID    Z sym.   atoms
    1    6 C      1-14, 16-44, 46-49
    2    7 N      15, 45
    3    1 H      50-89

          program call               : xtb data2507/gas/mCz-TAn-CN/mCz-TAn-CN_gas_T1_crest.xyz --gfn 2 --spinpol --tblite --uhf 2 --ohess vtight --parallel 40 --molden --ceasefiles --namespace data2507/gas/mCz-TAn-CN/mCz-TAn-CN_gas_T1_finalOpt
 * total energy  :  -126.8660733 Eh     change       -0.1384863E-07 Eh
 * total energy  :  -126.8661094 Eh     change       -0.3604657E-04 Eh
 * total energy  :  -126.8660928 Eh     change        0.1651673E-04 Eh
 * total energy  :  -126.8661232 Eh     change       -0.3032944E-04 Eh
 * total energy  :  -126.8661264 Eh     change       -0.3183624E-05 Eh
 * total energy  :  -126.8661318 Eh     change       -0.5401642E-05 Eh
 * total energy  :  -126.8661369 Eh     change       -0.5175014E-05 Eh
 * total energy  :  -126.8661400 Eh     change       -0.3113595E-05 Eh
 * total energy  :  -126.8661416 Eh     change       -0.1510607E-05 Eh
 * total energy  :  -126.8661429 Eh     change       -0.1306111E-05 Eh
 * total energy  :  -126.8661625 Eh     change       -0.3694660E-06 Eh
 * total energy  :  -126.8661629 Eh     change       -0.4142622E-06 Eh
 * total energy  :  -126.8661633 Eh     change       -0.4230558E-06 Eh
 * total energy  :  -126.8661638 Eh     change       -0.4458637E-06 Eh
 * total energy  :  -126.8661642 Eh     change       -0.4498177E-06 Eh
 * total energy  :  -126.8661648 Eh     change       -0.6172520E-06 Eh
 * total energy  :  -126.8661653 Eh     change       -0.4661816E-06 Eh
 * total energy  :  -126.8661654 Eh     change       -0.6134476E-07 Eh
 * total energy  :  -126.8661654 Eh     change       -0.7766521E-07 Eh
   *** GEOMETRY OPTIMIZATION CONVERGED AFTER 45 ITERATIONS ***

 final structure:
================
89
 xtb: 6.7.1 (edcfbbe)
C           -5.88571794408206       -3.54850391687717       -0.95627091033876
C           -5.16997630389364       -3.81527167051649        0.37626943377692
C           -6.06626964947352       -3.37506331902431        1.54298008211991
C           -4.92902843656402       -5.32216963126219        0.49710053204920
C           -3.88087230295050       -3.01591150551365        0.41986386757068
C           -2.62993572064860       -3.58605218808538        0.56976378043863
C           -1.48980375593382       -2.79287516883400        0.66288391421086
C           -1.55140143832137       -1.39994590779831        0.58939031386358
C           -0.40472853226210       -0.57593648653837        0.77638289797420
C            0.89095883980614       -1.16285121461492        1.11267508452818
C            1.05462729611988       -1.97559275548901        2.23722985680957
C            2.30245230621493       -2.46706687775003        2.57136726421751
C            3.41086163840251       -2.16598221155188        1.79911121464211
C            3.26201101345391       -1.36137269157503        0.67206365652824
N            4.37582294428050       -1.02373473597032       -0.11124040397368
C            4.48129028577067       -1.17114671950234       -1.47911609710189
C            3.58575073553565       -1.73310457938028       -2.37740852893085
C            3.95590652076043       -1.78513925480684       -3.70748882429550
C            5.18794801344244       -1.29866754528828       -4.13957827163142
C            6.08972517038897       -0.75426947823686       -3.24731810877693
C            5.74070905045872       -0.68962693087451       -1.90476514950657
C            6.41547947880479       -0.21650411553141       -0.72859961196525
C            7.65060496652374        0.37817390137113       -0.50721855062315
C            7.98711201242583        0.74544774585865        0.78035644456807
C            7.10524054551757        0.53850471413449        1.83888630832152
C            5.87177549668710       -0.05283598359288        1.64466133748832
C            5.53748541122695       -0.44376106238518        0.35615205437275
C            2.01005618015700       -0.87060292752789        0.33177025581102
C           -0.50774938694910        0.84305532621883        0.62388529538853
C            0.57090342837950        1.68376311226077        0.88914503044779
C            0.55348792231904        3.05811330805224        0.61469552757055
C            1.80156701246417        3.87331199555620        0.89806903320679
C            1.64975816054295        5.33790804966916        0.48004627894296
C            2.09228756350027        3.82681830256278        2.40518190166607
C            2.98588028920372        3.27178804739391        0.12527020565089
C           -0.60712983242441        3.58373231291455        0.07703363192252
C           -1.73173490800896        2.78402149207765       -0.11605338294366
C           -1.73640807058886        1.42375672947010        0.19589553719161
C           -2.90110508267393        0.60599176046053        0.06289536435840
C           -4.17188927921368        1.20088899118021       -0.31764867699615
C           -4.90978350397959        0.69093731153729       -1.39692492969546
C           -6.11199196614723        1.24928933332462       -1.76353667803592
C           -6.62661036729302        2.33550566299161       -1.04710609534314
C           -7.86270781054336        2.90456924936517       -1.41175021744670
N           -8.87092550836501        3.36673091152652       -1.70883673990510
C           -5.90498492723777        2.85185888121368        0.03447082815286
C           -4.69606335301016        2.29638211803192        0.38420308022534
C           -2.81450950367941       -0.80633827150518        0.30052643343206
C           -3.94380864813501       -1.62028126352698        0.28867352161291
H           -5.23999265595266       -3.81576676005695       -1.79046841178664
H           -6.79288295547548       -4.14563737214138       -1.01771504451471
H           -6.16246438122529       -2.50265176729263       -1.05804785192085
H           -6.99348080170645       -3.94383444707551        1.53628319749659
H           -6.31480293783323       -2.31921402137443        1.47716787681274
H           -5.56150103875973       -3.54826989536547        2.49126283291274
H           -4.31658474375845       -5.68734612729303       -0.32416517939010
H           -4.44471328398592       -5.56679622524964        1.43963618276458
H           -5.88214471430767       -5.84578940964601        0.46386955370732
H           -2.50861969816391       -4.65466890210635        0.63461592636253
H           -0.53184809421545       -3.27409536493954        0.79002529592971
H            0.20215315128602       -2.18709782492864        2.86537851524276
H            2.41587323779959       -3.08880951928123        3.44728562765959
H            4.38493059287189       -2.55402464138143        2.05496376189926
H            2.63487507993721       -2.12552277619568       -2.04894008946307
H            3.27613458770699       -2.21582678999646       -4.42795167263458
H            5.43942130569689       -1.35728716122694       -5.18814045778444
H            7.04934356615541       -0.38890133827736       -3.58075310645021
H            8.32849268158125        0.55200304458809       -1.32927308044334
H            8.94363078257151        1.20774296107678        0.97399015070332
H            7.39085384191794        0.84962851513420        2.83302070287031
H            5.18881679250899       -0.19748470831681        2.46871126536475
H            1.90160161846845       -0.25291520950829       -0.54793061694317
H            1.45877231520764        1.25109595343961        1.32091029085427
H            1.45985650652170        5.42089725757509       -0.58761203513450
H            2.56919057148624        5.87591312445851        0.70095648617180
H            0.84059655395199        5.81890839718971        1.02474606441900
H            2.98598938126731        4.40470257127608        2.63000923636870
H            2.25132704384778        2.80737597285891        2.74651815755338
H            1.25833649373250        4.24781326535703        2.96319547193924
H            3.87600536618901        3.87859261260793        0.27584557271752
H            2.76612012412703        3.24205099374432       -0.94008440380359
H            3.21114715679377        2.26152340726360        0.45625206808360
H           -0.67511216735323        4.62408806764435       -0.19474214215831
H           -2.61666654449479        3.23627835816562       -0.53764198889173
H           -4.50267597477963       -0.13069495503339       -1.96837507362773
H           -6.66423943077883        0.85930931473878       -2.60640163272085
H           -6.30863624152588        3.68388581943833        0.59307052242375
H           -4.15537711534467        2.68039380587256        1.23693197999417
H           -4.90862420368254       -1.15209178967315        0.17675070135260

 projected vibrational frequencies (cm⁻¹)
eigval :       -0.00    -0.00     0.00     0.00     0.00     0.00
eigval :        8.74     9.69    12.36    21.15    29.00    30.99
eigval :       31.95    39.08    49.62    55.54    65.60    71.60
eigval :       78.16    95.98   103.75   109.57   115.23   129.70
eigval :      136.67   142.18   146.73   159.11   169.88   179.72
eigval :      190.17   196.93   204.74   213.49   219.02   228.05
eigval :      235.60   242.38   242.86   263.29   264.70   271.10
eigval :      274.13   307.83   309.86   314.83   317.10   323.18
eigval :      337.13   342.01   347.61   369.19   370.13   379.28
eigval :      383.58   393.90   405.50   405.57   410.14   416.43
eigval :      422.81   433.64   436.28   439.31   447.92   465.23
eigval :      483.27   492.52   513.41   518.83   519.73   533.12
eigval :      534.11   541.00   541.34   553.44   566.33   575.76
eigval :      588.74   602.38   608.05   615.06   622.13   628.90
eigval :      636.33   638.41   665.87   672.12   674.85   679.77
eigval :      680.53   707.72   714.22   716.49   732.25   757.22
eigval :      764.12   768.64   780.01   798.39   806.96   809.29
eigval :      811.72   821.22   852.48   855.20   868.45   869.43
eigval :      871.47   872.87   884.40   891.55   893.94   897.51
eigval :      900.47   901.87   904.95   907.71   915.37   921.75
eigval :      923.33   927.25   931.39   933.00   936.52   958.88
eigval :      959.55   961.38   962.73   963.39   963.61   966.41
eigval :      988.64   997.76  1008.82  1013.35  1019.57  1032.19
eigval :     1033.16  1034.61  1035.82  1069.75  1073.19  1117.95
eigval :     1123.92  1132.95  1134.86  1146.23  1151.49  1152.35
eigval :     1155.92  1173.02  1179.32  1180.67  1182.75  1187.26
eigval :     1198.83  1205.04  1223.36  1223.98  1231.27  1232.62
eigval :     1236.78  1239.21  1239.87  1243.62  1254.59  1261.29
eigval :     1264.68  1271.31  1283.73  1285.33  1290.66  1299.55
eigval :     1304.51  1308.03  1311.22  1315.39  1336.22  1354.57
eigval :     1356.66  1358.91  1362.12  1366.29  1387.42  1391.73
eigval :     1404.00  1404.48  1404.84  1405.33  1406.28  1414.79
eigval :     1426.37  1426.85  1427.88  1434.02  1438.97  1464.76
eigval :     1468.71  1474.25  1477.73  1488.93  1489.74  1489.95
eigval :     1490.83  1492.51  1492.63  1497.80  1499.97  1503.41
eigval :     1505.41  1511.84  1512.22  1513.28  1515.28  1517.42
eigval :     1518.51  1538.72  1551.49  1556.25  1567.78  1572.31
eigval :     1576.36  1589.70  1599.53  1615.25  2354.42  3024.41
eigval :     3024.78  3024.92  3025.47  3026.57  3026.93  3029.15
eigval :     3029.73  3031.75  3032.48  3035.25  3035.63  3038.94
eigval :     3039.26  3043.63  3044.34  3047.34  3048.04  3074.43
eigval :     3075.23  3076.91  3078.18  3078.89  3079.41  3080.82
eigval :     3085.73  3087.09  3087.36  3087.63  3088.32  3088.65
eigval :     3090.53  3091.34  3093.85  3096.61  3098.96  3101.91
eigval :     3104.75  3116.13  3116.24

   temp. (K)  partition function   enthalpy   heat capacity  entropy
                                   cal/mol     cal/K/mol   cal/K/mol   J/K/mol
 298.15  VIB  0.850E+20            25628.210    159.654    159.034
         ROT  0.873E+08              888.752      2.981     39.317
         INT  0.742E+28            26516.962    162.634    198.350
         TR   0.154E+29             1481.254      4.968     45.197
         TOT                       27998.2163   167.6026   243.5477  1019.0034

       T/K    H(0)-H(T)+PV         H(T)/Eh          T*S/Eh         G(T)/Eh
   ------------------------------------------------------------------------
    298.15    0.446180E-01    0.759235E+00    0.115717E+00    0.643518E+00
   ------------------------------------------------------------------------

         :::::::::::::::::::::::::::::::::::::::::::::::::::::
         ::                  THERMODYNAMIC                  ::
         :::::::::::::::::::::::::::::::::::::::::::::::::::::
         :: total free energy        -126.222647374129 Eh   ::
         ::.................................................::
         :: total energy             -126.866165444558 Eh   ::
         :: zero point energy           0.714617423572 Eh   ::
         :: G(RRHO) w/o ZPVE           -0.071099353143 Eh   ::
         :: G(RRHO) contrib.            0.643518070429 Eh   ::
         :::::::::::::::::::::::::::::::::::::::::::::::::::::

           -------------------------------------------------
          | TOTAL ENERGY             -126.866165444558 Eh   |
          | TOTAL ENTHALPY           -126.106930023180 Eh   |
          | TOTAL FREE ENERGY        -126.222647374129 Eh   |
          | GRADIENT NORM               0.000107550969 Eh/α |
           -------------------------------------------------

 * finished run on 2025/09/09 at 23:21:27.395
