   * xtb version 6.7.1 (edcfbbe) compiled by 'albert@albert-system' on 2024-07-22

   ID    Z sym.   atoms
    1    6 C      1-14, 16-44, 46-49
    2    7 N      15, 45
    3    1 H      50-89

          program call               : xtb data2507/gas/mCz-TAn-CN/mCz-TAn-CN_gas_S0_crest.xyz --gfn 2 --ohess vtight --parallel 40 --molden --ceasefiles --namespace data2507/gas/mCz-TAn-CN/mCz-TAn-CN_gas_S0_finalOpt
          :  Hamiltonian                  GFN2-xTB          :
 * total energy  :  -126.9287967 Eh     change       -0.3505534E-08 Eh
 * total energy  :  -126.9288012 Eh     change       -0.4500940E-05 Eh
 * total energy  :  -126.9288034 Eh     change       -0.2205701E-05 Eh
 * total energy  :  -126.9288068 Eh     change       -0.3453285E-05 Eh
 * total energy  :  -126.9288086 Eh     change       -0.1752932E-05 Eh
 * total energy  :  -126.9288107 Eh     change       -0.2119936E-05 Eh
 * total energy  :  -126.9288129 Eh     change       -0.2160443E-05 Eh
 * total energy  :  -126.9288151 Eh     change       -0.2195900E-05 Eh
 * total energy  :  -126.9288173 Eh     change       -0.2217778E-05 Eh
 * total energy  :  -126.9288196 Eh     change       -0.2296210E-05 Eh
 * total energy  :  -126.9288265 Eh     change       -0.1482534E-05 Eh
 * total energy  :  -126.9288282 Eh     change       -0.1740656E-05 Eh
 * total energy  :  -126.9288300 Eh     change       -0.1743143E-05 Eh
 * total energy  :  -126.9288312 Eh     change       -0.1190120E-05 Eh
 * total energy  :  -126.9288318 Eh     change       -0.6637480E-06 Eh
 * total energy  :  -126.9288323 Eh     change       -0.4608235E-06 Eh
 * total energy  :  -126.9288328 Eh     change       -0.5261287E-06 Eh
 * total energy  :  -126.9288336 Eh     change       -0.8231010E-06 Eh
 * total energy  :  -126.9288336 Eh     change       -0.2392994E-08 Eh
   *** GEOMETRY OPTIMIZATION CONVERGED AFTER 22 ITERATIONS ***

 final structure:
================
89
 xtb: 6.7.1 (edcfbbe)
C           -3.70454889494619       -5.37765240026317       -1.14625633812399
C           -4.21940919871570       -4.46651184012513       -0.02286354983877
C           -5.60818215037405       -3.95822389281131       -0.41990495718970
C           -4.35642167740626       -5.26951682661000        1.27836147573500
C           -3.22439405591732       -3.33969690108957        0.19516458107881
C           -1.89310135313972       -3.66311708791522        0.56260110335111
C           -0.96450759553738       -2.69906695602605        0.79436506927563
C           -1.28211937291779       -1.32236342142843        0.66983098976709
C           -0.34552965954914       -0.31647119486695        0.93094977447123
C            1.03022430345906       -0.66821103447863        1.34485703589090
C            1.29999114045927       -1.11393928118742        2.63423256296027
C            2.60083125348245       -1.39848281436839        3.01105265523315
C            3.64266345253335       -1.23576628710865        2.11678295203343
C            3.38021267382969       -0.80669274503379        0.81787203157699
N            4.42961073630879       -0.63258823295093       -0.09368648166983
C            5.45982821227151       -1.52437607604973       -0.32131076536897
C            5.64816406728834       -2.80535308477590        0.17802560259477
C            6.76570490971407       -3.50296915939736       -0.23837322655200
C            7.67529795074185       -2.95115820168497       -1.13775584313080
C            7.47899310227412       -1.68841985279272       -1.65951510099537
C            6.36249951764752       -0.96809946585687       -1.25617774155171
C            5.84594136848758        0.32623993516737       -1.60171756439388
C            6.29357526281802        1.33693250485378       -2.44208927416716
C            5.55177177752145        2.49710716934583       -2.53589867344070
C            4.38147653123495        2.65802126218389       -1.79818903938422
C            3.91511487208858        1.66566248608888       -0.95764069748096
C            4.64842181929084        0.49098097907024       -0.86814185764946
C            2.07189986216503       -0.53305726468260        0.43615334416684
C           -0.69630039121509        1.03314946144370        0.78866790205443
C            0.21864232792531        2.07215491333218        1.10323018123868
C           -0.08779370684645        3.39218599250616        0.94041711224693
C            0.87170339602507        4.52063618409750        1.27780341953901
C            2.16036833155386        4.02390977037723        1.93938074319072
C            1.24244197367109        5.25194471896630       -0.02006211702433
C            0.18892328829292        5.49376471452490        2.24955486696145
C           -1.36416095332408        3.71320543674316        0.41144108013288
C           -2.28298380878232        2.75298503523613        0.12826009640436
C           -2.00386267974981        1.37740542858555        0.33395293304441
C           -2.94515109306255        0.37027782566259        0.07944146998265
C           -4.30195168248397        0.73291077122020       -0.37354504669933
C           -4.74089196330973        0.37773272992738       -1.64847020857071
C           -6.00993032535385        0.71003670129059       -2.07493056177142
C           -6.86704527632364        1.40683692721971       -1.22145520535637
C           -8.16899215491078        1.74822176519894       -1.65076089465445
N           -9.22595130762360        2.02557347687029       -1.99854710164689
C           -6.43677519150751        1.76670583520707        0.05666270829048
C           -5.16408964416861        1.43150073442043        0.47031460528111
C           -2.60397658972576       -0.97930593636313        0.25684294597690
C           -3.54671451522976       -2.02061633912401        0.05429040278977
H           -2.74703642507650       -5.82337212554121       -0.89158816028357
H           -4.41465054213637       -6.18099927333007       -1.33020566672849
H           -3.58194476265877       -4.80845405980916       -2.06554016065003
H           -6.27623253993516       -4.80491151791744       -0.56350918589017
H           -5.56978054542185       -3.39937711306851       -1.35230378149584
H           -6.03162799878099       -3.32517739668456        0.35663556139736
H           -3.40783307667073       -5.70598854783820        1.57870376727635
H           -4.70524079996716       -4.62468823082520        2.08250165938670
H           -5.07496889292358       -6.07554527691017        1.14617186202865
H           -1.60814264108067       -4.69876405395908        0.66883245746330
H            0.04075789211683       -2.97110901675320        1.08154096569086
H            0.48884782526816       -1.22513848505708        3.33844144354937
H            2.80783156521472       -1.73516591687220        4.01621042374110
H            4.66099289384844       -1.42223432217945        2.42212356140901
H            4.93994839356091       -3.25132131776918        0.86002931512841
H            6.93573531791073       -4.50054418283390        0.13926475575819
H            8.53854262286855       -3.52742184016640       -1.43570134107912
H            8.17345110743396       -1.26687050932329       -2.37052937331158
H            7.20640421919829        1.21415721309899       -3.00521370526197
H            5.88131083249777        3.29546476837419       -3.18397009103796
H            3.82689580488833        3.58111655168335       -1.88454800329514
H            3.00848196022187        1.80699549714341       -0.38945246337911
H            1.85922400059163       -0.22279898371729       -0.57613489788990
H            1.17743396379745        1.77231243636457        1.49371844619237
H            1.94337642015291        3.47000378610198        2.85013783557153
H            2.78311601425099        4.87630537696162        2.20308913528920
H            2.73521607911209        3.39153896906188        1.26759216215231
H            1.94544628900765        6.05523393279053        0.18973925592864
H            0.36521823331150        5.68105654270656       -0.49715628839274
H            1.70632886671821        4.56003017080825       -0.72016320949909
H            0.87622108540142        6.29231380488317        2.52062058462618
H           -0.10752655306399        4.97147761486696        3.15701020779181
H           -0.69613247036991        5.94604931181774        1.81133182998922
H           -1.61960757150707        4.74629720612877        0.23126746538058
H           -3.24779047503038        3.03397072925590       -0.26822275844276
H           -4.07164014444327       -0.15712756241374       -2.30667437563060
H           -6.34790967708093        0.43671076701443       -3.06388504063400
H           -7.10520940365014        2.30466732810797        0.71295887151712
H           -4.82832403083173        1.70272828598137        1.46067979253331
H           -4.54776710410687       -1.72786624073783       -0.21518278041059

          :  Hamiltonian                  GFN2-xTB          :
         :: gradient norm              0.000088509436 Eh/a0 ::
         :: HOMO-LUMO gap              2.076362639168 eV    ::
         :: SCC energy              -129.308005878869 Eh    ::
         :: -> dispersion             -0.122073097475 Eh    ::
         :: repulsion energy           2.379172250453 Eh    ::

    * Orbital Energies and Occupations

         #    Occupation            Energy/Eh            Energy/eV
      -------------------------------------------------------------
         1        2.0000           -0.6760772             -18.3970
       ...           ...                  ...                  ...
       107        2.0000           -0.4185759             -11.3900
       108        2.0000           -0.4182872             -11.3822
       109        2.0000           -0.4167854             -11.3413
       110        2.0000           -0.4134979             -11.2518
       111        2.0000           -0.4107994             -11.1784
       112        2.0000           -0.4072823             -11.0827
       113        2.0000           -0.4049359             -11.0189
       114        2.0000           -0.4038364             -10.9889
       115        2.0000           -0.4029117             -10.9638
       116        2.0000           -0.3961590             -10.7800
       117        2.0000           -0.3782603             -10.2930
       118        2.0000           -0.3629155              -9.8754
       119        2.0000           -0.3607501              -9.8165 (HOMO)
       120                         -0.2844451              -7.7401 (LUMO)
       121                         -0.2677909              -7.2870
       122                         -0.2461847              -6.6990
       123                         -0.2423491              -6.5947
       124                         -0.2355463              -6.4095
       125                         -0.2339361              -6.3657
       126                         -0.2330929              -6.3428
       127                         -0.2215433              -6.0285
       128                         -0.2210685              -6.0156
       129                         -0.2038571              -5.5472
       130                         -0.1904524              -5.1825
       ...                                ...                  ...
       236                          1.1732269              31.9251
      -------------------------------------------------------------
                  HL-Gap            0.0763049 Eh            2.0764 eV

     #   Z          covCN         q      C6AA      α(0)
     1   6 C        3.762    -0.105    22.544     6.768
     2   6 C        3.903     0.026    20.089     6.371
     3   6 C        3.761    -0.106    22.581     6.774
     4   6 C        3.762    -0.105    22.546     6.769
     5   6 C        2.969     0.009    27.812     8.650
     6   6 C        2.921    -0.034    28.842     8.807
     7   6 C        2.915    -0.037    28.925     8.819
     8   6 C        2.985     0.004    27.938     8.670
     9   6 C        2.979    -0.007    28.178     8.707
    10   6 C        2.978     0.019    27.590     8.616
    11   6 C        2.923    -0.038    28.935     8.821
    12   6 C        2.918    -0.030    28.738     8.791
    13   6 C        2.922    -0.047    29.156     8.855
    14   6 C        2.911     0.064    26.568     8.452
    15   7 N        2.802    -0.044    22.098     6.982
    16   6 C        3.075     0.047    26.872     8.499
    17   6 C        2.910    -0.051    29.262     8.870
    18   6 C        2.924    -0.034    28.837     8.806
    19   6 C        2.920    -0.041    29.014     8.833
    20   6 C        2.913    -0.033    28.817     8.803
    21   6 C        3.068    -0.017    28.366     8.733
    22   6 C        3.068    -0.017    28.361     8.732
    23   6 C        2.913    -0.033    28.816     8.802
    24   6 C        2.920    -0.041    29.019     8.834
    25   6 C        2.924    -0.033    28.833     8.806
    26   6 C        2.910    -0.052    29.282     8.873
    27   6 C        3.074     0.047    26.874     8.500
    28   6 C        2.928    -0.047    29.167     8.857
    29   6 C        2.984     0.004    27.928     8.669
    30   6 C        2.924    -0.046    29.150     8.854
    31   6 C        2.969     0.009    27.820     8.652
    32   6 C        3.903     0.026    20.083     6.370
    33   6 C        3.761    -0.106    22.576     6.773
    34   6 C        3.762    -0.103    22.507     6.763
    35   6 C        3.762    -0.105    22.550     6.769
    36   6 C        2.922    -0.034    28.836     8.806
    37   6 C        2.914    -0.038    28.954     8.824
    38   6 C        2.984     0.004    27.934     8.670
    39   6 C        2.977    -0.011    28.285     8.724
    40   6 C        2.977     0.026    27.426     8.590
    41   6 C        2.923    -0.029    28.724     8.789
    42   6 C        2.924    -0.021    28.540     8.761
    43   6 C        2.974     0.016    27.655     8.626
    44   6 C        1.912     0.111    28.363     8.601
    45   7 N        0.911    -0.238    26.221     7.406
    46   6 C        2.925    -0.021    28.539     8.761
    47   6 C        2.923    -0.029    28.732     8.790
    48   6 C        2.983     0.004    27.917     8.667
    49   6 C        2.924    -0.048    29.203     8.862
    50   1 H        0.925     0.037     2.489     2.467
    51   1 H        0.925     0.038     2.472     2.459
    52   1 H        0.925     0.033     2.538     2.491
    53   1 H        0.925     0.038     2.475     2.460
    54   1 H        0.925     0.034     2.525     2.485
    55   1 H        0.925     0.034     2.523     2.484
    56   1 H        0.925     0.037     2.490     2.468
    57   1 H        0.925     0.034     2.537     2.491
    58   1 H        0.925     0.038     2.472     2.459
    59   1 H        0.926     0.030     2.582     2.513
    60   1 H        0.926     0.029     2.601     2.522
    61   1 H        0.926     0.034     2.531     2.488
    62   1 H        0.926     0.035     2.513     2.479
    63   1 H        0.926     0.040     2.453     2.449
    64   1 H        0.926     0.027     2.627     2.535
    65   1 H        0.926     0.029     2.607     2.525
    66   1 H        0.926     0.028     2.619     2.531
    67   1 H        0.926     0.031     2.578     2.511
    68   1 H        0.926     0.031     2.576     2.510
    69   1 H        0.926     0.028     2.620     2.531
    70   1 H        0.926     0.027     2.629     2.535
    71   1 H        0.926     0.027     2.626     2.534
    72   1 H        0.926     0.040     2.451     2.448
    73   1 H        0.926     0.035     2.518     2.482
    74   1 H        0.925     0.034     2.531     2.488
    75   1 H        0.925     0.037     2.490     2.468
    76   1 H        0.925     0.036     2.499     2.472
    77   1 H        0.925     0.038     2.475     2.460
    78   1 H        0.925     0.036     2.503     2.474
    79   1 H        0.925     0.033     2.538     2.491
    80   1 H        0.925     0.038     2.481     2.463
    81   1 H        0.925     0.033     2.539     2.492
    82   1 H        0.925     0.037     2.493     2.469
    83   1 H        0.926     0.030     2.579     2.512
    84   1 H        0.926     0.027     2.636     2.539
    85   1 H        0.926     0.039     2.463     2.454
    86   1 H        0.926     0.040     2.448     2.447
    87   1 H        0.926     0.040     2.445     2.445
    88   1 H        0.926     0.039     2.463     2.454
    89   1 H        0.926     0.035     2.512     2.478

molecular dipole:
                 x           y           z       tot (Debye)
 q only:        0.974      -0.439       0.763
   full:        1.334      -0.557       0.947       4.394

 projected vibrational frequencies (cm⁻¹)
eigval :       -0.00    -0.00     0.00     0.00     0.00     0.00
eigval :       11.73    14.62    15.92    28.14    30.66    31.75
eigval :       35.25    43.77    46.75    55.83    60.07    67.01
eigval :       78.39    91.44    91.93   106.35   110.35   135.49
eigval :      141.02   145.09   148.09   166.76   168.37   186.93
eigval :      189.60   199.80   207.64   212.69   217.94   219.03
eigval :      228.74   233.23   238.31   249.54   255.93   270.35
eigval :      272.92   295.29   305.42   317.57   319.96   329.89
eigval :      339.68   353.24   358.58   364.18   374.29   381.79
eigval :      391.35   397.08   406.31   406.91   413.80   423.96
eigval :      431.94   434.61   440.34   448.61   451.50   463.43
eigval :      486.04   507.20   517.72   519.98   521.50   534.54
eigval :      535.91   541.22   542.35   561.34   573.96   578.37
eigval :      591.01   607.73   608.78   617.96   636.89   639.36
eigval :      646.72   648.91   671.60   673.81   677.12   685.09
eigval :      699.63   708.47   717.59   730.30   740.43   757.39
eigval :      767.27   769.29   780.58   801.07   810.42   818.54
eigval :      823.17   824.93   868.15   869.43   870.61   872.74
eigval :      877.01   880.33   884.59   894.77   896.74   900.31
eigval :      906.04   908.02   908.76   919.12   922.07   923.31
eigval :      925.13   925.93   931.13   931.83   933.48   959.19
eigval :      959.90   960.65   962.52   963.36   963.59   969.16
eigval :      985.19   997.85  1007.44  1014.49  1023.29  1033.81
eigval :     1034.90  1035.16  1036.05  1071.52  1075.55  1117.81
eigval :     1126.01  1131.89  1132.43  1137.11  1152.14  1154.54
eigval :     1166.49  1175.85  1180.61  1181.80  1186.35  1190.88
eigval :     1210.15  1215.86  1227.00  1227.39  1229.56  1230.91
eigval :     1236.67  1240.91  1244.26  1249.84  1257.63  1263.24
eigval :     1265.44  1270.93  1282.85  1284.99  1300.87  1303.84
eigval :     1308.92  1312.27  1317.45  1338.49  1352.95  1359.26
eigval :     1361.32  1367.69  1392.68  1395.07  1405.91  1406.48
eigval :     1406.69  1407.37  1417.38  1423.33  1428.20  1430.14
eigval :     1430.54  1434.80  1446.66  1460.21  1467.87  1476.26
eigval :     1485.01  1488.51  1488.73  1492.21  1492.26  1493.70
eigval :     1493.99  1499.38  1500.60  1505.62  1506.16  1514.72
eigval :     1514.77  1518.51  1519.05  1520.08  1532.91  1543.93
eigval :     1547.94  1571.64  1575.96  1588.13  1588.92  1590.15
eigval :     1599.70  1611.85  1615.67  1625.96  2373.76  3023.57
eigval :     3023.65  3025.07  3025.22  3026.55  3027.57  3030.51
eigval :     3030.78  3032.18  3032.34  3034.91  3036.20  3039.16
eigval :     3044.24  3044.63  3046.72  3050.23  3050.74  3074.85
eigval :     3076.11  3077.15  3077.59  3079.15  3080.45  3081.31
eigval :     3081.88  3082.84  3088.58  3090.60  3091.00  3091.93
eigval :     3091.93  3092.09  3092.78  3093.04  3095.38  3097.02
eigval :     3099.21  3114.60  3121.25

   temp. (K)  partition function   enthalpy   heat capacity  entropy
                                   cal/mol     cal/K/mol   cal/K/mol   J/K/mol
 298.15  VIB  0.248E+20            25519.986    158.836    157.814
         ROT  0.907E+08              888.752      2.981     39.393
         INT  0.224E+28            26408.738    161.817    197.207
         TR   0.154E+29             1481.254      4.968     45.197
         TOT                       27889.9918   166.7848   242.4041  1014.2190

       T/K    H(0)-H(T)+PV         H(T)/Eh          T*S/Eh         G(T)/Eh
   ------------------------------------------------------------------------
    298.15    0.444455E-01    0.761735E+00    0.115174E+00    0.646561E+00
   ------------------------------------------------------------------------

         :::::::::::::::::::::::::::::::::::::::::::::::::::::
         ::                  THERMODYNAMIC                  ::
         :::::::::::::::::::::::::::::::::::::::::::::::::::::
         :: total free energy        -126.282273017213 Eh   ::
         ::.................................................::
         :: total energy             -126.928833628410 Eh   ::
         :: zero point energy           0.717289112945 Eh   ::
         :: G(RRHO) w/o ZPVE           -0.070728501748 Eh   ::
         :: G(RRHO) contrib.            0.646560611197 Eh   ::
         :::::::::::::::::::::::::::::::::::::::::::::::::::::

           -------------------------------------------------
          | TOTAL ENERGY             -126.928833628410 Eh   |
          | TOTAL ENTHALPY           -126.167098984424 Eh   |
          | TOTAL FREE ENERGY        -126.282273017213 Eh   |
          | GRADIENT NORM               0.000088487925 Eh/α |
          | HOMO-LUMO GAP               2.076362554657 eV   |
           -------------------------------------------------

 * finished run on 2025/09/09 at 23:10:30.417
