   * xtb version 6.7.1 (edcfbbe) compiled by 'albert@albert-system' on 2024-07-22

   ID    Z sym.   atoms
    1    6 C      1-9, 11-25
    2    7 N      10, 26
    3    1 H      27-50

          program call               : xtb data2507/toluene/TMDBP/TMDBP_toluene_S0_finalOpt.xtbopt.xyz --gfn 2 --uhf 2 --gbsa toluene --ohess vtight --parallel 40 --molden --ceasefiles --namespace data2507/toluene/TMDBP/TMDBP_toluene_T1_preOpt
      * Solvation model:               GBSA
        Solvent                        toluene
        Solvent mass                       9.2140E+01 g/mol
          :  Hamiltonian                  GFN2-xTB          :
 * total energy  :   -69.4423092 Eh     change       -0.1939399E-07 Eh
 * total energy  :   -69.4467417 Eh     change       -0.4432515E-02 Eh
 * total energy  :   -69.4482170 Eh     change       -0.1475342E-02 Eh
 * total energy  :   -69.4483451 Eh     change       -0.1281081E-03 Eh
 * total energy  :   -69.4484016 Eh     change       -0.5647026E-04 Eh
 * total energy  :   -69.4484097 Eh     change       -0.8137987E-05 Eh
 * total energy  :   -69.4484199 Eh     change       -0.1010784E-04 Eh
 * total energy  :   -69.4484249 Eh     change       -0.5085155E-05 Eh
 * total energy  :   -69.4484289 Eh     change       -0.3958303E-05 Eh
 * total energy  :   -69.4484304 Eh     change       -0.1458612E-05 Eh
 * total energy  :   -69.4484310 Eh     change       -0.6344950E-06 Eh
 * total energy  :   -69.4484313 Eh     change       -0.2769395E-06 Eh
 * total energy  :   -69.4484312 Eh     change        0.5152033E-07 Eh
 * total energy  :   -69.4484314 Eh     change       -0.1912839E-06 Eh
 * total energy  :   -69.4484315 Eh     change       -0.6866358E-07 Eh
   *** GEOMETRY OPTIMIZATION CONVERGED AFTER 15 ITERATIONS ***

 final structure:
================
50
 xtb: 6.7.1 (edcfbbe)
C           -3.40913545588866        2.11048612399601       -1.24835693185410
C           -2.88711885470852        1.38285240497816        0.01078630057499
C           -3.39410253755718        2.11542947595792        1.27307285503572
C           -3.45419628628175       -0.01706984180605        0.01657994188730
C           -4.81270089776254       -0.25510187177901        0.02746470417233
C           -5.33451205629083       -1.54613769088655        0.03615618707650
C           -4.46652737398979       -2.64638477267287        0.03507727876565
C           -3.11377533035336       -2.44738735830496        0.02455601925579
C           -2.58215108361899       -1.13671430740808        0.01426323644987
N           -1.23378967210241       -0.97163679392268        0.00114674350193
C           -0.56319289244364        0.21531994799632       -0.00649106226951
C           -1.38102895917504        1.43053506874738        0.00107948529341
C           -0.72162015440681        2.65124669584202       -0.00491829113672
C            0.64566998397111        2.73405091125371       -0.01230085805565
C            1.44183334571533        1.52496529688212       -0.01675896656398
C            0.84016978204741        0.27487783172884       -0.01802185456885
C            1.69823939198510       -0.99076786443941       -0.06569022310569
C            1.33447621501391       -1.94054199328518        1.10916908265453
C            1.49182777031103       -1.67423274989019       -1.43837449909021
C            3.18800691321314       -0.68328975004869        0.01924985291395
C            4.11105685621953       -1.71102510390052        0.05507755190922
C            5.48042818361550       -1.47026990228008        0.09949703408184
C            5.95260496655230       -0.15730854179406        0.10534834384689
C            5.06272820440115        0.88638767570047        0.06748057701354
C            3.67908009922152        0.63968028362463        0.02205736943550
N            2.79826251114496        1.67903217494899       -0.01595701174120
H           -4.49523578890272        2.11786095002356       -1.26059194604976
H           -3.05631238969282        1.60027893665028       -2.14253792017062
H           -3.05785887040453        3.13775424666088       -1.27515822742354
H           -4.47996184865378        2.12587244734633        1.29704557842526
H           -3.03991359123703        3.14186744014755        1.29315021980488
H           -3.03325086685493        1.60716308005233        2.16521448726455
H           -5.50569247283247        0.57355556192628        0.02996581295977
H           -6.40266560524250       -1.69814782527144        0.04454832673377
H           -4.86989736530337       -3.64876720680468        0.04262107638287
H           -2.42995880094205       -3.28557336755481        0.02381590580605
H           -0.68353196910907       -1.81669631344503        0.02341115159842
H           -1.29075702697964        3.56876764368327       -0.00351128540760
H            1.15144934839157        3.68669116656381       -0.01736889203788
H            0.62717284169922       -1.47074038821767        1.78937848796633
H            2.22282822233321       -2.17450472820228        1.69134281271276
H            0.92197548288615       -2.88552388464323        0.75799841246414
H            1.88979621097495       -1.02988993888921       -2.22092380892927
H            2.02749794780836       -2.61966077965856       -1.47614091636397
H            0.44536087741303       -1.85862578628657       -1.66607363171306
H            3.77154580512960       -2.73686065920429        0.04886739304429
H            6.17344358389058       -2.29723660977198        0.12611863470689
H            7.01513708676594        0.03533629704417        0.13944043954349
H            5.40929108584291        1.91081314857708        0.07231909128039
H            3.16717979305054        2.61945744379936       -0.00799267052723

          :  Hamiltonian                  GFN2-xTB          :
         :: gradient norm              0.000053669860 Eh/a0 ::
         :: HOMO-LUMO gap              0.315868664086 eV    ::
         :: SCC energy               -70.642582702554 Eh    ::
         :: -> dispersion             -0.063676493545 Eh    ::
         :: -> Gsolv                  -0.025347856144 Eh    ::
         :: repulsion energy           1.194151224722 Eh    ::

    * Orbital Energies and Occupations

         #    Occupation            Energy/Eh            Energy/eV
      -------------------------------------------------------------
         1        2.0000           -0.6623815             -18.0243
       ...           ...                  ...                  ...
        54        2.0000           -0.4307668             -11.7218
        55        2.0000           -0.4294439             -11.6858
        56        2.0000           -0.4170492             -11.3485
        57        2.0000           -0.4119743             -11.2104
        58        2.0000           -0.4072707             -11.0824
        59        2.0000           -0.3990664             -10.8591
        60        2.0000           -0.3948480             -10.7444
        61        2.0000           -0.3924779             -10.6799
        62        2.0000           -0.3898599             -10.6086
        63        2.0000           -0.3897983             -10.6070
        64        1.9916           -0.3469491              -9.4410
        65        1.0084           -0.3378772              -9.1941
        66        0.9977           -0.2272485              -6.1837 (HOMO)
        67        0.0022           -0.2156406              -5.8679 (LUMO)
        68        0.0001           -0.2123716              -5.7789
        69        0.0000           -0.2103939              -5.7251
        70                         -0.1910469              -5.1987
        71                         -0.1796978              -4.8898
        72                         -0.0932163              -2.5365
        73                         -0.0801227              -2.1803
        74                         -0.0738264              -2.0089
        75                          0.0199308               0.5423
        76                          0.0375765               1.0225
        77                          0.0417466               1.1360
       ...                                ...                  ...
       128                          0.6831351              18.5891
      -------------------------------------------------------------
                  HL-Gap            0.0116079 Eh            0.3159 eV

     #   Z          covCN         q      C6AA      α(0)
     1   6 C        3.762    -0.101    22.468     6.757
     2   6 C        3.908     0.025    20.088     6.371
     3   6 C        3.762    -0.101    22.469     6.757
     4   6 C        2.975    -0.014    28.348     8.734
     5   6 C        2.919    -0.041    29.022     8.834
     6   6 C        2.916    -0.059    29.472     8.902
     7   6 C        2.913    -0.038    28.949     8.823
     8   6 C        2.918    -0.064    29.592     8.921
     9   6 C        2.914     0.039    27.135     8.542
    10   7 N        2.702    -0.102    23.234     7.159
    11   6 C        2.909     0.026    27.431     8.588
    12   6 C        2.973    -0.020    28.514     8.759
    13   6 C        2.909    -0.038    28.949     8.823
    14   6 C        2.913    -0.074    29.851     8.959
    15   6 C        2.915     0.036    27.201     8.552
    16   6 C        2.964    -0.044    29.094     8.847
    17   6 C        3.903     0.018    20.214     6.391
    18   6 C        3.754    -0.112    22.704     6.794
    19   6 C        3.761    -0.105    22.560     6.771
    20   6 C        2.979    -0.015    28.380     8.739
    21   6 C        2.922    -0.042    29.044     8.838
    22   6 C        2.916    -0.057    29.410     8.893
    23   6 C        2.915    -0.038    28.952     8.823
    24   6 C        2.919    -0.063    29.555     8.915
    25   6 C        2.920     0.045    26.992     8.520
    26   7 N        2.704    -0.106    23.333     7.174
    27   1 H        0.925     0.045     2.389     2.417
    28   1 H        0.925     0.035     2.523     2.484
    29   1 H        0.925     0.044     2.391     2.418
    30   1 H        0.925     0.045     2.390     2.417
    31   1 H        0.925     0.044     2.392     2.418
    32   1 H        0.925     0.034     2.530     2.487
    33   1 H        0.926     0.024     2.679     2.559
    34   1 H        0.926     0.015     2.804     2.618
    35   1 H        0.926     0.020     2.739     2.588
    36   1 H        0.925     0.017     2.772     2.604
    37   1 H        0.860     0.190     1.159     1.686
    38   1 H        0.926     0.032     2.558     2.501
    39   1 H        0.926     0.023     2.694     2.567
    40   1 H        0.925     0.038     2.474     2.460
    41   1 H        0.925     0.044     2.390     2.418
    42   1 H        0.925     0.034     2.528     2.486
    43   1 H        0.925     0.034     2.536     2.490
    44   1 H        0.925     0.040     2.443     2.444
    45   1 H        0.925     0.035     2.519     2.482
    46   1 H        0.926     0.028     2.620     2.531
    47   1 H        0.926     0.017     2.774     2.605
    48   1 H        0.926     0.021     2.721     2.580
    49   1 H        0.925     0.020     2.739     2.588
    50   1 H        0.860     0.168     1.283     1.774

molecular dipole:
                 x           y           z       tot (Debye)
 q only:        0.021       0.523      -0.006
   full:        0.174       0.543      -0.011       1.450

 projected vibrational frequencies (cm⁻¹)
eigval :       -0.00    -0.00    -0.00    -0.00     0.00     0.00
eigval :       22.20    38.44    72.57    86.58   102.99   108.27
eigval :      114.99   142.37   157.76   180.99   188.14   208.54
eigval :      208.78   219.63   227.27   245.03   268.50   289.05
eigval :      294.95   311.89   321.65   327.98   340.83   357.30
eigval :      383.16   397.33   409.96   411.91   431.92   454.84
eigval :      466.81   503.70   511.32   516.53   524.20   534.28
eigval :      544.98   554.19   571.44   575.46   614.40   619.84
eigval :      634.01   645.40   660.75   671.75   693.15   715.15
eigval :      730.02   748.87   767.44   785.28   816.33   825.70
eigval :      834.29   842.36   858.24   890.99   894.90   898.88
eigval :      900.98   910.25   921.26   937.52   953.95   954.08
eigval :      964.82  1009.73  1027.62  1033.87  1057.60  1078.56
eigval :     1080.53  1089.28  1096.54  1120.40  1136.45  1137.83
eigval :     1142.42  1151.91  1163.34  1172.40  1177.81  1192.53
eigval :     1214.36  1223.38  1229.13  1243.42  1260.99  1273.03
eigval :     1289.49  1297.99  1312.07  1337.64  1345.53  1365.73
eigval :     1368.84  1377.54  1390.54  1406.81  1407.84  1410.18
eigval :     1412.42  1421.53  1451.06  1462.42  1470.39  1473.03
eigval :     1481.84  1484.16  1487.57  1488.64  1494.29  1497.40
eigval :     1501.42  1507.96  1517.71  1523.32  1541.60  1587.24
eigval :     3001.05  3020.94  3024.22  3026.07  3028.23  3033.20
eigval :     3041.39  3042.60  3043.14  3043.28  3048.92  3050.94
eigval :     3052.43  3056.47  3070.41  3071.13  3072.56  3073.89
eigval :     3075.20  3088.76  3089.82  3091.37  3412.93  3439.63

   temp. (K)  partition function   enthalpy   heat capacity  entropy
                                   cal/mol     cal/K/mol   cal/K/mol   J/K/mol
 298.15  VIB  0.679E+08            12904.643     88.309     75.673
         ROT  0.105E+08              888.752      2.981     35.116
         INT  0.715E+15            13793.395     91.290    110.789
         TR   0.608E+28             1481.254      4.968     43.350
         TOT                       15274.6494    96.2585   154.1387   644.9165

       T/K    H(0)-H(T)+PV         H(T)/Eh          T*S/Eh         G(T)/Eh
   ------------------------------------------------------------------------
    298.15    0.243417E-01    0.429275E+00    0.732363E-01    0.356039E+00
   ------------------------------------------------------------------------

         :::::::::::::::::::::::::::::::::::::::::::::::::::::
         ::                  THERMODYNAMIC                  ::
         :::::::::::::::::::::::::::::::::::::::::::::::::::::
         :: total free energy         -69.092392569711 Eh   ::
         ::.................................................::
         :: total energy              -69.448431473559 Eh   ::
         :: zero point energy           0.404933490470 Eh   ::
         :: G(RRHO) w/o ZPVE           -0.048894586623 Eh   ::
         :: G(RRHO) contrib.            0.356038903848 Eh   ::
         :::::::::::::::::::::::::::::::::::::::::::::::::::::

           -------------------------------------------------
          | TOTAL ENERGY              -69.448431473559 Eh   |
          | TOTAL ENTHALPY            -69.019156279823 Eh   |
          | TOTAL FREE ENERGY         -69.092392569711 Eh   |
          | GRADIENT NORM               0.000053948956 Eh/α |
          | HOMO-LUMO GAP               0.315868061683 eV   |
           -------------------------------------------------

 * finished run on 2025/09/12 at 23:48:53.422
