   * xtb version 6.7.1 (edcfbbe) compiled by 'albert@albert-system' on 2024-07-22

   ID    Z sym.   atoms
    1    6 C      1-9, 11-25
    2    7 N      10, 26
    3    1 H      27-50

          program call               : xtb data2507/toluene/TMDBP/TMDBP_toluene_S0_crest.xyz --gfn 2 --gbsa toluene --ohess vtight --parallel 40 --molden --ceasefiles --namespace data2507/toluene/TMDBP/TMDBP_toluene_S0_finalOpt
      * Solvation model:               GBSA
        Solvent                        toluene
        Solvent mass                       9.2140E+01 g/mol
          :  Hamiltonian                  GFN2-xTB          :
 * total energy  :   -69.5632125 Eh     change       -0.1873758E-08 Eh
 * total energy  :   -69.5632412 Eh     change       -0.2870246E-04 Eh
 * total energy  :   -69.5632457 Eh     change       -0.4586677E-05 Eh
 * total energy  :   -69.5632473 Eh     change       -0.1562670E-05 Eh
 * total energy  :   -69.5632484 Eh     change       -0.1092457E-05 Eh
 * total energy  :   -69.5632492 Eh     change       -0.8290902E-06 Eh
 * total energy  :   -69.5632499 Eh     change       -0.6887039E-06 Eh
 * total energy  :   -69.5632504 Eh     change       -0.4703684E-06 Eh
 * total energy  :   -69.5632507 Eh     change       -0.3424224E-06 Eh
 * total energy  :   -69.5632510 Eh     change       -0.2306718E-06 Eh
 * total energy  :   -69.5632511 Eh     change       -0.1821304E-06 Eh
 * total energy  :   -69.5632513 Eh     change       -0.1233577E-06 Eh
 * total energy  :   -69.5632514 Eh     change       -0.1168742E-06 Eh
 * total energy  :   -69.5632515 Eh     change       -0.1616962E-06 Eh
 * total energy  :   -69.5632517 Eh     change       -0.1747608E-06 Eh
 * total energy  :   -69.5632518 Eh     change       -0.1246806E-06 Eh
 * total energy  :   -69.5632519 Eh     change       -0.2029805E-07 Eh
   *** GEOMETRY OPTIMIZATION CONVERGED AFTER 17 ITERATIONS ***

 final structure:
================
50
 xtb: 6.7.1 (edcfbbe)
C           -3.39546563513371        2.09445812612468       -1.25012032917591
C           -2.88196251487714        1.37515017790128        0.01163287890095
C           -3.38373539281188        2.10065888477794        1.27464686622703
C           -3.43683472244733       -0.03663659652347        0.01777794215517
C           -4.80441341601334       -0.26929243441681        0.03505862314538
C           -5.32498063968000       -1.55219955307743        0.04322029350580
C           -4.46902568892212       -2.64075719131004        0.03478114346255
C           -3.10534082191436       -2.43585603990461        0.01666552473448
C           -2.58268135711351       -1.14100898756205        0.00700811431220
N           -1.22046879699082       -0.97754007009335       -0.01854774198168
C           -0.57617485005342        0.24080753430873       -0.01009285092460
C           -1.35937367138442        1.40365284885175        0.00404153873813
C           -0.71335444693129        2.63038027694684        0.00587872975364
C            0.65974879806836        2.71626666607307       -0.00479422325213
C            1.43271004450093        1.55740419453918       -0.02150329472384
C            0.83194379267731        0.29786386567592       -0.02140278182783
C            1.68671564728320       -0.96834075927075       -0.06858811597258
C            1.32984379531867       -1.90984406435360        1.11486896729639
C            1.47973040823473       -1.65104735626242       -1.44107503840185
C            3.17814965065432       -0.66743488676013        0.01236416773698
C            4.09253532590786       -1.71128428469269        0.05577815799859
C            5.45680717828426       -1.48245348391231        0.10316309876988
C            5.93602219527752       -0.18275293661144        0.10792852148178
C            5.04859271428662        0.87189507445640        0.06383610395730
C            3.67362832431420        0.63730955028255        0.01185275412917
N            2.80269115319874        1.69414862210240       -0.04169852888348
H           -4.48192615985939        2.10118623759343       -1.27460753711759
H           -3.03451653278980        1.58312989844202       -2.14104021443127
H           -3.04715685185504        3.12312182779012       -1.28038373516096
H           -4.46983513552254        2.11077382848416        1.30801775741737
H           -3.03327457284670        3.12866200315569        1.29850990448168
H           -3.01719209498156        1.59203091233971        2.16488356494088
H           -5.48940557997367        0.56548833493171        0.04242070375988
H           -6.39463348854401       -1.70030061137843        0.05669303860907
H           -4.86344069024447       -3.64655144646082        0.04211101563440
H           -2.42620645517874       -3.27763428971158        0.00986396161892
H           -0.66604103467009       -1.81465865905096        0.00884585032092
H           -1.28626020121659        3.54443990310353        0.01538224832707
H            1.14880816143468        3.67972776961864       -0.00275872711299
H            0.57425392976656       -1.46588800837368        1.75942193798287
H            2.20785907188458       -2.08158162930099        1.73380854767823
H            0.98044841011022       -2.88219976110861        0.77064491961076
H            1.90539665569391       -1.01937899631528       -2.21955717071552
H            1.98850810737282       -2.61147877989716       -1.47104101315673
H            0.43103258743713       -1.80367452380930       -1.68128573783438
H            3.73736978921771       -2.73125407773764        0.05423364155257
H            6.14274223947409       -2.31585253742469        0.13485694880197
H            6.99869719975865        0.00774567385923        0.14566710052371
H            5.40697503107495        1.89206953428020        0.06748949579898
H            3.18067374362405        2.62867975388129       -0.01875303289084

          :  Hamiltonian                  GFN2-xTB          :
         :: gradient norm              0.000058364278 Eh/a0 ::
         :: HOMO-LUMO gap              3.217338567379 eV    ::
         :: SCC energy               -70.780162854510 Eh    ::
         :: -> dispersion             -0.063988249889 Eh    ::
         :: -> Gsolv                  -0.024962821620 Eh    ::
         :: repulsion energy           1.216910988447 Eh    ::

    * Orbital Energies and Occupations

         #    Occupation            Energy/Eh            Energy/eV
      -------------------------------------------------------------
         1        2.0000           -0.6619719             -18.0132
       ...           ...                  ...                  ...
        53        2.0000           -0.4372348             -11.8978
        54        2.0000           -0.4330532             -11.7840
        55        2.0000           -0.4304261             -11.7125
        56        2.0000           -0.4184944             -11.3878
        57        2.0000           -0.4138143             -11.2605
        58        2.0000           -0.4060663             -11.0496
        59        2.0000           -0.4009133             -10.9094
        60        2.0000           -0.3994924             -10.8707
        61        2.0000           -0.3953157             -10.7571
        62        2.0000           -0.3934600             -10.7066
        63        2.0000           -0.3904285             -10.6241
        64        2.0000           -0.3469857              -9.4420
        65        2.0000           -0.3394953              -9.2381 (HOMO)
        66                         -0.2212603              -6.0208 (LUMO)
        67                         -0.2190227              -5.9599
        68                         -0.2172442              -5.9115
        69                         -0.2153985              -5.8613
        70                         -0.1933547              -5.2614
        71                         -0.1760545              -4.7907
        72                         -0.0897019              -2.4409
        73                         -0.0799996              -2.1769
        74                         -0.0705072              -1.9186
        75                          0.0162488               0.4422
        76                          0.0384454               1.0462
       ...                                ...                  ...
       128                          0.6905834              18.7917
      -------------------------------------------------------------
                  HL-Gap            0.1182350 Eh            3.2173 eV

     #   Z          covCN         q      C6AA      α(0)
     1   6 C        3.761    -0.103    22.517     6.765
     2   6 C        3.908     0.022    20.154     6.381
     3   6 C        3.761    -0.103    22.518     6.765
     4   6 C        2.980    -0.014    28.365     8.736
     5   6 C        2.926    -0.038    28.956     8.825
     6   6 C        2.918    -0.049    29.214     8.863
     7   6 C        2.919    -0.036    28.884     8.813
     8   6 C        2.925    -0.066    29.650     8.930
     9   6 C        2.917     0.063    26.594     8.457
    10   7 N        2.706    -0.157    24.388     7.335
    11   6 C        2.917     0.058    26.707     8.474
    12   6 C        2.978    -0.029    28.713     8.790
    13   6 C        2.925    -0.041    29.021     8.834
    14   6 C        2.922    -0.079    29.976     8.979
    15   6 C        2.917     0.060    26.650     8.465
    16   6 C        2.973    -0.048    29.188     8.862
    17   6 C        3.903     0.020    20.189     6.387
    18   6 C        3.755    -0.112    22.695     6.793
    19   6 C        3.762    -0.106    22.573     6.773
    20   6 C        2.984    -0.015    28.377     8.738
    21   6 C        2.927    -0.040    29.003     8.832
    22   6 C        2.918    -0.049    29.217     8.864
    23   6 C        2.919    -0.035    28.867     8.811
    24   6 C        2.924    -0.065    29.611     8.924
    25   6 C        2.919     0.064    26.565     8.452
    26   7 N        2.707    -0.146    24.158     7.300
    27   1 H        0.925     0.039     2.466     2.456
    28   1 H        0.925     0.029     2.597     2.520
    29   1 H        0.925     0.040     2.455     2.450
    30   1 H        0.925     0.039     2.464     2.455
    31   1 H        0.925     0.040     2.454     2.450
    32   1 H        0.925     0.029     2.605     2.524
    33   1 H        0.926     0.028     2.608     2.525
    34   1 H        0.926     0.023     2.693     2.566
    35   1 H        0.926     0.025     2.652     2.547
    36   1 H        0.925     0.022     2.710     2.574
    37   1 H        0.860     0.183     1.199     1.715
    38   1 H        0.926     0.031     2.579     2.511
    39   1 H        0.926     0.021     2.724     2.581
    40   1 H        0.925     0.039     2.463     2.454
    41   1 H        0.925     0.044     2.394     2.419
    42   1 H        0.925     0.036     2.506     2.476
    43   1 H        0.925     0.034     2.533     2.489
    44   1 H        0.925     0.041     2.431     2.438
    45   1 H        0.925     0.038     2.480     2.463
    46   1 H        0.926     0.033     2.538     2.491
    47   1 H        0.926     0.024     2.674     2.557
    48   1 H        0.926     0.026     2.642     2.542
    49   1 H        0.925     0.023     2.694     2.567
    50   1 H        0.860     0.161     1.327     1.804

molecular dipole:
                 x           y           z       tot (Debye)
 q only:        0.238       0.080       0.002
   full:        0.377       0.120       0.016       1.007

 projected vibrational frequencies (cm⁻¹)
eigval :       -0.00    -0.00     0.00     0.00     0.00     0.00
eigval :       29.43    34.51    75.89    85.91   105.12   106.42
eigval :      118.74   131.86   156.87   179.90   194.15   203.07
eigval :      213.80   220.79   235.31   251.05   255.02   292.22
eigval :      297.67   314.53   332.71   338.26   353.48   382.72
eigval :      404.27   413.70   418.26   462.32   463.97   469.24
eigval :      475.45   514.71   524.97   530.67   540.38   547.92
eigval :      552.78   567.37   578.14   608.36   616.19   629.47
eigval :      666.68   685.23   693.03   697.65   728.21   775.14
eigval :      779.07   788.51   809.63   812.02   846.70   859.98
eigval :      863.89   868.94   889.86   906.14   911.27   916.72
eigval :      918.85   923.28   927.24   954.52   955.08   967.06
eigval :     1013.27  1030.22  1068.82  1079.39  1088.38  1095.96
eigval :     1107.52  1113.92  1140.38  1142.02  1154.69  1157.05
eigval :     1176.03  1181.79  1184.95  1207.00  1212.61  1219.00
eigval :     1234.61  1253.38  1255.76  1263.29  1275.71  1286.65
eigval :     1302.09  1332.25  1336.99  1338.29  1360.67  1398.78
eigval :     1402.04  1408.46  1417.20  1421.87  1438.95  1461.85
eigval :     1471.12  1483.94  1486.56  1486.80  1488.55  1496.59
eigval :     1497.79  1501.46  1503.42  1508.49  1509.75  1523.57
eigval :     1573.07  1581.29  1590.42  1591.20  1597.91  1600.17
eigval :     3004.82  3019.91  3020.33  3022.61  3023.88  3033.56
eigval :     3036.65  3038.68  3040.74  3043.75  3045.58  3049.45
eigval :     3056.54  3061.05  3068.82  3070.60  3072.74  3077.50
eigval :     3079.08  3088.92  3090.48  3093.02  3442.88  3503.86

   temp. (K)  partition function   enthalpy   heat capacity  entropy
                                   cal/mol     cal/K/mol   cal/K/mol   J/K/mol
 298.15  VIB  0.405E+08            12530.969     85.648     73.614
         ROT  0.104E+08              888.752      2.981     35.098
         INT  0.423E+15            13419.721     88.629    108.711
         TR   0.608E+28             1481.254      4.968     43.350
         TOT                       14900.9748    93.5974   152.0614   636.2251

       T/K    H(0)-H(T)+PV         H(T)/Eh          T*S/Eh         G(T)/Eh
   ------------------------------------------------------------------------
    298.15    0.237462E-01    0.434982E+00    0.722493E-01    0.362733E+00
   ------------------------------------------------------------------------

         :::::::::::::::::::::::::::::::::::::::::::::::::::::
         ::                  THERMODYNAMIC                  ::
         :::::::::::::::::::::::::::::::::::::::::::::::::::::
         :: total free energy         -69.200518895724 Eh   ::
         ::.................................................::
         :: total energy              -69.563251862507 Eh   ::
         :: zero point energy           0.411236051695 Eh   ::
         :: G(RRHO) w/o ZPVE           -0.048503084912 Eh   ::
         :: G(RRHO) contrib.            0.362732966783 Eh   ::
         :::::::::::::::::::::::::::::::::::::::::::::::::::::

           -------------------------------------------------
          | TOTAL ENERGY              -69.563251862507 Eh   |
          | TOTAL ENTHALPY            -69.128269595990 Eh   |
          | TOTAL FREE ENERGY         -69.200518895724 Eh   |
          | GRADIENT NORM               0.000058379714 Eh/α |
          | HOMO-LUMO GAP               3.217338153917 eV   |
           -------------------------------------------------

 * finished run on 2025/09/12 at 23:48:51.588
