   * xtb version 6.7.1 (edcfbbe) compiled by 'albert@albert-system' on 2024-07-22

   ID    Z sym.   atoms
    1    6 C      1-9, 11-25
    2    7 N      10, 26
    3    1 H      27-50

          program call               : xtb data2507/toluene/TMDBP/TMDBP.xyz --gfn 2 --gbsa toluene --ohess vtight --parallel 40 --molden --ceasefiles --namespace data2507/toluene/TMDBP/TMDBP_toluene_S0_preOpt
      * Solvation model:               GBSA
        Solvent                        toluene
        Solvent mass                       9.2140E+01 g/mol
          :  Hamiltonian                  GFN2-xTB          :
 * total energy  :   -69.5505644 Eh     change       -0.3088985E-08 Eh
 * total energy  :   -69.5589617 Eh     change       -0.8397320E-02 Eh
 * total energy  :   -69.5613377 Eh     change       -0.2375938E-02 Eh
 * total energy  :   -69.5616948 Eh     change       -0.3571079E-03 Eh
 * total energy  :   -69.5618396 Eh     change       -0.1448445E-03 Eh
 * total energy  :   -69.5619030 Eh     change       -0.6342153E-04 Eh
 * total energy  :   -69.5619986 Eh     change       -0.9556977E-04 Eh
 * total energy  :   -69.5620644 Eh     change       -0.6575813E-04 Eh
 * total energy  :   -69.5621501 Eh     change       -0.8577866E-04 Eh
 * total energy  :   -69.5622071 Eh     change       -0.5693763E-04 Eh
 * total energy  :   -69.5624838 Eh     change       -0.1465320E-06 Eh
 * total energy  :   -69.5624839 Eh     change       -0.1524643E-06 Eh
 * total energy  :   -69.5624841 Eh     change       -0.1480512E-06 Eh
 * total energy  :   -69.5624842 Eh     change       -0.1383102E-06 Eh
 * total energy  :   -69.5624843 Eh     change       -0.1255000E-06 Eh
 * total energy  :   -69.5624845 Eh     change       -0.1375344E-06 Eh
 * total energy  :   -69.5624846 Eh     change       -0.1224416E-06 Eh
 * total energy  :   -69.5624847 Eh     change       -0.1190977E-06 Eh
 * total energy  :   -69.5624848 Eh     change       -0.9139868E-07 Eh
   *** GEOMETRY OPTIMIZATION CONVERGED AFTER 39 ITERATIONS ***

 final structure:
================
50
 xtb: 6.7.1 (edcfbbe)
C           -3.40657393499722        1.86052433655118       -1.26252372353479
C           -2.84381493964444        1.18046212603877        0.00001587124562
C           -3.40669748862591        1.86042476897947        1.26255421600467
C           -3.28646112326631       -0.27033734731060       -0.00005202540567
C           -4.63171892944376       -0.60968479096663       -0.00001921054805
C           -5.04991983714358       -1.92951720666655       -0.00003386495621
C           -4.11102203827398       -2.94750609189389       -0.00007698408630
C           -2.76747427905777       -2.63621883333626       -0.00016005984420
C           -2.34858749209816       -1.30426818750400       -0.00017055543899
N           -1.00247750567125       -1.03501128544063       -0.00027173626732
C           -0.45512064479960        0.23161018816799       -0.00006320292593
C           -1.32811565679992        1.32854546455612        0.00009011114426
C           -0.78124440229155        2.60275894947185        0.00029547278557
C            0.58058427617342        2.79858087062879        0.00038573713621
C            1.44357515438974        1.70509302291559        0.00028789446887
C            0.94410704390105        0.40208922521386        0.00002981760408
C            1.89529644617310       -0.79194635698770        0.00000809018540
C            1.69005659468801       -1.61657486526017        1.29677638568405
C            1.68958403052717       -1.61731842164338       -1.29629358683643
C            3.36096156371506       -0.37657553236842       -0.00016561877672
C            4.35339224054852       -1.34668622245468       -0.00058817914397
C            5.69660216060883       -1.01153474852583       -0.00061232465598
C            6.07292703013167        0.32144752563491       -0.00029731815457
C            5.10520999435010        1.30441155899841        0.00003120483094
C            3.75195431066974        0.96341858249867        0.00012373361545
N            2.79872053806479        1.94878267882056        0.00047283116390
H           -4.49049228754887        1.78736758536669       -1.28934962105739
H           -3.00717471978489        1.37769705316759       -2.15300914035276
H           -3.13516445276503        2.91203746726993       -1.29194631564091
H           -3.00730616056089        1.37758710705551        2.15303698681271
H           -4.49061068906983        1.78717864020899        1.28931950627234
H           -3.13538664512673        2.91196028264229        1.29204302051657
H           -5.38001946574326        0.16887503116087        0.00000956287154
H           -6.10476718739180       -2.16113561592571       -0.00000653909645
H           -4.42519080637619       -3.98119108675266       -0.00004319903787
H           -2.02377800269314       -3.42165091599096       -0.00021379641631
H           -0.38688679831647       -1.82964726571265       -0.00080389281700
H           -1.42532315071358        3.46821377981224        0.00037800190613
H            0.99048249734353        3.79829067481724        0.00053893174610
H            1.98498410000968       -2.65362341145451        1.15474792791807
H            0.66672194764011       -1.59088666282782        1.65966983784246
H            2.31386252151838       -1.19666346907893        2.08488126484962
H            2.31704035471554       -1.20118934938513       -2.08352499930357
H            1.97951292512945       -2.65554080089066       -1.15238279539913
H            0.66720563212062       -1.58734114723115       -1.66160986017476
H            4.07834947861543       -2.39013155950274       -0.00093812256031
H            6.44613410033241       -1.78891970845014       -0.00089908607944
H            7.11832151154837        0.59412020670622       -0.00036745535741
H            5.38342604442608        2.34936863703392        0.00019953346904
H            3.10231814086350        2.91025311984287        0.00052727379483

          :  Hamiltonian                  GFN2-xTB          :
         :: gradient norm              0.000025922802 Eh/a0 ::
         :: HOMO-LUMO gap              3.225219000818 eV    ::
         :: SCC energy               -70.779536640557 Eh    ::
         :: -> dispersion             -0.063974578745 Eh    ::
         :: -> Gsolv                  -0.024926730862 Eh    ::
         :: repulsion energy           1.217051842147 Eh    ::

    * Orbital Energies and Occupations

         #    Occupation            Energy/Eh            Energy/eV
      -------------------------------------------------------------
         1        2.0000           -0.6618179             -18.0090
       ...           ...                  ...                  ...
        53        2.0000           -0.4372824             -11.8991
        54        2.0000           -0.4329411             -11.7809
        55        2.0000           -0.4303864             -11.7114
        56        2.0000           -0.4185220             -11.3886
        57        2.0000           -0.4125664             -11.2265
        58        2.0000           -0.4055142             -11.0346
        59        2.0000           -0.4005311             -10.8990
        60        2.0000           -0.3998098             -10.8794
        61        2.0000           -0.3954001             -10.7594
        62        2.0000           -0.3935562             -10.7092
        63        2.0000           -0.3904888             -10.6257
        64        2.0000           -0.3470281              -9.4431
        65        2.0000           -0.3397964              -9.2463 (HOMO)
        66                         -0.2212718              -6.0211 (LUMO)
        67                         -0.2192668              -5.9666
        68                         -0.2165728              -5.8932
        69                         -0.2156203              -5.8673
        70                         -0.1933386              -5.2610
        71                         -0.1761724              -4.7939
        72                         -0.0895704              -2.4373
        73                         -0.0796527              -2.1675
        74                         -0.0704412              -1.9168
        75                          0.0128040               0.3484
        76                          0.0363374               0.9888
       ...                                ...                  ...
       128                          0.6903503              18.7854
      -------------------------------------------------------------
                  HL-Gap            0.1185246 Eh            3.2252 eV

     #   Z          covCN         q      C6AA      α(0)
     1   6 C        3.761    -0.103    22.519     6.765
     2   6 C        3.908     0.022    20.154     6.381
     3   6 C        3.761    -0.103    22.519     6.765
     4   6 C        2.980    -0.014    28.362     8.736
     5   6 C        2.926    -0.038    28.955     8.825
     6   6 C        2.918    -0.049    29.210     8.863
     7   6 C        2.919    -0.035    28.882     8.813
     8   6 C        2.925    -0.066    29.653     8.930
     9   6 C        2.917     0.063    26.598     8.457
    10   7 N        2.705    -0.158    24.427     7.340
    11   6 C        2.916     0.058    26.708     8.475
    12   6 C        2.978    -0.029    28.709     8.789
    13   6 C        2.925    -0.041    29.020     8.834
    14   6 C        2.922    -0.079    29.970     8.978
    15   6 C        2.917     0.061    26.643     8.464
    16   6 C        2.973    -0.047    29.170     8.859
    17   6 C        3.903     0.020    20.189     6.387
    18   6 C        3.759    -0.109    22.638     6.783
    19   6 C        3.759    -0.109    22.639     6.783
    20   6 C        2.986    -0.015    28.372     8.737
    21   6 C        2.926    -0.040    28.984     8.829
    22   6 C        2.918    -0.049    29.213     8.863
    23   6 C        2.919    -0.035    28.875     8.812
    24   6 C        2.924    -0.065    29.615     8.924
    25   6 C        2.918     0.063    26.579     8.454
    26   7 N        2.707    -0.146    24.157     7.300
    27   1 H        0.925     0.039     2.464     2.455
    28   1 H        0.925     0.029     2.600     2.522
    29   1 H        0.925     0.040     2.453     2.449
    30   1 H        0.925     0.029     2.600     2.522
    31   1 H        0.925     0.039     2.464     2.455
    32   1 H        0.925     0.040     2.453     2.449
    33   1 H        0.926     0.029     2.605     2.524
    34   1 H        0.926     0.023     2.690     2.565
    35   1 H        0.926     0.026     2.648     2.545
    36   1 H        0.925     0.023     2.694     2.567
    37   1 H        0.860     0.183     1.197     1.714
    38   1 H        0.926     0.031     2.575     2.510
    39   1 H        0.926     0.021     2.720     2.579
    40   1 H        0.925     0.039     2.465     2.455
    41   1 H        0.925     0.040     2.451     2.448
    42   1 H        0.925     0.036     2.498     2.471
    43   1 H        0.925     0.036     2.497     2.471
    44   1 H        0.925     0.039     2.466     2.456
    45   1 H        0.925     0.040     2.451     2.448
    46   1 H        0.926     0.033     2.539     2.492
    47   1 H        0.926     0.024     2.673     2.557
    48   1 H        0.926     0.026     2.647     2.544
    49   1 H        0.925     0.022     2.699     2.569
    50   1 H        0.860     0.161     1.328     1.805

molecular dipole:
                 x           y           z       tot (Debye)
 q only:        0.183       0.103      -0.000
   full:        0.330       0.154      -0.000       0.925

 projected vibrational frequencies (cm⁻¹)
eigval :       -0.00     0.00     0.00     0.00     0.00     0.00
eigval :     -107.88    29.50    35.50    61.03    76.74    96.20
eigval :      107.36   127.28   133.40   137.47   197.32   201.83
eigval :      211.62   216.72   237.07   250.98   257.37   291.38
eigval :      295.65   313.92   330.95   337.98   350.60   379.28
eigval :      404.26   414.02   417.93   461.10   464.16   468.91
eigval :      476.15   522.20   527.09   529.75   541.77   553.23
eigval :      554.87   578.82   592.03   608.16   617.17   630.50
eigval :      666.58   685.33   695.16   698.57   728.58   778.36
eigval :      779.84   787.29   808.65   810.62   846.25   862.97
eigval :      863.93   867.71   891.13   904.86   911.15   912.76
eigval :      921.03   921.25   925.66   955.01   956.19   965.71
eigval :     1012.70  1028.76  1068.64  1082.00  1088.29  1096.28
eigval :     1107.68  1114.28  1140.20  1146.16  1154.99  1157.43
eigval :     1176.91  1181.43  1185.22  1207.09  1212.26  1219.95
eigval :     1235.07  1252.99  1256.05  1264.12  1276.50  1286.68
eigval :     1302.14  1331.39  1336.58  1337.44  1362.02  1399.39
eigval :     1402.47  1407.64  1417.72  1427.89  1438.58  1461.90
eigval :     1470.45  1482.42  1484.81  1487.50  1488.82  1491.78
eigval :     1497.00  1498.06  1503.98  1509.05  1512.09  1520.14
eigval :     1573.17  1581.31  1590.67  1591.49  1597.99  1599.96
eigval :     3016.27  3018.72  3019.71  3022.35  3026.73  3030.08
eigval :     3036.67  3038.46  3045.89  3049.47  3051.87  3052.55
eigval :     3057.35  3060.52  3067.72  3070.73  3072.49  3077.18
eigval :     3082.75  3088.92  3092.34  3096.46  3443.61  3492.66

   temp. (K)  partition function   enthalpy   heat capacity  entropy
                                   cal/mol     cal/K/mol   cal/K/mol   J/K/mol
 298.15  VIB  0.331E+08            12198.115     83.542     71.886
         ROT  0.104E+08              888.752      2.981     35.098
         INT  0.345E+15            13086.868     86.522    106.984
         TR   0.608E+28             1481.254      4.968     43.350
         TOT                       14568.1217    91.4906   150.3338   628.9965

       T/K    H(0)-H(T)+PV         H(T)/Eh          T*S/Eh         G(T)/Eh
   ------------------------------------------------------------------------
    298.15    0.232158E-01    0.434090E+00    0.714284E-01    0.362661E+00
   ------------------------------------------------------------------------

         :::::::::::::::::::::::::::::::::::::::::::::::::::::
         ::                  THERMODYNAMIC                  ::
         :::::::::::::::::::::::::::::::::::::::::::::::::::::
         :: total free energy         -69.199823390058 Eh   ::
         ::.................................................::
         :: total energy              -69.562484797976 Eh   ::
         :: zero point energy           0.410874059146 Eh   ::
         :: G(RRHO) w/o ZPVE           -0.048212651229 Eh   ::
         :: G(RRHO) contrib.            0.362661407917 Eh   ::
         :::::::::::::::::::::::::::::::::::::::::::::::::::::

           -------------------------------------------------
          | TOTAL ENERGY              -69.562484797976 Eh   |
          | TOTAL ENTHALPY            -69.128394959111 Eh   |
          | TOTAL FREE ENERGY         -69.199823390058 Eh   |
          | GRADIENT NORM               0.000025966755 Eh/α |
          | HOMO-LUMO GAP               3.225219458010 eV   |
           -------------------------------------------------

 * finished run on 2025/09/12 at 23:47:16.477
