   * xtb version 6.7.1 (edcfbbe) compiled by 'albert@albert-system' on 2024-07-22

   ID    Z sym.   atoms
    1    6 C      1-9, 11-25
    2    7 N      10, 26
    3    1 H      27-50

          program call               : xtb data2507/toluene/TMDBP/TMDBP_toluene_T1_crest.xyz --gfn 2 --uhf 2 --gbsa toluene --ohess vtight --parallel 40 --molden --ceasefiles --namespace data2507/toluene/TMDBP/TMDBP_toluene_T1_finalOpt
      * Solvation model:               GBSA
        Solvent                        toluene
        Solvent mass                       9.2140E+01 g/mol
          :  Hamiltonian                  GFN2-xTB          :
 * total energy  :   -69.4483890 Eh     change        0.8248122E-09 Eh
 * total energy  :   -69.4484196 Eh     change       -0.3058186E-04 Eh
 * total energy  :   -69.4484271 Eh     change       -0.7439207E-05 Eh
 * total energy  :   -69.4484300 Eh     change       -0.2933338E-05 Eh
 * total energy  :   -69.4484319 Eh     change       -0.1946503E-05 Eh
 * total energy  :   -69.4484324 Eh     change       -0.4247040E-06 Eh
 * total energy  :   -69.4484326 Eh     change       -0.2300133E-06 Eh
 * total energy  :   -69.4484325 Eh     change        0.6710842E-07 Eh
 * total energy  :   -69.4484327 Eh     change       -0.1654456E-06 Eh
 * total energy  :   -69.4484327 Eh     change        0.1831958E-07 Eh
 * total energy  :   -69.4484327 Eh     change       -0.5290414E-07 Eh
   *** GEOMETRY OPTIMIZATION CONVERGED AFTER 11 ITERATIONS ***

 final structure:
================
50
 xtb: 6.7.1 (edcfbbe)
C           -3.41333573710418        2.10595426455882       -1.24382895689294
C           -2.89079220098921        1.37597520859145        0.01371137323535
C           -3.40049245472963        2.10371263473385        1.27772841485208
C           -3.45463947954151       -0.02526722061601        0.01579789902578
C           -4.81260902366708       -0.26641090131085        0.02443487765917
C           -5.33148391032006       -1.55865170775424        0.03127679727852
C           -4.46094854304368       -2.65688643055643        0.03107025629589
C           -3.10863703202249       -2.45479402531090        0.02251680562208
C           -2.57999973188067       -1.14289372284615        0.01346158747388
N           -1.23200887706328       -0.97466774906895        0.00117158919139
C           -0.56419303037634        0.21389379553746       -0.00519270801867
C           -1.38480895832255        1.42717040163375        0.00520402370740
C           -0.72827789891258        2.64944131621402        0.00272457958512
C            0.63881618748256        2.73548988633570       -0.00464915808677
C            1.43776525331811        1.52827084138883       -0.01346636496301
C            0.83903132631125        0.27680136427532       -0.01775429216271
C            1.69992706669795       -0.98671911953695       -0.06975933438715
C            1.34067325378897       -1.93985315602477        1.10381694516741
C            1.49244275109002       -1.66768139479789       -1.44354929637298
C            3.18912913930060       -0.67600610835101        0.01311358148910
C            4.11461509175791       -1.70170652684104        0.04409870418439
C            5.48349963189186       -1.45789935492850        0.08693709034412
C            5.95262934729982       -0.14386511407053        0.09632490118947
C            5.06027198748916        0.89787581691896        0.06336551389421
C            3.67711978306863        0.64808974394725        0.01938314898544
N            2.79382277242571        1.68549195472816       -0.01372050226963
H           -4.49943079006593        2.10952856146814       -1.25799395857657
H           -3.05709028139501        1.60009880787478       -2.13913470906395
H           -3.06569649516659        3.13455924156560       -1.26649704704181
H           -4.48640556606869        2.11268414814729        1.30014074570744
H           -3.04758913529705        3.13050908358480        1.30190090217379
H           -3.04031606637097        1.59278598143041        2.16863904059545
H           -5.50748745942728        0.56067126245948        0.02673762889866
H           -6.39930259967536       -1.71311428786284        0.03784132289442
H           -4.86202923148862       -3.66020305705076        0.03773543081804
H           -2.42288855884975       -3.29139557062436        0.02242059107996
H           -0.67977702995964       -1.81847683141813        0.02258220992867
H           -1.29958335711307        3.56560398467947        0.00677660900468
H            1.14236901828920        3.68932097844866       -0.00700224038762
H            0.63209015734280       -1.47402201204204        1.78542373497781
H            2.23039685161454       -2.17132334274217        1.68491295354028
H            0.93159219261662       -2.88580861451377        0.75127246090581
H            1.88903550102805       -1.02156359050782       -2.22536078914351
H            2.02870333458379       -2.61267508500216       -1.48380634325035
H            0.44582763864184       -1.85234981027398       -1.67033834039668
H            3.77742939696802       -2.72828806838901        0.03537425112523
H            6.17846718530078       -2.28334647202139        0.10967388375013
H            7.01477918439175        0.05111965763455        0.12926708658360
H            5.40441262325937        1.92310364048106        0.07102462073075
H            3.16052865579199        2.62676496642495       -0.00338178738125

          :  Hamiltonian                  GFN2-xTB          :
         :: gradient norm              0.000060995579 Eh/a0 ::
         :: HOMO-LUMO gap              0.315748504279 eV    ::
         :: SCC energy               -70.642559590286 Eh    ::
         :: -> dispersion             -0.063676591274 Eh    ::
         :: -> Gsolv                  -0.025348199528 Eh    ::
         :: repulsion energy           1.194126795705 Eh    ::

    * Orbital Energies and Occupations

         #    Occupation            Energy/Eh            Energy/eV
      -------------------------------------------------------------
         1        2.0000           -0.6623857             -18.0244
       ...           ...                  ...                  ...
        54        2.0000           -0.4307668             -11.7218
        55        2.0000           -0.4294442             -11.6858
        56        2.0000           -0.4170471             -11.3484
        57        2.0000           -0.4119716             -11.2103
        58        2.0000           -0.4072618             -11.0822
        59        2.0000           -0.3990641             -10.8591
        60        2.0000           -0.3948455             -10.7443
        61        2.0000           -0.3924793             -10.6799
        62        2.0000           -0.3898602             -10.6086
        63        2.0000           -0.3897964             -10.6069
        64        1.9916           -0.3469488              -9.4410
        65        1.0084           -0.3378792              -9.1942
        66        0.9977           -0.2272465              -6.1837 (HOMO)
        67        0.0022           -0.2156430              -5.8679 (LUMO)
        68        0.0001           -0.2123710              -5.7789
        69        0.0000           -0.2103910              -5.7250
        70                         -0.1910478              -5.1987
        71                         -0.1796978              -4.8898
        72                         -0.0932165              -2.5365
        73                         -0.0801219              -2.1802
        74                         -0.0738263              -2.0089
        75                          0.0199162               0.5419
        76                          0.0376228               1.0238
        77                          0.0417477               1.1360
       ...                                ...                  ...
       128                          0.6831403              18.5892
      -------------------------------------------------------------
                  HL-Gap            0.0116036 Eh            0.3157 eV

     #   Z          covCN         q      C6AA      α(0)
     1   6 C        3.762    -0.101    22.469     6.757
     2   6 C        3.908     0.025    20.088     6.371
     3   6 C        3.762    -0.101    22.469     6.757
     4   6 C        2.975    -0.014    28.348     8.734
     5   6 C        2.919    -0.041    29.022     8.834
     6   6 C        2.916    -0.059    29.472     8.902
     7   6 C        2.913    -0.038    28.948     8.823
     8   6 C        2.918    -0.064    29.592     8.921
     9   6 C        2.914     0.039    27.135     8.542
    10   7 N        2.702    -0.102    23.234     7.159
    11   6 C        2.909     0.026    27.432     8.588
    12   6 C        2.973    -0.020    28.513     8.759
    13   6 C        2.909    -0.038    28.950     8.823
    14   6 C        2.913    -0.074    29.851     8.959
    15   6 C        2.915     0.036    27.201     8.552
    16   6 C        2.964    -0.044    29.094     8.847
    17   6 C        3.903     0.018    20.214     6.391
    18   6 C        3.754    -0.112    22.704     6.794
    19   6 C        3.761    -0.105    22.561     6.771
    20   6 C        2.979    -0.015    28.380     8.738
    21   6 C        2.922    -0.042    29.044     8.838
    22   6 C        2.916    -0.057    29.410     8.893
    23   6 C        2.915    -0.038    28.952     8.823
    24   6 C        2.919    -0.063    29.555     8.915
    25   6 C        2.920     0.045    26.992     8.520
    26   7 N        2.704    -0.106    23.333     7.174
    27   1 H        0.925     0.045     2.389     2.417
    28   1 H        0.925     0.035     2.523     2.484
    29   1 H        0.925     0.044     2.391     2.418
    30   1 H        0.925     0.045     2.389     2.417
    31   1 H        0.925     0.044     2.392     2.418
    32   1 H        0.925     0.034     2.530     2.487
    33   1 H        0.926     0.024     2.679     2.559
    34   1 H        0.926     0.015     2.804     2.618
    35   1 H        0.926     0.020     2.739     2.588
    36   1 H        0.925     0.017     2.772     2.603
    37   1 H        0.860     0.190     1.159     1.686
    38   1 H        0.926     0.032     2.558     2.501
    39   1 H        0.926     0.023     2.694     2.567
    40   1 H        0.925     0.038     2.474     2.460
    41   1 H        0.925     0.044     2.391     2.418
    42   1 H        0.925     0.034     2.528     2.486
    43   1 H        0.925     0.034     2.536     2.490
    44   1 H        0.925     0.040     2.443     2.444
    45   1 H        0.925     0.035     2.518     2.482
    46   1 H        0.926     0.028     2.620     2.531
    47   1 H        0.926     0.017     2.774     2.605
    48   1 H        0.926     0.021     2.721     2.580
    49   1 H        0.925     0.020     2.739     2.588
    50   1 H        0.860     0.168     1.283     1.774

molecular dipole:
                 x           y           z       tot (Debye)
 q only:        0.020       0.523      -0.003
   full:        0.174       0.544      -0.008       1.450

 projected vibrational frequencies (cm⁻¹)
eigval :       -0.00    -0.00    -0.00    -0.00     0.00     0.00
eigval :       21.69    38.74    72.43    86.35   103.17   108.21
eigval :      115.21   142.60   157.87   180.89   188.22   208.64
eigval :      208.79   219.67   227.36   244.94   268.60   289.13
eigval :      295.00   311.94   321.62   328.03   340.81   357.00
eigval :      383.19   397.31   410.03   411.95   431.57   454.84
eigval :      466.78   503.72   511.35   516.52   524.17   534.33
eigval :      544.95   554.18   571.53   575.58   614.43   620.07
eigval :      634.21   645.41   660.84   671.27   693.28   715.18
eigval :      729.88   748.72   767.48   785.27   816.22   825.90
eigval :      834.11   842.46   858.30   890.93   895.63   898.82
eigval :      900.89   909.81   921.39   937.47   953.90   954.17
eigval :      965.05  1009.72  1027.73  1034.00  1057.76  1078.64
eigval :     1080.60  1089.30  1096.51  1120.45  1136.36  1137.87
eigval :     1142.43  1152.03  1163.53  1172.59  1177.84  1192.55
eigval :     1214.35  1223.45  1229.13  1243.45  1261.08  1273.03
eigval :     1289.50  1298.00  1312.03  1337.68  1345.56  1365.71
eigval :     1368.84  1377.55  1390.59  1406.83  1407.94  1410.22
eigval :     1412.42  1421.51  1451.03  1462.45  1470.43  1472.99
eigval :     1481.89  1484.13  1487.69  1488.53  1494.30  1497.42
eigval :     1501.46  1508.04  1517.68  1523.37  1541.57  1587.22
eigval :     3001.05  3022.02  3024.30  3026.00  3028.20  3033.17
eigval :     3041.38  3042.59  3043.12  3043.37  3048.91  3051.10
eigval :     3052.44  3057.00  3070.47  3071.21  3072.50  3073.91
eigval :     3075.23  3088.83  3089.91  3091.46  3412.87  3439.47

   temp. (K)  partition function   enthalpy   heat capacity  entropy
                                   cal/mol     cal/K/mol   cal/K/mol   J/K/mol
 298.15  VIB  0.689E+08            12904.391     88.308     75.685
         ROT  0.105E+08              888.752      2.981     35.115
         INT  0.726E+15            13793.143     91.289    110.800
         TR   0.608E+28             1481.254      4.968     43.350
         TOT                       15274.3969    96.2575   154.1506   644.9660

       T/K    H(0)-H(T)+PV         H(T)/Eh          T*S/Eh         G(T)/Eh
   ------------------------------------------------------------------------
    298.15    0.243413E-01    0.429284E+00    0.732419E-01    0.356043E+00
   ------------------------------------------------------------------------

         :::::::::::::::::::::::::::::::::::::::::::::::::::::
         ::                  THERMODYNAMIC                  ::
         :::::::::::::::::::::::::::::::::::::::::::::::::::::
         :: total free energy         -69.092390241640 Eh   ::
         ::.................................................::
         :: total energy              -69.448432790393 Eh   ::
         :: zero point energy           0.404943155400 Eh   ::
         :: G(RRHO) w/o ZPVE           -0.048900606647 Eh   ::
         :: G(RRHO) contrib.            0.356042548753 Eh   ::
         :::::::::::::::::::::::::::::::::::::::::::::::::::::

           -------------------------------------------------
          | TOTAL ENERGY              -69.448432790393 Eh   |
          | TOTAL ENTHALPY            -69.019148334154 Eh   |
          | TOTAL FREE ENERGY         -69.092390241640 Eh   |
          | GRADIENT NORM               0.000062103324 Eh/α |
          | HOMO-LUMO GAP               0.315748719460 eV   |
           -------------------------------------------------

 * finished run on 2025/09/12 at 23:50:44.394
