   * xtb version 6.7.1 (edcfbbe) compiled by 'albert@albert-system' on 2024-07-22

   ID    Z sym.   atoms
    1    6 C      1-8, 10-26, 28-43
    2    7 N      9, 27
    3    1 H      44-75

          program call               : xtb data2507/toluene/PnB/PnB_toluene_S0_finalOpt.xtbopt.xyz --gfn 2 --uhf 2 --gbsa toluene --ohess vtight --parallel 40 --molden --ceasefiles --namespace data2507/toluene/PnB/PnB_toluene_T1_preOpt
      * Solvation model:               GBSA
        Solvent                        toluene
        Solvent mass                       9.2140E+01 g/mol
          :  Hamiltonian                  GFN2-xTB          :
 * total energy  :  -109.9912366 Eh     change       -0.4502738E-08 Eh
 * total energy  :  -109.9976717 Eh     change       -0.6435139E-02 Eh
 * total energy  :  -109.9993680 Eh     change       -0.1696228E-02 Eh
 * total energy  :  -109.9995876 Eh     change       -0.2196728E-03 Eh
 * total energy  :  -109.9998669 Eh     change       -0.2792196E-03 Eh
 * total energy  :  -110.0000286 Eh     change       -0.1617028E-03 Eh
 * total energy  :  -110.0001711 Eh     change       -0.1425322E-03 Eh
 * total energy  :  -110.0002649 Eh     change       -0.9375159E-04 Eh
 * total energy  :  -110.0003396 Eh     change       -0.7469546E-04 Eh
 * total energy  :  -110.0004159 Eh     change       -0.7634163E-04 Eh
 * total energy  :  -110.0014186 Eh     change       -0.4062414E-06 Eh
 * total energy  :  -110.0014191 Eh     change       -0.4922270E-06 Eh
 * total energy  :  -110.0014196 Eh     change       -0.5024777E-06 Eh
 * total energy  :  -110.0014199 Eh     change       -0.3243916E-06 Eh
 * total energy  :  -110.0014202 Eh     change       -0.2337687E-06 Eh
 * total energy  :  -110.0014204 Eh     change       -0.2012288E-06 Eh
 * total energy  :  -110.0014206 Eh     change       -0.2165749E-06 Eh
 * total energy  :  -110.0014208 Eh     change       -0.1910416E-06 Eh
 * total energy  :  -110.0014208 Eh     change       -0.3844448E-08 Eh
   *** GEOMETRY OPTIMIZATION CONVERGED AFTER 94 ITERATIONS ***

 final structure:
================
75
 xtb: 6.7.1 (edcfbbe)
C           -5.74423603774295       -3.02303244066476       -0.25096156305594
C           -4.42659737115456       -3.00266378547823        0.51447139881736
C           -3.54404425200282       -4.19181098022892        0.14340056250159
C           -2.27454618857502       -4.28258406523257        1.00194173587809
C           -1.33321045495841       -3.14205909684792        0.74689040439830
C           -0.45291321942572       -3.18324549002501       -0.32902828200047
C            0.42792429813344       -2.14795688420421       -0.57146165187222
C            0.44194311836561       -1.04126245425324        0.27076479587494
N            1.37016718218986       -0.00045655354574        0.07235165135303
C            1.12228256144209        1.36465021751159        0.13731602412024
C           -0.14229557705833        1.99800053361060        0.23577800754943
C           -0.20234446344940        3.20107273586133        0.97801981766187
C           -1.39001259430999        3.75591982531466        1.33588090146716
C           -2.63323155807764        3.17263101653080        0.91979149005423
C           -3.86256430265300        3.69495482189370        1.31531985094872
C           -5.05216609438475        3.15720984366712        0.84947232805782
C           -5.05057903840917        2.10560144188434       -0.07756631989458
C           -6.24911912119312        1.57735773209882       -0.62035672309601
C           -6.21275853329654        0.56845185479116       -1.56548110747919
C           -5.01137855692501        0.05320981206042       -2.00390170367902
C           -3.78199686390668        0.53771793444061       -1.48222071359337
C           -2.54304142090279        0.07113445651375       -1.93161815307126
C           -1.35931977206652        0.55144234585500       -1.39104679927732
C           -1.36042162856499        1.49382161548906       -0.36404091814512
C           -2.59775877784668        2.06464141992359        0.03140089198730
C           -3.80824374465866        1.56453796750090       -0.50277427377719
N            2.26780539059405        2.04024571709144        0.12151897917933
C            3.26438984597548        1.14131566410111        0.01375775788720
C            4.65336255531041        1.57031403812545       -0.02256918294158
C            5.69184093461693        0.76542282084206        0.44577188315476
C            6.99713604845690        1.21817347368663        0.40171208320784
C            7.28626466563190        2.47677921904820       -0.10133305403400
C            6.25794817213862        3.29080978731833       -0.55071478296199
C            4.95175246971078        2.84426858323900       -0.50933108994554
C            2.73125264378733       -0.15439725680583       -0.01396986230342
C            3.39941548644693       -1.44235849647731       -0.10980779294670
C            3.13380356780424       -2.46488555765059        0.80220372914585
C            3.78148629988488       -3.68100938078429        0.69255509175238
C            4.69720310367419       -3.89651323240609       -0.32489318628315
C            4.97170079038651       -2.88365763659730       -1.23113197239376
C            4.33121979713305       -1.66421404987460       -1.12619443740995
C           -0.44461883705148       -0.97841604420778        1.33921307631259
C           -1.32187943992773       -2.02101115382833        1.56792610401085
H           -6.31173774094246       -3.92085766582660       -0.01291738668462
H           -5.56214945982622       -3.00714389831815       -1.32298415142866
H           -6.34646638360915       -2.15476310109268        0.00559462680521
H           -3.89674114768497       -2.07161230638645        0.30094030651688
H           -4.63621482339570       -3.02840072754508        1.58674020128335
H           -4.11628969433146       -5.11345008267601        0.27467424986736
H           -3.26384031232752       -4.11855618278376       -0.90967519409450
H           -1.76738070764342       -5.22279899063395        0.77363401444548
H           -2.56049353292782       -4.29566253791794        2.05541527460668
H           -0.45112706360893       -4.04206878600783       -0.98422690053466
H            1.10655518891194       -2.19391548283432       -1.41047624885992
H            0.73394532085681        3.61931574941636        1.31697733980252
H           -1.42127234112724        4.63990641369376        1.95540138897402
H           -3.88219198396637        4.53741764296553        1.99232454493133
H           -5.99633852985077        3.56503267714442        1.18094426618643
H           -7.19307685222631        1.98642329761811       -0.29143802561114
H           -7.13872288667113        0.18556161277851       -1.97176878358871
H           -4.98554114071491       -0.72055541336501       -2.75631671346057
H           -2.50988514045355       -0.67494078909634       -2.71241257875370
H           -0.42124680970803        0.20281524314194       -1.79518611412428
H            5.47427188657035       -0.20753734308886        0.86000062565170
H            7.79352507210556        0.58651251226576        0.76814644452171
H            8.30841926350743        2.82449944525987       -0.13587488059481
H            6.47689425461730        4.27664341801263       -0.93497488968893
H            4.13946276872715        3.46697306481726       -0.85242151077047
H            2.43276065671167       -2.29649627001056        1.60690177535775
H            3.57108375881592       -4.46320265259576        1.40709412708809
H            5.19839293446159       -4.84916134558955       -0.40964073984128
H            5.68621654084086       -3.04533051985370       -2.02486449992754
H            4.53970130899194       -0.87368563555702       -1.83278154960798
H           -0.43273737812985       -0.11919620502606        1.99410158532709
H           -1.99880688421870       -1.96504299587823        2.40746077891136

          :  Hamiltonian                  GFN2-xTB          :
         :: gradient norm              0.000040922222 Eh/a0 ::
         :: HOMO-LUMO gap              0.888074598949 eV    ::
         :: SCC energy              -112.030550927794 Eh    ::
         :: -> dispersion             -0.108243350980 Eh    ::
         :: -> Gsolv                  -0.042601296579 Eh    ::
         :: repulsion energy           2.029130136261 Eh    ::

    * Orbital Energies and Occupations

         #    Occupation            Energy/Eh            Energy/eV
      -------------------------------------------------------------
         1        2.0000           -0.6913578             -18.8128
       ...           ...                  ...                  ...
        92        2.0000           -0.4132524             -11.2452
        93        2.0000           -0.4124412             -11.2231
        94        2.0000           -0.4081179             -11.1055
        95        2.0000           -0.4057326             -11.0405
        96        2.0000           -0.4050688             -11.0225
        97        2.0000           -0.4039409             -10.9918
        98        2.0000           -0.4002241             -10.8907
        99        2.0000           -0.3950086             -10.7487
       100        2.0000           -0.3911271             -10.6431
       101        2.0000           -0.3819072             -10.3922
       102        2.0000           -0.3748768             -10.2009
       103        1.0000           -0.3501918              -9.5292
       104        1.0000           -0.2874354              -7.8215 (HOMO)
       105                         -0.2547995              -6.9334 (LUMO)
       106                         -0.2402353              -6.5371
       107                         -0.2364599              -6.4344
       108                         -0.2344787              -6.3805
       109                         -0.2298645              -6.2549
       110                         -0.2276163              -6.1938
       111                         -0.2235883              -6.0841
       112                         -0.2227719              -6.0619
       113                         -0.2119328              -5.7670
       114                         -0.1878901              -5.1127
       115                         -0.1679152              -4.5692
       ...                                ...                  ...
       204                          0.7281455              19.8138
      -------------------------------------------------------------
                  HL-Gap            0.0326360 Eh            0.8881 eV

     #   Z          covCN         q      C6AA      α(0)
     1   6 C        3.752    -0.101    22.487     6.762
     2   6 C        3.800    -0.051    21.493     6.601
     3   6 C        3.803    -0.055    21.552     6.609
     4   6 C        3.808    -0.065    21.744     6.638
     5   6 C        2.968     0.019    27.590     8.616
     6   6 C        2.926    -0.035    28.876     8.812
     7   6 C        2.919    -0.039    28.974     8.827
     8   6 C        2.913     0.061    26.624     8.461
     9   7 N        2.835    -0.047    22.151     6.990
    10   6 C        3.139     0.136    24.823     8.154
    11   6 C        2.969    -0.020    28.505     8.757
    12   6 C        2.918    -0.032    28.791     8.799
    13   6 C        2.912    -0.044    29.103     8.846
    14   6 C        2.978     0.008    27.842     8.655
    15   6 C        2.915    -0.041    29.007     8.832
    16   6 C        2.916    -0.042    29.031     8.835
    17   6 C        2.977     0.009    27.809     8.650
    18   6 C        2.918    -0.043    29.060     8.840
    19   6 C        2.907    -0.029    28.733     8.790
    20   6 C        2.917    -0.040    28.997     8.830
    21   6 C        2.978     0.010    27.800     8.649
    22   6 C        2.916    -0.043    29.063     8.840
    23   6 C        2.916    -0.042    29.041     8.837
    24   6 C        2.975     0.003    27.961     8.674
    25   6 C        2.994     0.001    28.001     8.680
    26   6 C        2.997     0.000    28.009     8.682
    27   7 N        1.904    -0.319    29.108     7.999
    28   6 C        3.148     0.068    26.230     8.378
    29   6 C        2.973     0.006    27.880     8.661
    30   6 C        2.922    -0.036    28.903     8.816
    31   6 C        2.918    -0.030    28.746     8.792
    32   6 C        2.919    -0.030    28.746     8.792
    33   6 C        2.918    -0.029    28.731     8.790
    34   6 C        2.927    -0.029    28.719     8.788
    35   6 C        3.055     0.028    27.329     8.573
    36   6 C        2.971     0.006    27.888     8.662
    37   6 C        2.923    -0.032    28.790     8.799
    38   6 C        2.918    -0.028    28.698     8.785
    39   6 C        2.919    -0.029    28.721     8.788
    40   6 C        2.918    -0.027    28.685     8.783
    41   6 C        2.925    -0.031    28.782     8.798
    42   6 C        2.921    -0.041    29.009     8.832
    43   6 C        2.925    -0.035    28.872     8.812
    44   1 H        0.925     0.035     2.519     2.482
    45   1 H        0.925     0.033     2.539     2.492
    46   1 H        0.925     0.032     2.552     2.498
    47   1 H        0.924     0.026     2.647     2.545
    48   1 H        0.924     0.030     2.587     2.516
    49   1 H        0.924     0.038     2.470     2.458
    50   1 H        0.924     0.034     2.527     2.486
    51   1 H        0.924     0.046     2.369     2.407
    52   1 H        0.924     0.044     2.400     2.423
    53   1 H        0.926     0.046     2.370     2.407
    54   1 H        0.926     0.037     2.492     2.469
    55   1 H        0.926     0.042     2.425     2.435
    56   1 H        0.926     0.033     2.542     2.493
    57   1 H        0.926     0.031     2.573     2.508
    58   1 H        0.926     0.031     2.575     2.509
    59   1 H        0.926     0.029     2.596     2.519
    60   1 H        0.925     0.030     2.589     2.516
    61   1 H        0.926     0.030     2.583     2.513
    62   1 H        0.926     0.029     2.602     2.522
    63   1 H        0.926     0.019     2.750     2.593
    64   1 H        0.926     0.029     2.605     2.524
    65   1 H        0.926     0.035     2.519     2.482
    66   1 H        0.926     0.036     2.499     2.472
    67   1 H        0.926     0.036     2.499     2.472
    68   1 H        0.926     0.046     2.375     2.410
    69   1 H        0.926     0.028     2.619     2.531
    70   1 H        0.926     0.039     2.469     2.457
    71   1 H        0.926     0.040     2.452     2.449
    72   1 H        0.926     0.039     2.458     2.452
    73   1 H        0.926     0.032     2.565     2.504
    74   1 H        0.926     0.033     2.546     2.495
    75   1 H        0.926     0.044     2.395     2.420

molecular dipole:
                 x           y           z       tot (Debye)
 q only:        0.107      -1.731       0.118
   full:        0.111      -1.986       0.101       5.061

 projected vibrational frequencies (cm⁻¹)
eigval :       -0.00    -0.00    -0.00    -0.00     0.00     0.00
eigval :       15.68    19.54    23.82    27.35    36.29    41.38
eigval :       42.83    55.60    57.57    73.06    78.32    83.34
eigval :       90.43    98.19   113.75   119.95   138.54   147.92
eigval :      166.38   189.64   195.39   204.98   213.51   222.89
eigval :      230.61   237.84   250.30   253.67   268.78   276.26
eigval :      320.20   340.16   356.73   372.96   375.87   378.05
eigval :      380.34   384.37   389.73   402.99   424.20   427.29
eigval :      449.44   455.55   461.42   474.49   477.15   492.67
eigval :      502.75   508.89   513.13   542.78   552.82   571.86
eigval :      586.07   588.56   603.89   610.75   618.48   633.46
eigval :      643.00   652.77   660.09   667.87   670.44   677.87
eigval :      679.70   683.51   691.87   720.93   730.96   741.22
eigval :      747.01   760.97   763.07   772.16   778.33   797.89
eigval :      801.52   806.74   812.64   816.98   833.38   838.53
eigval :      866.71   868.13   873.83   874.81   876.22   891.17
eigval :      902.31   903.46   906.17   911.81   913.10   917.09
eigval :      924.40   928.26   928.86   930.64   931.51   935.80
eigval :      950.73   960.34   975.30   983.59  1006.71  1017.19
eigval :     1049.85  1066.06  1080.36  1082.00  1085.37  1095.43
eigval :     1112.25  1117.66  1118.43  1119.86  1123.58  1131.07
eigval :     1141.25  1144.04  1157.33  1162.94  1178.97  1179.09
eigval :     1188.94  1191.04  1194.30  1197.92  1199.16  1200.42
eigval :     1205.18  1211.39  1226.61  1231.76  1238.64  1243.18
eigval :     1268.96  1274.98  1278.60  1280.66  1282.67  1284.07
eigval :     1303.13  1304.22  1313.32  1317.54  1320.99  1322.31
eigval :     1329.59  1331.24  1351.91  1361.25  1368.21  1369.68
eigval :     1377.68  1388.79  1396.63  1411.56  1414.11  1415.13
eigval :     1425.82  1430.39  1441.73  1450.31  1462.66  1476.96
eigval :     1482.72  1485.31  1488.52  1492.90  1497.76  1500.40
eigval :     1500.87  1504.59  1515.06  1516.47  1520.14  1537.67
eigval :     1568.90  1571.09  1575.32  1575.70  1588.31  1593.25
eigval :     1600.53  2958.20  2966.50  2968.59  2978.54  2981.26
eigval :     2985.05  3021.32  3032.76  3038.75  3063.23  3064.95
eigval :     3070.28  3071.30  3073.86  3074.12  3074.41  3075.44
eigval :     3076.79  3077.11  3078.51  3079.42  3081.92  3084.85
eigval :     3085.58  3086.38  3088.15  3089.89  3090.99  3091.59
eigval :     3094.23  3095.10  3098.48

   temp. (K)  partition function   enthalpy   heat capacity  entropy
                                   cal/mol     cal/K/mol   cal/K/mol   J/K/mol
 298.15  VIB  0.350E+16            20575.654    130.554    127.420
         ROT  0.482E+08              888.752      2.981     38.139
         INT  0.169E+24            21464.406    133.535    165.560
         TR   0.126E+29             1481.254      4.968     44.794
         TOT                       22945.6603   138.5033   210.3534   880.1188

       T/K    H(0)-H(T)+PV         H(T)/Eh          T*S/Eh         G(T)/Eh
   ------------------------------------------------------------------------
    298.15    0.365662E-01    0.629894E+00    0.999457E-01    0.529948E+00
   ------------------------------------------------------------------------

         :::::::::::::::::::::::::::::::::::::::::::::::::::::
         ::                  THERMODYNAMIC                  ::
         :::::::::::::::::::::::::::::::::::::::::::::::::::::
         :: total free energy        -109.471472755828 Eh   ::
         ::.................................................::
         :: total energy             -110.001420791080 Eh   ::
         :: zero point energy           0.593327508123 Eh   ::
         :: G(RRHO) w/o ZPVE           -0.063379472871 Eh   ::
         :: G(RRHO) contrib.            0.529948035253 Eh   ::
         :::::::::::::::::::::::::::::::::::::::::::::::::::::

           -------------------------------------------------
          | TOTAL ENERGY             -110.001420791080 Eh   |
          | TOTAL ENTHALPY           -109.371527045648 Eh   |
          | TOTAL FREE ENERGY        -109.471472755828 Eh   |
          | GRADIENT NORM               0.000040902224 Eh/α |
          | HOMO-LUMO GAP               0.888069735371 eV   |
           -------------------------------------------------

 * finished run on 2025/08/24 at 05:27:51.651
