   * xtb version 6.7.1 (edcfbbe) compiled by 'albert@albert-system' on 2024-07-22

   ID    Z sym.   atoms
    1    6 C      1-8, 10-26, 28-43
    2    7 N      9, 27
    3    1 H      44-75

          program call               : xtb data2507/toluene/PnB/PnB.xyz --gfn 2 --gbsa toluene --ohess vtight --parallel 40 --molden --ceasefiles --namespace data2507/toluene/PnB/PnB_toluene_S0_preOpt
      * Solvation model:               GBSA
        Solvent                        toluene
        Solvent mass                       9.2140E+01 g/mol
          :  Hamiltonian                  GFN2-xTB          :
 * total energy  :  -110.0520705 Eh     change       -0.2593481E-08 Eh
 * total energy  :  -110.0624765 Eh     change       -0.1040602E-01 Eh
 * total energy  :  -110.0649449 Eh     change       -0.2468428E-02 Eh
 * total energy  :  -110.0655334 Eh     change       -0.5884758E-03 Eh
 * total energy  :  -110.0659801 Eh     change       -0.4466685E-03 Eh
 * total energy  :  -110.0662155 Eh     change       -0.2354480E-03 Eh
 * total energy  :  -110.0664907 Eh     change       -0.2752102E-03 Eh
 * total energy  :  -110.0667643 Eh     change       -0.2735498E-03 Eh
 * total energy  :  -110.0670594 Eh     change       -0.2951547E-03 Eh
 * total energy  :  -110.0673815 Eh     change       -0.3220477E-03 Eh
 * total energy  :  -110.0737067 Eh     change       -0.3265574E-06 Eh
 * total energy  :  -110.0737070 Eh     change       -0.2669993E-06 Eh
 * total energy  :  -110.0737072 Eh     change       -0.2117241E-06 Eh
 * total energy  :  -110.0737074 Eh     change       -0.1867983E-06 Eh
 * total energy  :  -110.0737076 Eh     change       -0.1609835E-06 Eh
 * total energy  :  -110.0737077 Eh     change       -0.1659498E-06 Eh
 * total energy  :  -110.0737079 Eh     change       -0.1855531E-06 Eh
 * total energy  :  -110.0737080 Eh     change       -0.1424178E-06 Eh
 * total energy  :  -110.0737081 Eh     change       -0.7718427E-07 Eh
   *** GEOMETRY OPTIMIZATION CONVERGED AFTER 93 ITERATIONS ***

 final structure:
================
75
 xtb: 6.7.1 (edcfbbe)
C           -6.09773396303985       -4.98833176463571        0.64439853835198
C           -4.90635639550878       -5.20255162706544       -0.28244058952200
C           -3.81103481851095       -4.16542102764669       -0.04577676702272
C           -2.60726848397216       -4.37943047936738       -0.97326821592135
C           -1.55374603046243       -3.34372435236686       -0.71285832255404
C           -1.57979058217674       -2.12310116746581       -1.37820746495080
C           -0.64009219235455       -1.14647113356686       -1.11126566565145
C            0.34274497478129       -1.37737100197444       -0.15548114377813
N            1.29547048671271       -0.37804802035144        0.12420731321580
C            1.04690920166767        0.93438291459892        0.43620741557029
C           -0.28995881082084        1.47539263295470        0.63464054132645
C           -1.23155705343080        0.71729509373785        1.33151728059668
C           -2.50981395592212        1.18253127057891        1.54821088541601
C           -2.90198760241262        2.43813136335586        1.07967976246129
C           -4.21682332332827        2.94600846011040        1.29001468691564
C           -4.57582441705757        4.17178866513015        0.84302999971654
C           -3.65059921291758        5.00073983836437        0.14275125289352
C           -3.99926178518328        6.26963745050058       -0.32411652814486
C           -3.08033772588493        7.05134552005199       -1.00063558817255
C           -1.79725450676056        6.58862485148286       -1.22885662800985
C           -1.40469404305809        5.32600597856878       -0.77979586850938
C           -0.09304683378138        4.81370269492227       -0.99819680776995
C            0.27081696436582        3.58882507316464       -0.55121757020134
C           -0.64053777270499        2.75649770814221        0.16288092955627
C           -1.95770679984525        3.23473749422305        0.38499634636810
C           -2.33688831549037        4.51779839660554       -0.08365606960649
N            2.16693470827702        1.59635825115232        0.59669072803629
C            3.18756786416861        0.71716226569669        0.38824417482052
C            4.57035445978855        1.16746400428824        0.44955234335633
C            5.58652632562084        0.53550115409094       -0.26567660151743
C            6.88670158529164        0.99874663976606       -0.18722354765889
C            7.19207891125132        2.10093586028942        0.59502998188912
C            6.18440828337649        2.74742418478354        1.29314860720663
C            4.88394922500427        2.28691582033740        1.22068707030887
C            2.66396221797471       -0.53185685291104        0.09664644865388
C            3.31265116879169       -1.80769171924103       -0.18092288921472
C            2.95110873669014       -2.57276050717942       -1.28845267049563
C            3.57082719008810       -3.78492877554693       -1.53127011159382
C            4.55585553939932       -4.24923752630488       -0.67549754772203
C            4.92427219694826       -3.49229130085940        0.42577338884105
C            4.30802472727620       -2.28069624019978        0.67410682748995
C            0.38114612017429       -2.59254501754131        0.51798486807569
C           -0.56070261978792       -3.56318684163334        0.23461879219610
H           -6.53273516318666       -4.00349693921467        0.48603228894787
H           -5.78997005797113       -5.06243371310629        1.68559189104187
H           -6.86554566297221       -5.73652562786681        0.45958520591660
H           -4.49764355760361       -6.20308432219620       -0.12142404118546
H           -5.24057912348299       -5.14472510140947       -1.32115687276563
H           -4.21555024112325       -3.16377875240776       -0.20978937507532
H           -3.47646946898620       -4.22004847184226        0.99292571328834
H           -2.94146115264247       -4.31766420649192       -2.01076507535878
H           -2.19862991360601       -5.37742097327456       -0.80335047492346
H           -2.34154467105322       -1.93523055224123       -2.12060617044006
H           -0.66171956407382       -0.20302862713202       -1.63755908654827
H           -0.94764503187002       -0.24710236612776        1.72741566423080
H           -3.21748579715112        0.57546809895487        2.09430138163945
H           -4.92216510060987        2.32251630656222        1.82129267771635
H           -5.57484942606580        4.54999940427392        1.00843816958454
H           -5.00037430170390        6.63776724720280       -0.14989575588529
H           -3.36756734525509        8.03152539489536       -1.35373270944366
H           -1.08362902485659        7.20381534182556       -1.75834536469292
H            0.61314770356995        5.43170540837592       -1.53483417750137
H            1.27307405882424        3.22250450213913       -0.70924390648824
H            5.35502839562772       -0.31305962185897       -0.89248797771825
H            7.66604723713553        0.49917198728268       -0.74517873299305
H            8.20992951164672        2.45835250368599        0.65434546875502
H            6.41473237697227        3.61384697407643        1.89677691154676
H            4.08833348088664        2.78337603286890        1.75574748621129
H            2.19139705353645       -2.21020584522126       -1.96628969066295
H            3.28360899339401       -4.36776064538463       -2.39435827269678
H            5.03734107689546       -5.19684969525404       -0.86680572827259
H            5.69258130194372       -3.84898846867885        1.09628854226356
H            4.59031821756280       -1.68871209721210        1.53307591028653
H            1.14390606853786       -2.76893757397712        1.26220880919145
H           -0.52317651553324       -4.50530583226101        0.76159570678992

          :  Hamiltonian                  GFN2-xTB          :
         :: gradient norm              0.000037008906 Eh/a0 ::
         :: HOMO-LUMO gap              2.096624766124 eV    ::
         :: SCC energy              -112.118640068460 Eh    ::
         :: -> dispersion             -0.102130230965 Eh    ::
         :: -> Gsolv                  -0.045813771853 Eh    ::
         :: repulsion energy           2.044931947322 Eh    ::

    * Orbital Energies and Occupations

         #    Occupation            Energy/Eh            Energy/eV
      -------------------------------------------------------------
         1        2.0000           -0.6869137             -18.6919
       ...           ...                  ...                  ...
        91        2.0000           -0.4167298             -11.3398
        92        2.0000           -0.4124254             -11.2227
        93        2.0000           -0.4107897             -11.1782
        94        2.0000           -0.4095637             -11.1448
        95        2.0000           -0.4064874             -11.0611
        96        2.0000           -0.4058224             -11.0430
        97        2.0000           -0.4037007             -10.9853
        98        2.0000           -0.4002083             -10.8902
        99        2.0000           -0.3936414             -10.7115
       100        2.0000           -0.3923031             -10.6751
       101        2.0000           -0.3778347             -10.2814
       102        2.0000           -0.3724243             -10.1342
       103        2.0000           -0.3578547              -9.7377 (HOMO)
       104                         -0.2808052              -7.6411 (LUMO)
       105                         -0.2501662              -6.8074
       106                         -0.2443621              -6.6494
       107                         -0.2361371              -6.4256
       108                         -0.2346342              -6.3847
       109                         -0.2275076              -6.1908
       110                         -0.2237793              -6.0893
       111                         -0.2211261              -6.0171
       112                         -0.2179328              -5.9303
       113                         -0.2098855              -5.7113
       114                         -0.1911287              -5.2009
       ...                                ...                  ...
       204                          0.7292228              19.8432
      -------------------------------------------------------------
                  HL-Gap            0.0770495 Eh            2.0966 eV

     #   Z          covCN         q      C6AA      α(0)
     1   6 C        3.752    -0.103    22.520     6.767
     2   6 C        3.801    -0.053    21.528     6.606
     3   6 C        3.804    -0.053    21.531     6.606
     4   6 C        3.808    -0.065    21.738     6.637
     5   6 C        2.970     0.017    27.626     8.622
     6   6 C        2.926    -0.036    28.888     8.814
     7   6 C        2.920    -0.041    29.014     8.833
     8   6 C        2.914     0.060    26.649     8.465
     9   7 N        2.852    -0.046    22.130     6.987
    10   6 C        3.152     0.134    24.821     8.148
    11   6 C        2.971    -0.010    28.257     8.719
    12   6 C        2.920    -0.037    28.923     8.819
    13   6 C        2.918    -0.039    28.976     8.827
    14   6 C        2.982     0.010    27.784     8.646
    15   6 C        2.913    -0.037    28.918     8.818
    16   6 C        2.913    -0.036    28.895     8.815
    17   6 C        2.982     0.011    27.768     8.644
    18   6 C        2.920    -0.038    28.933     8.821
    19   6 C        2.913    -0.031    28.765     8.795
    20   6 C        2.920    -0.037    28.919     8.819
    21   6 C        2.981     0.011    27.760     8.643
    22   6 C        2.913    -0.036    28.901     8.815
    23   6 C        2.912    -0.037    28.918     8.818
    24   6 C        2.982     0.010    27.793     8.648
    25   6 C        2.994     0.002    27.973     8.676
    26   6 C        2.997     0.002    27.968     8.675
    27   7 N        1.912    -0.319    29.117     8.000
    28   6 C        3.162     0.053    26.485     8.412
    29   6 C        2.973     0.005    27.896     8.664
    30   6 C        2.923    -0.039    28.980     8.828
    31   6 C        2.919    -0.032    28.788     8.799
    32   6 C        2.919    -0.034    28.840     8.806
    33   6 C        2.918    -0.031    28.780     8.797
    34   6 C        2.927    -0.032    28.791     8.799
    35   6 C        3.067     0.017    27.572     8.610
    36   6 C        2.971     0.006    27.881     8.661
    37   6 C        2.924    -0.034    28.841     8.807
    38   6 C        2.918    -0.030    28.737     8.791
    39   6 C        2.920    -0.031    28.772     8.796
    40   6 C        2.918    -0.029    28.716     8.787
    41   6 C        2.925    -0.033    28.824     8.804
    42   6 C        2.920    -0.040    29.004     8.832
    43   6 C        2.926    -0.036    28.899     8.816
    44   1 H        0.925     0.034     2.527     2.486
    45   1 H        0.925     0.034     2.529     2.487
    46   1 H        0.925     0.035     2.519     2.482
    47   1 H        0.924     0.032     2.562     2.503
    48   1 H        0.924     0.032     2.563     2.503
    49   1 H        0.924     0.034     2.537     2.491
    50   1 H        0.924     0.033     2.543     2.494
    51   1 H        0.924     0.044     2.402     2.424
    52   1 H        0.924     0.044     2.402     2.424
    53   1 H        0.926     0.045     2.387     2.416
    54   1 H        0.926     0.034     2.536     2.491
    55   1 H        0.926     0.025     2.657     2.549
    56   1 H        0.926     0.037     2.491     2.468
    57   1 H        0.926     0.036     2.505     2.475
    58   1 H        0.926     0.036     2.499     2.472
    59   1 H        0.926     0.035     2.517     2.481
    60   1 H        0.926     0.034     2.534     2.489
    61   1 H        0.926     0.034     2.525     2.485
    62   1 H        0.926     0.035     2.523     2.484
    63   1 H        0.926     0.046     2.371     2.408
    64   1 H        0.926     0.024     2.675     2.558
    65   1 H        0.926     0.029     2.594     2.519
    66   1 H        0.926     0.031     2.575     2.509
    67   1 H        0.926     0.031     2.569     2.507
    68   1 H        0.926     0.042     2.422     2.433
    69   1 H        0.926     0.025     2.655     2.548
    70   1 H        0.926     0.035     2.519     2.482
    71   1 H        0.926     0.036     2.503     2.474
    72   1 H        0.926     0.036     2.509     2.477
    73   1 H        0.926     0.029     2.600     2.522
    74   1 H        0.926     0.036     2.501     2.473
    75   1 H        0.926     0.045     2.387     2.416

molecular dipole:
                 x           y           z       tot (Debye)
 q only:       -1.243      -1.180      -0.331
   full:       -1.227      -1.525      -0.385       5.071

 projected vibrational frequencies (cm⁻¹)
eigval :       -0.00    -0.00    -0.00     0.00     0.00     0.00
eigval :       11.33    13.00    22.79    23.93    30.78    32.57
eigval :       35.17    50.27    58.07    66.80    69.21    71.83
eigval :       80.80   103.01   106.31   112.28   127.36   145.60
eigval :      170.41   181.01   188.93   204.88   210.13   217.72
eigval :      230.15   237.55   246.84   255.96   281.38   291.93
eigval :      318.93   337.69   355.11   370.97   373.77   375.76
eigval :      382.54   384.69   398.61   408.12   436.78   443.08
eigval :      452.63   468.86   475.93   477.05   480.76   497.02
eigval :      502.41   513.43   516.98   537.54   570.99   582.21
eigval :      587.71   588.52   607.80   622.82   633.84   645.11
eigval :      653.26   656.84   670.69   671.47   679.79   683.46
eigval :      690.46   696.39   696.99   723.97   742.58   757.14
eigval :      761.27   764.39   771.76   773.66   801.02   814.99
eigval :      817.61   825.01   828.78   835.42   849.33   852.47
eigval :      871.20   873.68   877.53   885.56   899.46   900.87
eigval :      912.12   915.15   915.81   920.74   924.32   926.33
eigval :      927.11   928.50   929.27   931.59   941.33   942.84
eigval :      944.45   968.10   979.37   995.70  1010.53  1025.32
eigval :     1059.77  1073.18  1078.21  1080.84  1082.09  1098.14
eigval :     1110.53  1117.69  1118.19  1119.87  1123.52  1132.95
eigval :     1141.50  1160.53  1172.32  1176.58  1179.07  1183.76
eigval :     1193.23  1193.98  1195.86  1198.79  1205.49  1212.22
eigval :     1217.40  1226.01  1237.22  1237.93  1257.36  1261.51
eigval :     1262.37  1272.83  1276.78  1280.72  1280.97  1285.27
eigval :     1308.42  1313.88  1314.65  1319.95  1325.06  1326.69
eigval :     1330.96  1356.86  1365.13  1367.07  1386.01  1389.92
eigval :     1401.78  1410.49  1413.18  1415.49  1416.35  1428.42
eigval :     1433.10  1448.32  1453.03  1481.07  1482.95  1486.74
eigval :     1491.48  1492.66  1495.08  1497.42  1500.94  1503.67
eigval :     1526.42  1544.12  1557.87  1560.89  1576.49  1576.81
eigval :     1577.98  1579.77  1595.89  1598.15  1600.60  1602.42
eigval :     1605.45  2956.65  2966.26  2975.00  2977.82  2978.30
eigval :     2986.26  3023.98  3026.72  3033.79  3063.91  3065.51
eigval :     3066.16  3068.73  3068.79  3070.49  3070.94  3071.11
eigval :     3072.47  3075.50  3076.96  3078.26  3078.55  3080.46
eigval :     3082.23  3083.09  3085.27  3087.09  3088.29  3090.83
eigval :     3092.39  3094.72  3105.14

   temp. (K)  partition function   enthalpy   heat capacity  entropy
                                   cal/mol     cal/K/mol   cal/K/mol   J/K/mol
 298.15  VIB  0.240E+17            20544.683    128.446    128.562
         ROT  0.633E+08              888.752      2.981     38.680
         INT  0.152E+25            21433.435    131.427    167.242
         TR   0.126E+29             1481.254      4.968     44.794
         TOT                       22914.6889   136.3955   212.0359   887.1582

       T/K    H(0)-H(T)+PV         H(T)/Eh          T*S/Eh         G(T)/Eh
   ------------------------------------------------------------------------
    298.15    0.365169E-01    0.632707E+00    0.100745E+00    0.531962E+00
   ------------------------------------------------------------------------

         :::::::::::::::::::::::::::::::::::::::::::::::::::::
         ::                  THERMODYNAMIC                  ::
         :::::::::::::::::::::::::::::::::::::::::::::::::::::
         :: total free energy        -109.541746149602 Eh   ::
         ::.................................................::
         :: total energy             -110.073708119395 Eh   ::
         :: zero point energy           0.596190185626 Eh   ::
         :: G(RRHO) w/o ZPVE           -0.064228215833 Eh   ::
         :: G(RRHO) contrib.            0.531961969793 Eh   ::
         :::::::::::::::::::::::::::::::::::::::::::::::::::::

           -------------------------------------------------
          | TOTAL ENERGY             -110.073708119395 Eh   |
          | TOTAL ENTHALPY           -109.441001052656 Eh   |
          | TOTAL FREE ENERGY        -109.541746149602 Eh   |
          | GRADIENT NORM               0.000036994482 Eh/α |
          | HOMO-LUMO GAP               2.096624761369 eV   |
           -------------------------------------------------

 * finished run on 2025/08/24 at 05:18:42.948
