   * xtb version 6.7.1 (edcfbbe) compiled by 'albert@albert-system' on 2024-07-22

   ID    Z sym.   atoms
    1    6 C      1-8, 10-26, 28-43
    2    7 N      9, 27
    3    1 H      44-75

          program call               : xtb data2507/toluene/PnB/PnB_toluene_T1_crest.xyz --gfn 2 --uhf 2 --gbsa toluene --ohess vtight --parallel 40 --molden --ceasefiles --namespace data2507/toluene/PnB/PnB_toluene_T1_finalOpt
      * Solvation model:               GBSA
        Solvent                        toluene
        Solvent mass                       9.2140E+01 g/mol
          :  Hamiltonian                  GFN2-xTB          :
 * total energy  :  -110.0016102 Eh     change       -0.3531866E-08 Eh
 * total energy  :  -110.0016644 Eh     change       -0.5417915E-04 Eh
 * total energy  :  -110.0017172 Eh     change       -0.5288479E-04 Eh
 * total energy  :  -110.0017496 Eh     change       -0.3231652E-04 Eh
 * total energy  :  -110.0017770 Eh     change       -0.2740680E-04 Eh
 * total energy  :  -110.0018147 Eh     change       -0.3774100E-04 Eh
 * total energy  :  -110.0018271 Eh     change       -0.1242195E-04 Eh
 * total energy  :  -110.0018465 Eh     change       -0.1938774E-04 Eh
 * total energy  :  -110.0018610 Eh     change       -0.1445357E-04 Eh
 * total energy  :  -110.0018713 Eh     change       -0.1028910E-04 Eh
 * total energy  :  -110.0022687 Eh     change       -0.3982064E-06 Eh
 * total energy  :  -110.0022690 Eh     change       -0.3287044E-06 Eh
 * total energy  :  -110.0022692 Eh     change       -0.2385109E-06 Eh
 * total energy  :  -110.0022694 Eh     change       -0.2121627E-06 Eh
 * total energy  :  -110.0022697 Eh     change       -0.2370657E-06 Eh
 * total energy  :  -110.0022699 Eh     change       -0.2677751E-06 Eh
 * total energy  :  -110.0022702 Eh     change       -0.2277041E-06 Eh
 * total energy  :  -110.0022703 Eh     change       -0.1441524E-06 Eh
 * total energy  :  -110.0022703 Eh     change       -0.1393772E-08 Eh
   *** GEOMETRY OPTIMIZATION CONVERGED AFTER 68 ITERATIONS ***

 final structure:
================
75
 xtb: 6.7.1 (edcfbbe)
C           -6.41039568523535       -3.97094373207982       -0.30465291337750
C           -5.18596794420440       -4.34234026276046        0.52419820953798
C           -4.01974882099200       -3.39227109929038        0.26244519841388
C           -2.78285600218795       -3.75181443926743        1.09579634351588
C           -1.67140355716403       -2.77811439031919        0.83662526988258
C           -0.76167785490198       -2.99311373513653       -0.19233712023410
C            0.24178711646341       -2.08264534855478       -0.45939989965276
C            0.35452719553140       -0.93124356444200        0.31240745637178
N            1.38882925233946       -0.00670434640547        0.07081421228277
C            1.28186785698666        1.37840350833345        0.02790335674433
C            0.08987548597893        2.14240945528033        0.08136244544458
C            0.15658977824881        3.39950386804866        0.72891872962386
C           -0.96816171950641        4.07666169780116        1.07901097702745
C           -2.26970790406857        3.56389786264259        0.75808918209644
C           -3.43868407660805        4.19955167981094        1.17061187713049
C           -4.68455228860347        3.71532155961309        0.80399917966509
C           -4.80338001220587        2.60241182514111       -0.04083993186548
C           -6.06162975445744        2.11224691504738       -0.47199697337625
C           -6.14231275967836        1.03143398769244       -1.33137680190310
C           -5.00237296801180        0.41253574008867       -1.79991905512965
C           -3.71690449855920        0.85976344110296       -1.39298579149329
C           -2.53574779104295        0.28907614477508       -1.87802279627373
C           -1.29711806636040        0.71400908548225       -1.42195162196659
C           -1.18491880047549        1.70996480637700       -0.45342019339805
C           -2.35703021600298        2.39937992667929       -0.05045718722660
C           -3.62414175923443        1.95081757195017       -0.49002000314564
N            2.49143831089583        1.92979603495443       -0.03468426294706
C            3.38954907467292        0.92831808226658       -0.06575318700677
C            4.81607856174382        1.20596926884448       -0.12966871796516
C            5.76250301916342        0.35515701370920        0.44110483857192
C            7.10835099955098        0.66132055089750        0.36621474160764
C            7.52995147106825        1.81712215445162       -0.27179780990939
C            6.59446347393925        2.67777705729106       -0.82488281288014
C            5.24811980614928        2.37811258757356       -0.75215117310392
C            2.72675793386673       -0.30488696770062        0.00518307549254
C            3.26445113252326       -1.65512955073869        0.02191509301369
C            2.88079821482671       -2.57512626321672        0.99923913197299
C            3.41134810034113       -3.85132578635271        1.00078351891707
C            4.32527658081908       -4.23056706543125        0.03060672132446
C            4.71514929178662       -3.32154858806833       -0.94110160998498
C            4.19300159219042       -2.04274858527731       -0.94691725131815
C           -0.55008800854964       -0.70268193934940        1.34318288889168
C           -1.55360576089025       -1.61813924201379        1.59320104986634
H           -7.23080844776212       -4.65671357281197       -0.10423905008839
H           -6.17947557542664       -4.01319746937040       -1.36722460923742
H           -6.73932488378752       -2.96122617534530       -0.06680570858505
H           -5.44496298836002       -4.31308683622830        1.58529471552793
H           -4.88211938069791       -5.36452938369015        0.28546326892945
H           -3.75717962954858       -3.42345228705347       -0.79719996701290
H           -4.32397304437905       -2.36974082955074        0.49758358288397
H           -2.46011283310813       -4.76282410168828        0.83910069232381
H           -3.05016202724161       -3.73554664417341        2.15423688585994
H           -0.83900846734560       -3.88552315021168       -0.79587393875996
H            0.93592590867164       -2.25784532682089       -1.26809854597450
H            1.13540526928011        3.76024219096287        1.00833923870897
H           -0.90457008303628        5.00440678930440        1.62799873631687
H           -3.36621603147265        5.08597033735279        1.78498174199765
H           -5.58014052729108        4.21028266393109        1.15122221118562
H           -6.95832073317890        2.60365374055992       -0.12418659427048
H           -7.11260252819943        0.67455869526011       -1.64815562111154
H           -5.06991235049311       -0.41889025350749       -2.48558318583413
H           -2.59235245792278       -0.49963777877546       -2.61392651879625
H           -0.40449508563664        0.27485153776815       -1.84141249792454
H            5.44209857689703       -0.53691294793229        0.95813034946452
H            7.83255652693338       -0.00453030407638        0.81303876787902
H            8.58309443009887        2.05000800462230       -0.33052709763891
H            6.91718152047138        3.58523751284939       -1.31454383720375
H            4.50744690005524        3.03997386430444       -1.17484691718430
H            2.18075744620666       -2.28085235108243        1.76768184657120
H            3.11042631866867       -4.55192433784313        1.76574341273047
H            4.73501316629686       -5.22957268528552        0.03319864946931
H            5.42766118649571       -3.61068712960219       -1.69957581453148
H            4.49280349377331       -1.33345211095950       -1.70480496107883
H           -0.45855661399898        0.18794517919882        1.94776039802813
H           -2.25136469210218       -1.42963063375886        2.39596448131555

          :  Hamiltonian                  GFN2-xTB          :
         :: gradient norm              0.000026080575 Eh/a0 ::
         :: HOMO-LUMO gap              0.894371645519 eV    ::
         :: SCC energy              -112.031342828710 Eh    ::
         :: -> dispersion             -0.106139132188 Eh    ::
         :: -> Gsolv                  -0.044350716677 Eh    ::
         :: repulsion energy           2.029072514046 Eh    ::

    * Orbital Energies and Occupations

         #    Occupation            Energy/Eh            Energy/eV
      -------------------------------------------------------------
         1        2.0000           -0.6913854             -18.8136
       ...           ...                  ...                  ...
        92        2.0000           -0.4135384             -11.2530
        93        2.0000           -0.4125696             -11.2266
        94        2.0000           -0.4082142             -11.1081
        95        2.0000           -0.4057859             -11.0420
        96        2.0000           -0.4051634             -11.0251
        97        2.0000           -0.4038770             -10.9901
        98        2.0000           -0.4003297             -10.8935
        99        2.0000           -0.3952797             -10.7561
       100        2.0000           -0.3908933             -10.6367
       101        2.0000           -0.3820553             -10.3963
       102        2.0000           -0.3750552             -10.2058
       103        1.0000           -0.3500843              -9.5263
       104        1.0000           -0.2878564              -7.8330 (HOMO)
       105                         -0.2549888              -6.9386 (LUMO)
       106                         -0.2402942              -6.5387
       107                         -0.2365205              -6.4361
       108                         -0.2345288              -6.3819
       109                         -0.2299042              -6.2560
       110                         -0.2274808              -6.1901
       111                         -0.2235704              -6.0837
       112                         -0.2228644              -6.0644
       113                         -0.2119665              -5.7679
       114                         -0.1879537              -5.1145
       115                         -0.1679550              -4.5703
       ...                                ...                  ...
       204                          0.7279154              19.8076
      -------------------------------------------------------------
                  HL-Gap            0.0328676 Eh            0.8944 eV

     #   Z          covCN         q      C6AA      α(0)
     1   6 C        3.752    -0.102    22.508     6.766
     2   6 C        3.801    -0.053    21.525     6.606
     3   6 C        3.805    -0.052    21.509     6.602
     4   6 C        3.808    -0.065    21.736     6.637
     5   6 C        2.970     0.017    27.620     8.621
     6   6 C        2.926    -0.036    28.889     8.814
     7   6 C        2.920    -0.039    28.976     8.827
     8   6 C        2.913     0.061    26.628     8.462
     9   7 N        2.834    -0.047    22.140     6.988
    10   6 C        3.138     0.135    24.837     8.156
    11   6 C        2.969    -0.020    28.501     8.757
    12   6 C        2.917    -0.032    28.789     8.799
    13   6 C        2.912    -0.044    29.104     8.846
    14   6 C        2.978     0.008    27.840     8.655
    15   6 C        2.915    -0.041    29.007     8.832
    16   6 C        2.916    -0.042    29.032     8.836
    17   6 C        2.977     0.009    27.811     8.651
    18   6 C        2.917    -0.043    29.064     8.840
    19   6 C        2.907    -0.030    28.753     8.793
    20   6 C        2.917    -0.042    29.052     8.839
    21   6 C        2.978     0.009    27.811     8.650
    22   6 C        2.916    -0.043    29.064     8.840
    23   6 C        2.916    -0.041    29.024     8.834
    24   6 C        2.976     0.003    27.955     8.673
    25   6 C        2.994     0.001    28.001     8.680
    26   6 C        2.997     0.000    28.012     8.682
    27   7 N        1.903    -0.318    29.091     7.997
    28   6 C        3.147     0.068    26.221     8.377
    29   6 C        2.973     0.006    27.876     8.660
    30   6 C        2.922    -0.036    28.893     8.815
    31   6 C        2.918    -0.030    28.744     8.792
    32   6 C        2.919    -0.030    28.745     8.792
    33   6 C        2.918    -0.029    28.730     8.790
    34   6 C        2.927    -0.029    28.716     8.788
    35   6 C        3.055     0.028    27.332     8.574
    36   6 C        2.971     0.006    27.889     8.662
    37   6 C        2.923    -0.032    28.793     8.800
    38   6 C        2.918    -0.028    28.699     8.785
    39   6 C        2.919    -0.029    28.721     8.788
    40   6 C        2.918    -0.027    28.685     8.783
    41   6 C        2.925    -0.031    28.785     8.798
    42   6 C        2.920    -0.040    29.000     8.831
    43   6 C        2.926    -0.035    28.882     8.813
    44   1 H        0.925     0.035     2.517     2.481
    45   1 H        0.925     0.034     2.531     2.488
    46   1 H        0.925     0.034     2.529     2.487
    47   1 H        0.924     0.031     2.569     2.506
    48   1 H        0.924     0.032     2.556     2.500
    49   1 H        0.924     0.033     2.542     2.493
    50   1 H        0.924     0.032     2.561     2.503
    51   1 H        0.924     0.045     2.389     2.417
    52   1 H        0.924     0.043     2.406     2.426
    53   1 H        0.926     0.046     2.367     2.406
    54   1 H        0.926     0.037     2.483     2.464
    55   1 H        0.926     0.043     2.415     2.430
    56   1 H        0.926     0.033     2.537     2.491
    57   1 H        0.926     0.031     2.571     2.507
    58   1 H        0.926     0.031     2.573     2.508
    59   1 H        0.926     0.030     2.590     2.517
    60   1 H        0.925     0.030     2.590     2.517
    61   1 H        0.926     0.031     2.578     2.511
    62   1 H        0.926     0.029     2.595     2.519
    63   1 H        0.926     0.019     2.750     2.593
    64   1 H        0.926     0.029     2.607     2.525
    65   1 H        0.926     0.035     2.516     2.481
    66   1 H        0.926     0.036     2.496     2.471
    67   1 H        0.926     0.036     2.497     2.471
    68   1 H        0.926     0.045     2.383     2.414
    69   1 H        0.926     0.028     2.618     2.530
    70   1 H        0.926     0.038     2.470     2.458
    71   1 H        0.926     0.040     2.453     2.449
    72   1 H        0.926     0.039     2.459     2.452
    73   1 H        0.926     0.032     2.565     2.504
    74   1 H        0.926     0.033     2.538     2.491
    75   1 H        0.926     0.043     2.403     2.424

molecular dipole:
                 x           y           z       tot (Debye)
 q only:       -0.054      -1.679       0.206
   full:       -0.088      -1.944       0.217       4.978

 projected vibrational frequencies (cm⁻¹)
eigval :       -0.00    -0.00    -0.00     0.00     0.00     0.00
eigval :        9.05    17.70    22.02    23.86    30.28    35.33
eigval :       44.03    51.61    57.86    71.25    72.98    78.72
eigval :       91.55    93.73   104.51   115.51   131.84   141.26
eigval :      163.38   186.33   193.98   201.30   209.38   209.59
eigval :      227.03   243.24   251.45   253.06   274.89   282.80
eigval :      315.27   336.59   352.12   371.97   375.47   376.44
eigval :      381.57   382.88   388.26   398.32   424.89   428.46
eigval :      437.63   454.46   461.54   467.04   478.21   492.56
eigval :      503.99   505.37   514.84   535.92   552.34   572.19
eigval :      585.38   588.36   603.56   618.76   623.47   633.09
eigval :      643.02   652.43   660.07   667.56   670.37   677.84
eigval :      683.18   683.56   693.42   721.43   730.52   742.43
eigval :      747.96   761.26   763.23   773.58   774.55   798.63
eigval :      802.38   813.28   816.07   821.26   827.95   833.76
eigval :      851.23   871.86   873.53   877.05   881.62   892.71
eigval :      900.26   901.78   907.18   915.55   917.12   927.32
eigval :      928.98   929.57   931.24   931.44   935.55   943.80
eigval :      944.29   951.19   975.05   983.35  1007.98  1017.14
eigval :     1060.61  1065.58  1077.84  1079.86  1081.13  1098.86
eigval :     1111.59  1117.22  1117.57  1119.26  1123.97  1130.69
eigval :     1140.87  1143.72  1156.69  1163.04  1178.34  1178.53
eigval :     1187.78  1190.70  1193.73  1197.94  1198.87  1204.09
eigval :     1210.70  1212.00  1226.79  1236.94  1238.40  1257.69
eigval :     1262.22  1268.28  1275.63  1277.44  1279.47  1281.22
eigval :     1284.27  1303.55  1313.56  1318.35  1320.72  1325.70
eigval :     1326.62  1330.69  1351.46  1360.63  1365.38  1369.21
eigval :     1377.36  1388.74  1396.99  1411.16  1414.63  1414.86
eigval :     1425.51  1430.03  1441.19  1449.99  1462.72  1480.22
eigval :     1484.61  1488.20  1490.70  1493.73  1494.99  1500.29
eigval :     1500.74  1506.10  1515.23  1516.10  1519.93  1537.87
eigval :     1568.00  1570.40  1575.06  1575.66  1587.69  1593.37
eigval :     1600.40  2957.53  2966.88  2974.66  2977.92  2979.52
eigval :     2986.26  3025.49  3027.64  3034.60  3062.67  3066.02
eigval :     3070.45  3072.60  3074.31  3075.10  3075.38  3076.01
eigval :     3076.44  3077.94  3079.13  3079.85  3082.30  3084.42
eigval :     3085.33  3086.19  3087.34  3088.31  3091.34  3091.67
eigval :     3092.41  3095.32  3097.61

   temp. (K)  partition function   enthalpy   heat capacity  entropy
                                   cal/mol     cal/K/mol   cal/K/mol   J/K/mol
 298.15  VIB  0.170E+17            20699.318    130.217    129.216
         ROT  0.511E+08              888.752      2.981     38.254
         INT  0.868E+24            21588.070    133.198    167.470
         TR   0.126E+29             1481.254      4.968     44.794
         TOT                       23069.3242   138.1658   212.2640   888.1126

       T/K    H(0)-H(T)+PV         H(T)/Eh          T*S/Eh         G(T)/Eh
   ------------------------------------------------------------------------
    298.15    0.367633E-01    0.629847E+00    0.100853E+00    0.528993E+00
   ------------------------------------------------------------------------

         :::::::::::::::::::::::::::::::::::::::::::::::::::::
         ::                  THERMODYNAMIC                  ::
         :::::::::::::::::::::::::::::::::::::::::::::::::::::
         :: total free energy        -109.473277137934 Eh   ::
         ::.................................................::
         :: total energy             -110.002270312162 Eh   ::
         :: zero point energy           0.593083342866 Eh   ::
         :: G(RRHO) w/o ZPVE           -0.064090168639 Eh   ::
         :: G(RRHO) contrib.            0.528993174228 Eh   ::
         :::::::::::::::::::::::::::::::::::::::::::::::::::::

           -------------------------------------------------
          | TOTAL ENERGY             -110.002270312162 Eh   |
          | TOTAL ENTHALPY           -109.372423661102 Eh   |
          | TOTAL FREE ENERGY        -109.473277137934 Eh   |
          | GRADIENT NORM               0.000026092362 Eh/α |
          | HOMO-LUMO GAP               0.894373463785 eV   |
           -------------------------------------------------

 * finished run on 2025/08/24 at 05:37:16.864
