   * xtb version 6.7.1 (edcfbbe) compiled by 'albert@albert-system' on 2024-07-22

   ID    Z sym.   atoms
    1    6 C      1-8, 10-26, 28-43
    2    7 N      9, 27
    3    1 H      44-75

          program call               : xtb data2507/toluene/PnB/PnB_toluene_S0_crest.xyz --gfn 2 --gbsa toluene --ohess vtight --parallel 40 --molden --ceasefiles --namespace data2507/toluene/PnB/PnB_toluene_S0_finalOpt
      * Solvation model:               GBSA
        Solvent                        toluene
        Solvent mass                       9.2140E+01 g/mol
          :  Hamiltonian                  GFN2-xTB          :
 * total energy  :  -110.0727150 Eh     change       -0.3521933E-08 Eh
 * total energy  :  -110.0727900 Eh     change       -0.7498809E-04 Eh
 * total energy  :  -110.0728688 Eh     change       -0.7874468E-04 Eh
 * total energy  :  -110.0729159 Eh     change       -0.4715470E-04 Eh
 * total energy  :  -110.0729485 Eh     change       -0.3259414E-04 Eh
 * total energy  :  -110.0729915 Eh     change       -0.4304403E-04 Eh
 * total energy  :  -110.0730054 Eh     change       -0.1387280E-04 Eh
 * total energy  :  -110.0730255 Eh     change       -0.2004445E-04 Eh
 * total energy  :  -110.0730367 Eh     change       -0.1121992E-04 Eh
 * total energy  :  -110.0730432 Eh     change       -0.6543483E-05 Eh
 * total energy  :  -110.0730855 Eh     change       -0.1012395E-05 Eh
 * total energy  :  -110.0730861 Eh     change       -0.6619998E-06 Eh
 * total energy  :  -110.0730868 Eh     change       -0.6828290E-06 Eh
 * total energy  :  -110.0730872 Eh     change       -0.3895574E-06 Eh
 * total energy  :  -110.0730876 Eh     change       -0.3341321E-06 Eh
 * total energy  :  -110.0730880 Eh     change       -0.4136229E-06 Eh
 * total energy  :  -110.0730883 Eh     change       -0.3521704E-06 Eh
 * total energy  :  -110.0730886 Eh     change       -0.2349831E-06 Eh
 * total energy  :  -110.0730886 Eh     change       -0.4197531E-08 Eh
   *** GEOMETRY OPTIMIZATION CONVERGED AFTER 44 ITERATIONS ***

 final structure:
================
75
 xtb: 6.7.1 (edcfbbe)
C           -5.65082273124582       -2.70708624706516       -0.37370200374639
C           -4.41547498607338       -2.85538109247714        0.50619142052643
C           -3.58279490099221       -4.07116658665097        0.10731044594402
C           -2.35909193261231       -4.27409474573065        1.01253540578898
C           -1.35684149379949       -3.16975422148120        0.84563052943877
C           -0.48177771659682       -3.17370643612893       -0.23514788837487
C            0.42714336182258       -2.15119550724846       -0.42149469958802
C            0.47890784249994       -1.09916043928183        0.48596786500287
N            1.39949835913959       -0.04770260868048        0.30860996520089
C            1.11987316683235        1.29355851591393        0.33906465129007
C           -0.21155147200086        1.84405759007593        0.57124726050549
C           -0.36728758908184        2.76402262414610        1.60550179836171
C           -1.61063177715042        3.25875906863420        1.93744821854823
C           -2.75076452768214        2.84351232629399        1.24522590806073
C           -4.05602463752831        3.29879507807377        1.59394474848696
C           -5.14805598296937        2.89855094068814        0.90205159464776
C           -5.03322512419803        2.01522917970484       -0.21196161242241
C           -6.14424697629878        1.60225581729830       -0.95007253365337
C           -5.99808288239463        0.75705491942723       -2.03502256558026
C           -4.74611584979229        0.30515443063875       -2.41027086979935
C           -3.60796515465715        0.68671110098893       -1.69773974465344
C           -2.29875335893210        0.26672533952564       -2.07206419283514
C           -1.20900900879627        0.64084112922038       -1.36242561522047
C           -1.32186709475629        1.46401435557900       -0.20311850034104
C           -2.60487183916519        1.95002353150070        0.15453013445152
C           -3.74674062851162        1.54926542064233       -0.58253740997378
N            2.20161266409400        2.00854599256016        0.16622090896863
C            3.23573763376104        1.13061455649457        0.00680570907443
C            4.59550511348284        1.61746963900845       -0.17478335686929
C            5.70583251861176        0.87588788212228        0.22611232068965
C            6.98188562954577        1.37304842193085        0.03727235795641
C            7.17073316646817        2.61719384526291       -0.54278152445809
C            6.07168470787935        3.37028714640697       -0.92433564318133
C            4.79448420980204        2.87685717579190       -0.74050515528485
C            2.75509690933938       -0.16556796839239        0.08702061003256
C            3.42987813664043       -1.45331656139170       -0.02217777292419
C            3.22763928634796       -2.45083899324535        0.93035155948457
C            3.86641230674260       -3.67120439478161        0.80939135606308
C            4.71484740357478       -3.91199754040119       -0.25860450537905
C            4.92566469216237       -2.92341337341551       -1.20706677316696
C            4.28755580457515       -1.70288865482467       -1.09333404868732
C           -0.38591527002175       -1.08427859223457        1.57298501434770
C           -1.29511326173000       -2.11114305314103        1.74329533329822
H           -6.28664282129121       -3.58687349297835       -0.29345488100284
H           -5.36273796174596       -2.58450211306154       -1.41521515853147
H           -6.22833013986215       -1.83502345958428       -0.07609792426172
H           -3.80495889304631       -1.95311281549503        0.42724440113041
H           -4.72652399173868       -2.95731468834081        1.54883952629330
H           -4.20867306490157       -4.96523806903987        0.16046626376025
H           -3.25006600346097       -3.95566520342791       -0.92651218241628
H           -1.89048923508828       -5.22725884529254        0.75729212096461
H           -2.68880209828608       -4.32223809545989        2.05194795357575
H           -0.51169208345160       -3.98922982617562       -0.94285399316674
H            1.09769833185218       -2.16404405584808       -1.26810185306147
H            0.50974560891792        3.07007449109136        2.15732831513301
H           -1.71179230013482        3.96283957706181        2.75075950426753
H           -4.14952434810872        3.97644966683503        2.43083421698064
H           -6.13373426318862        3.24753217875466        1.17611332012223
H           -7.12566146963629        1.95398027656219       -0.66511818570695
H           -6.86900045968935        0.44973557418054       -2.59605162101699
H           -4.63797647909245       -0.34705724447234       -3.26513964542103
H           -2.19298213316161       -0.35394172808373       -2.95068552786104
H           -0.22380750280372        0.34268068403228       -1.68910638897452
H            5.56754953699012       -0.08675873316097        0.69609877628228
H            7.83464372559578        0.78730844695878        0.35023504792470
H            8.17001265254286        3.00082986349486       -0.68979487750966
H            6.21198245793714        4.34571678621513       -1.36815378368304
H            3.92929482949519        3.45456801563165       -1.02922737641409
H            2.57616432036760       -2.26426673146375        1.77232547700789
H            3.70248238178313       -4.43572173532237        1.55492652114450
H            5.21215082457779       -4.86618480324173       -0.35127909137973
H            5.58793083445807       -3.10515808302415       -2.04098374625692
H            4.44678243302085       -0.93082763939167       -1.83268815448114
H           -0.33993199556483       -0.27125073856403        2.28273149456578
H           -1.96135156962200       -2.08980884654385        2.59309036476853

          :  Hamiltonian                  GFN2-xTB          :
         :: gradient norm              0.000050104831 Eh/a0 ::
         :: HOMO-LUMO gap              2.122162862173 eV    ::
         :: SCC energy              -112.119373713942 Eh    ::
         :: -> dispersion             -0.107544827991 Eh    ::
         :: -> Gsolv                  -0.043325383434 Eh    ::
         :: repulsion energy           2.046285156104 Eh    ::

    * Orbital Energies and Occupations

         #    Occupation            Energy/Eh            Energy/eV
      -------------------------------------------------------------
         1        2.0000           -0.6866956             -18.6859
       ...           ...                  ...                  ...
        91        2.0000           -0.4154521             -11.3050
        92        2.0000           -0.4133715             -11.2484
        93        2.0000           -0.4111124             -11.1869
        94        2.0000           -0.4099995             -11.1567
        95        2.0000           -0.4093830             -11.1399
        96        2.0000           -0.4074759             -11.0880
        97        2.0000           -0.4043357             -11.0025
        98        2.0000           -0.4000214             -10.8851
        99        2.0000           -0.3951780             -10.7533
       100        2.0000           -0.3917624             -10.6604
       101        2.0000           -0.3780608             -10.2876
       102        2.0000           -0.3722159             -10.1285
       103        2.0000           -0.3600988              -9.7988 (HOMO)
       104                         -0.2821108              -7.6766 (LUMO)
       105                         -0.2502155              -6.8087
       106                         -0.2457176              -6.6863
       107                         -0.2357208              -6.4143
       108                         -0.2335084              -6.3541
       109                         -0.2271466              -6.1810
       110                         -0.2240199              -6.0959
       111                         -0.2230190              -6.0687
       112                         -0.2177657              -5.9257
       113                         -0.2099474              -5.7130
       114                         -0.1912188              -5.2033
       ...                                ...                  ...
       204                          0.7265099              19.7693
      -------------------------------------------------------------
                  HL-Gap            0.0779881 Eh            2.1222 eV

     #   Z          covCN         q      C6AA      α(0)
     1   6 C        3.752    -0.101    22.491     6.763
     2   6 C        3.800    -0.051    21.497     6.601
     3   6 C        3.803    -0.055    21.560     6.610
     4   6 C        3.808    -0.065    21.743     6.638
     5   6 C        2.969     0.018    27.602     8.618
     6   6 C        2.926    -0.036    28.887     8.814
     7   6 C        2.920    -0.039    28.974     8.827
     8   6 C        2.913     0.060    26.646     8.465
     9   7 N        2.850    -0.047    22.138     6.988
    10   6 C        3.163     0.136    24.730     8.128
    11   6 C        2.973    -0.008    28.219     8.714
    12   6 C        2.922    -0.032    28.798     8.800
    13   6 C        2.918    -0.038    28.936     8.821
    14   6 C        2.982     0.011    27.770     8.644
    15   6 C        2.913    -0.036    28.900     8.815
    16   6 C        2.913    -0.036    28.891     8.814
    17   6 C        2.982     0.012    27.746     8.640
    18   6 C        2.920    -0.036    28.905     8.816
    19   6 C        2.913    -0.029    28.729     8.789
    20   6 C        2.920    -0.034    28.856     8.809
    21   6 C        2.982     0.012    27.744     8.640
    22   6 C        2.913    -0.036    28.893     8.814
    23   6 C        2.912    -0.036    28.899     8.815
    24   6 C        2.982     0.005    27.916     8.667
    25   6 C        2.995     0.002    27.967     8.675
    26   6 C        2.997     0.003    27.950     8.672
    27   7 N        1.910    -0.323    29.210     8.013
    28   6 C        3.168     0.053    26.461     8.405
    29   6 C        2.973     0.006    27.893     8.663
    30   6 C        2.923    -0.039    28.979     8.828
    31   6 C        2.919    -0.032    28.790     8.799
    32   6 C        2.919    -0.034    28.844     8.807
    33   6 C        2.918    -0.031    28.783     8.798
    34   6 C        2.927    -0.032    28.792     8.800
    35   6 C        3.068     0.015    27.598     8.614
    36   6 C        2.971     0.006    27.881     8.661
    37   6 C        2.924    -0.034    28.839     8.807
    38   6 C        2.918    -0.030    28.738     8.791
    39   6 C        2.920    -0.031    28.776     8.797
    40   6 C        2.918    -0.029    28.718     8.788
    41   6 C        2.925    -0.033    28.831     8.806
    42   6 C        2.921    -0.043    29.056     8.840
    43   6 C        2.925    -0.036    28.892     8.815
    44   1 H        0.925     0.036     2.507     2.476
    45   1 H        0.925     0.033     2.542     2.493
    46   1 H        0.925     0.032     2.558     2.501
    47   1 H        0.924     0.025     2.656     2.548
    48   1 H        0.924     0.031     2.577     2.511
    49   1 H        0.924     0.038     2.474     2.460
    50   1 H        0.924     0.035     2.520     2.483
    51   1 H        0.924     0.046     2.373     2.409
    52   1 H        0.924     0.043     2.404     2.425
    53   1 H        0.926     0.045     2.382     2.414
    54   1 H        0.926     0.036     2.505     2.475
    55   1 H        0.926     0.036     2.502     2.474
    56   1 H        0.926     0.039     2.456     2.451
    57   1 H        0.926     0.037     2.492     2.469
    58   1 H        0.926     0.037     2.487     2.466
    59   1 H        0.926     0.036     2.506     2.476
    60   1 H        0.926     0.035     2.511     2.478
    61   1 H        0.926     0.034     2.523     2.484
    62   1 H        0.926     0.034     2.523     2.484
    63   1 H        0.926     0.022     2.702     2.571
    64   1 H        0.926     0.024     2.679     2.560
    65   1 H        0.926     0.029     2.594     2.519
    66   1 H        0.926     0.031     2.575     2.509
    67   1 H        0.926     0.031     2.571     2.507
    68   1 H        0.926     0.041     2.431     2.438
    69   1 H        0.926     0.025     2.663     2.552
    70   1 H        0.926     0.035     2.522     2.483
    71   1 H        0.926     0.036     2.504     2.475
    72   1 H        0.926     0.035     2.511     2.478
    73   1 H        0.926     0.028     2.608     2.525
    74   1 H        0.926     0.033     2.550     2.497
    75   1 H        0.926     0.044     2.401     2.423

molecular dipole:
                 x           y           z       tot (Debye)
 q only:       -1.488      -1.416       0.080
   full:       -1.420      -1.692       0.101       5.621

 projected vibrational frequencies (cm⁻¹)
eigval :       -0.00    -0.00    -0.00    -0.00     0.00     0.00
eigval :       13.61    19.33    22.94    25.40    34.28    37.29
eigval :       41.20    47.73    56.14    71.94    79.87    81.52
eigval :       84.63    96.92   106.27   113.11   133.71   153.31
eigval :      174.55   190.43   206.42   210.58   216.56   226.66
eigval :      229.66   235.01   245.58   258.48   267.57   290.05
eigval :      323.48   341.52   356.71   371.14   375.58   381.13
eigval :      384.91   388.61   391.01   407.04   425.24   458.60
eigval :      464.28   465.42   478.15   478.76   481.47   495.34
eigval :      503.00   514.37   520.78   544.52   568.38   578.80
eigval :      586.38   589.75   606.69   615.10   633.36   643.12
eigval :      654.14   656.19   669.54   673.11   679.11   681.27
eigval :      687.03   692.93   696.43   723.00   742.12   757.06
eigval :      761.40   764.45   773.11   779.75   800.85   807.30
eigval :      817.93   820.18   837.76   842.16   851.64   866.77
eigval :      868.65   874.40   881.41   885.54   900.97   901.83
eigval :      912.00   912.21   914.07   918.89   923.02   924.61
eigval :      926.75   930.17   930.36   930.52   932.60   942.94
eigval :      960.54   968.56   978.85   994.74  1009.91  1024.70
eigval :     1049.84  1073.91  1080.97  1082.44  1085.13  1095.24
eigval :     1108.38  1117.64  1118.64  1120.05  1123.45  1131.34
eigval :     1141.63  1160.60  1168.88  1177.04  1178.64  1181.40
eigval :     1192.39  1193.57  1196.61  1198.68  1199.45  1204.02
eigval :     1214.39  1222.75  1232.07  1238.54  1242.69  1259.56
eigval :     1270.53  1275.22  1281.67  1283.04  1284.20  1303.39
eigval :     1308.88  1313.76  1314.52  1319.87  1321.37  1330.16
eigval :     1338.83  1357.48  1363.59  1368.60  1386.72  1391.79
eigval :     1400.85  1411.78  1414.02  1414.99  1416.88  1428.42
eigval :     1432.84  1448.79  1453.65  1476.02  1482.35  1484.79
eigval :     1487.48  1491.53  1497.17  1498.68  1501.57  1502.82
eigval :     1538.48  1544.57  1558.88  1561.06  1576.94  1577.30
eigval :     1578.83  1580.18  1595.79  1598.26  1602.74  1603.86
eigval :     1605.17  2958.49  2967.55  2969.02  2978.10  2981.56
eigval :     2986.58  3023.52  3031.81  3038.40  3064.13  3065.06
eigval :     3067.37  3067.69  3068.95  3069.48  3070.95  3072.91
eigval :     3073.72  3076.97  3077.79  3078.11  3078.80  3079.34
eigval :     3081.65  3084.06  3086.16  3087.87  3088.08  3088.88
eigval :     3091.23  3092.11  3095.55

   temp. (K)  partition function   enthalpy   heat capacity  entropy
                                   cal/mol     cal/K/mol   cal/K/mol   J/K/mol
 298.15  VIB  0.583E+16            20416.204    128.727    126.861
         ROT  0.475E+08              888.752      2.981     38.109
         INT  0.277E+24            21304.956    131.708    164.970
         TR   0.126E+29             1481.254      4.968     44.794
         TOT                       22786.2101   136.6760   209.7642   877.6536

       T/K    H(0)-H(T)+PV         H(T)/Eh          T*S/Eh         G(T)/Eh
   ------------------------------------------------------------------------
    298.15    0.363121E-01    0.632825E+00    0.996658E-01    0.533159E+00
   ------------------------------------------------------------------------

         :::::::::::::::::::::::::::::::::::::::::::::::::::::
         ::                  THERMODYNAMIC                  ::
         :::::::::::::::::::::::::::::::::::::::::::::::::::::
         :: total free energy        -109.539929100431 Eh   ::
         ::.................................................::
         :: total energy             -110.073088553576 Eh   ::
         :: zero point energy           0.596513078978 Eh   ::
         :: G(RRHO) w/o ZPVE           -0.063353625833 Eh   ::
         :: G(RRHO) contrib.            0.533159453145 Eh   ::
         :::::::::::::::::::::::::::::::::::::::::::::::::::::

           -------------------------------------------------
          | TOTAL ENERGY             -110.073088553576 Eh   |
          | TOTAL ENTHALPY           -109.440263337423 Eh   |
          | TOTAL FREE ENERGY        -109.539929100431 Eh   |
          | GRADIENT NORM               0.000050102837 Eh/α |
          | HOMO-LUMO GAP               2.122162880114 eV   |
           -------------------------------------------------

 * finished run on 2025/08/24 at 05:27:43.046
