   * xtb version 6.7.1 (edcfbbe) compiled by 'albert@albert-system' on 2024-07-22

   ID    Z sym.   atoms
    1    8 O      1, 3, 18, 19
    2   16 S      2, 17
    3    6 C      4-9, 11-16, 20-25
    4    7 N      10
    5    1 H      26-36

          program call               : xtb data2507/gas/BTPO/BTPO_gas_S0_crest.xyz --gfn 2 --ohess vtight --parallel 40 --molden --ceasefiles --namespace data2507/gas/BTPO/BTPO_gas_S0_finalOpt
          :  Hamiltonian                  GFN2-xTB          :
 * total energy  :   -69.8086924 Eh     change       -0.9250272E-09 Eh
 * total energy  :   -69.8086927 Eh     change       -0.3453020E-06 Eh
 * total energy  :   -69.8086930 Eh     change       -0.2226407E-06 Eh
 * total energy  :   -69.8086932 Eh     change       -0.1894653E-06 Eh
 * total energy  :   -69.8086932 Eh     change       -0.4679822E-07 Eh
   *** GEOMETRY OPTIMIZATION CONVERGED AFTER 5 ITERATIONS ***

 final structure:
================
36
 xtb: 6.7.1 (edcfbbe)
O            2.36362390883826       -0.32051883542768       -2.13378603142652
S            2.58757609788967       -0.74984401156226       -0.77850794270109
O            3.79659423216997       -1.46606993935190       -0.48942588296784
C            2.41070323000501        0.67239164766769        0.27736512084467
C            3.50306892265867        1.31853950074072        0.82298366647943
C            3.31514691264773        2.46852464996507        1.56794469260466
C            2.02802827245813        2.95302804362817        1.76163017834905
C            0.93486594505022        2.29513159999824        1.23253292769360
C            1.11556018950777        1.13550585637013        0.47460292811607
N            0.00109647813056        0.43057600079587        0.00156066396056
C           -1.11060296880902        1.13930014792453       -0.47214591051909
C           -0.92558113007396        2.29976875203769       -1.22770079860460
C           -2.01604382999105        2.96076446421850       -1.75854246495497
C           -3.30457037170292        2.47849960331234       -1.56906319938276
C           -3.49686776883391        1.32798787913843       -0.82598950315117
C           -2.40725706993611        0.67887666920795       -0.27838107837712
S           -2.59054386882863       -0.74345779449518        0.77628720007685
O           -2.37058914420255       -0.31514512013981        2.13251922621914
O           -3.80034130016939       -1.45677488757319        0.48320347668651
C           -1.15839486105513       -1.68664706472969        0.27990285324924
C           -1.16948525007344       -3.06657082353348        0.26459266885841
C           -0.00428854122026       -3.77102877849950        0.00221332143206
C            1.16242189609029       -3.06956409522745       -0.26141641183560
C            1.15452212992861       -1.68963876475843       -0.27808499045016
C           -0.00096334836060       -0.96011618122034        0.00108957388824
H            4.48238930191626        0.90405369761826        0.64320130093996
H            4.16048259697163        2.98546948381046        1.99351196128292
H            1.87328175528654        3.84708186339840        2.34617114847196
H           -0.06504065849930        2.65825840403046        1.41435655026029
H            0.07555844591202        2.66082385418717       -1.40675913221942
H           -1.85785784788045        3.85524584850703       -2.34149859264349
H           -4.14773011025755        2.99729974697420       -1.99670421951798
H           -4.47743118061366        0.91501965299354       -0.64965136908192
H           -2.10205535903392       -3.56618631164307        0.47637133060320
H           -0.00558781107291       -4.84903445715268        0.00245479320548
H            2.09347954455344       -3.57154552801024       -0.47428130568857

          :  Hamiltonian                  GFN2-xTB          :
         :: gradient norm              0.000162359083 Eh/a0 ::
         :: HOMO-LUMO gap              3.132817280094 eV    ::
         :: SCC energy               -70.804791058403 Eh    ::
         :: -> dispersion             -0.057475047525 Eh    ::
         :: repulsion energy           0.996097849673 Eh    ::

    * Orbital Energies and Occupations

         #    Occupation            Energy/Eh            Energy/eV
      -------------------------------------------------------------
         1        2.0000           -0.7838749             -21.3303
       ...           ...                  ...                  ...
        50        2.0000           -0.4623777             -12.5819
        51        2.0000           -0.4575581             -12.4508
        52        2.0000           -0.4505197             -12.2593
        53        2.0000           -0.4491373             -12.2216
        54        2.0000           -0.4469107             -12.1611
        55        2.0000           -0.4465202             -12.1504
        56        2.0000           -0.4453886             -12.1196
        57        2.0000           -0.4453057             -12.1174
        58        2.0000           -0.4426113             -12.0441
        59        2.0000           -0.4404902             -11.9863
        60        2.0000           -0.4222583             -11.4902
        61        2.0000           -0.4146888             -11.2843
        62        2.0000           -0.3981890             -10.8353 (HOMO)
        63                         -0.2830600              -7.7025 (LUMO)
        64                         -0.2725817              -7.4173
        65                         -0.2710994              -7.3770
        66                         -0.2661724              -7.2429
        67                         -0.2650083              -7.2112
        68                         -0.2428262              -6.6076
        69                         -0.1609901              -4.3808
        70                         -0.1492518              -4.0613
        71                         -0.1386514              -3.7729
        72                         -0.1373618              -3.7378
        73                         -0.1151301              -3.1328
       ...                                ...                  ...
       121                          1.2126184              32.9970
      -------------------------------------------------------------
                  HL-Gap            0.1151290 Eh            3.1328 eV

     #   Z          covCN         q      C6AA      α(0)
     1   8 O        0.860    -0.545    24.810     6.678
     2  16 S        3.845     0.978   107.281    17.433
     3   8 O        0.860    -0.528    24.416     6.625
     4   6 C        2.974    -0.094    30.364     9.039
     5   6 C        2.949    -0.020    28.513     8.758
     6   6 C        2.920    -0.028    28.709     8.787
     7   6 C        2.920    -0.022    28.555     8.763
     8   6 C        2.924    -0.040    28.986     8.829
     9   6 C        2.985     0.066    26.509     8.446
    10   7 N        2.754    -0.067    22.543     7.052
    11   6 C        2.984     0.066    26.509     8.446
    12   6 C        2.924    -0.040    28.986     8.829
    13   6 C        2.920    -0.022    28.554     8.763
    14   6 C        2.920    -0.028    28.709     8.787
    15   6 C        2.949    -0.020    28.513     8.758
    16   6 C        2.974    -0.094    30.364     9.039
    17  16 S        3.844     0.978   107.283    17.433
    18   8 O        0.860    -0.545    24.808     6.678
    19   8 O        0.860    -0.528    24.417     6.625
    20   6 C        2.975    -0.095    30.386     9.042
    21   6 C        2.949    -0.018    28.461     8.750
    22   6 C        2.920    -0.027    28.667     8.780
    23   6 C        2.949    -0.018    28.461     8.750
    24   6 C        2.975    -0.095    30.387     9.042
    25   6 C        3.030     0.065    26.522     8.447
    26   1 H        0.926     0.070     2.090     2.261
    27   1 H        0.926     0.060     2.194     2.316
    28   1 H        0.926     0.060     2.199     2.319
    29   1 H        0.926     0.058     2.225     2.333
    30   1 H        0.926     0.058     2.226     2.333
    31   1 H        0.926     0.060     2.200     2.319
    32   1 H        0.926     0.060     2.195     2.317
    33   1 H        0.926     0.070     2.090     2.261
    34   1 H        0.926     0.078     1.996     2.209
    35   1 H        0.926     0.071     2.072     2.251
    36   1 H        0.926     0.078     1.996     2.209

molecular dipole:
                 x           y           z       tot (Debye)
 q only:        0.008       1.399       0.004
   full:        0.008       1.317       0.004       3.349

 projected vibrational frequencies (cm⁻¹)
eigval :       -0.00    -0.00    -0.00    -0.00     0.00     0.00
eigval :       38.69    39.72    61.04    87.77    92.59   112.39
eigval :      129.57   148.23   188.33   193.57   221.53   225.01
eigval :      236.20   266.23   278.00   280.73   310.08   314.93
eigval :      363.45   380.12   401.44   404.85   446.83   451.61
eigval :      453.13   475.78   482.72   504.29   508.59   519.68
eigval :      538.83   540.63   546.95   601.24   621.82   669.11
eigval :      673.13   683.45   693.56   703.27   729.71   773.40
eigval :      781.30   784.27   806.49   882.87   885.38   909.67
eigval :      910.15   911.42   916.38   917.81   917.89   927.27
eigval :      928.45  1024.61  1060.32  1079.01  1081.04  1081.32
eigval :     1108.75  1116.52  1134.56  1155.98  1156.81  1159.30
eigval :     1171.01  1171.94  1180.66  1209.73  1227.02  1229.15
eigval :     1250.28  1250.54  1303.34  1309.60  1316.36  1322.57
eigval :     1323.78  1412.70  1419.71  1420.45  1442.32  1447.88
eigval :     1457.43  1543.00  1561.28  1565.17  1582.80  1589.47
eigval :     1596.68  3091.23  3091.98  3099.93  3100.16  3100.92
eigval :     3103.81  3104.72  3105.31  3111.98  3112.07  3112.84

   temp. (K)  partition function   enthalpy   heat capacity  entropy
                                   cal/mol     cal/K/mol   cal/K/mol   J/K/mol
 298.15  VIB  0.445E+07            10733.980     71.893     63.743
         ROT  0.451E+07              888.752      2.981     33.430
         INT  0.201E+14            11622.733     74.874     97.173
         TR   0.687E+28             1481.254      4.968     43.593
         TOT                       13103.9867    79.8417   140.7664   588.9665

       T/K    H(0)-H(T)+PV         H(T)/Eh          T*S/Eh         G(T)/Eh
   ------------------------------------------------------------------------
    298.15    0.208825E-01    0.267994E+00    0.668826E-01    0.201112E+00
   ------------------------------------------------------------------------

         :::::::::::::::::::::::::::::::::::::::::::::::::::::
         ::                  THERMODYNAMIC                  ::
         :::::::::::::::::::::::::::::::::::::::::::::::::::::
         :: total free energy         -69.607581444558 Eh   ::
         ::.................................................::
         :: total energy              -69.808693208735 Eh   ::
         :: zero point energy           0.247111873533 Eh   ::
         :: G(RRHO) w/o ZPVE           -0.046000109356 Eh   ::
         :: G(RRHO) contrib.            0.201111764177 Eh   ::
         :::::::::::::::::::::::::::::::::::::::::::::::::::::

           -------------------------------------------------
          | TOTAL ENERGY              -69.808693208735 Eh   |
          | TOTAL ENTHALPY            -69.540698803121 Eh   |
          | TOTAL FREE ENERGY         -69.607581444558 Eh   |
          | GRADIENT NORM               0.000162333736 Eh/α |
          | HOMO-LUMO GAP               3.132820528249 eV   |
           -------------------------------------------------

 * finished run on 2025/09/05 at 00:22:46.839
