   * xtb version 6.7.1 (edcfbbe) compiled by 'albert@albert-system' on 2024-07-22

   ID    Z sym.   atoms
    1    8 O      1, 3, 18, 19
    2   16 S      2, 17
    3    6 C      4-9, 11-16, 20-25
    4    7 N      10
    5    1 H      26-36

          program call               : xtb data2507/gas/BTPO/BTPO.xyz --gfn 2 --ohess vtight --parallel 40 --molden --ceasefiles --namespace data2507/gas/BTPO/BTPO_gas_S0_preOpt
          :  Hamiltonian                  GFN2-xTB          :
 * total energy  :   -69.7889423 Eh     change       -0.1176147E-08 Eh
 * total energy  :   -69.8001048 Eh     change       -0.1116256E-01 Eh
 * total energy  :   -69.8048525 Eh     change       -0.4747688E-02 Eh
 * total energy  :   -69.8058281 Eh     change       -0.9755630E-03 Eh
 * total energy  :   -69.8065700 Eh     change       -0.7419027E-03 Eh
 * total energy  :   -69.8070232 Eh     change       -0.4532787E-03 Eh
 * total energy  :   -69.8073187 Eh     change       -0.2954045E-03 Eh
 * total energy  :   -69.8075951 Eh     change       -0.2764059E-03 Eh
 * total energy  :   -69.8078658 Eh     change       -0.2707284E-03 Eh
 * total energy  :   -69.8081205 Eh     change       -0.2547331E-03 Eh
 * total energy  :   -69.8086621 Eh     change       -0.4508801E-04 Eh
 * total energy  :   -69.8086741 Eh     change       -0.1201627E-04 Eh
 * total energy  :   -69.8086876 Eh     change       -0.1355712E-04 Eh
 * total energy  :   -69.8086911 Eh     change       -0.3505894E-05 Eh
 * total energy  :   -69.8086925 Eh     change       -0.1382177E-05 Eh
 * total energy  :   -69.8086932 Eh     change       -0.6368446E-06 Eh
 * total energy  :   -69.8086933 Eh     change       -0.1760865E-06 Eh
 * total energy  :   -69.8086934 Eh     change       -0.3531302E-07 Eh
 * total energy  :   -69.8086934 Eh     change       -0.7367332E-07 Eh
   *** GEOMETRY OPTIMIZATION CONVERGED AFTER 23 ITERATIONS ***

 final structure:
================
36
 xtb: 6.7.1 (edcfbbe)
O            1.88375512766004       -0.64141695151582       -2.56876709650155
S            2.37695608296099       -1.07126057953695       -1.28690981787695
O            3.62024585355730       -1.78614039986680       -1.24879165444242
C            2.41525140967410        0.35035585861264       -0.21632548124717
C            3.59454092211372        0.99775353335692        0.09765496793856
C            3.55946166376809        2.14796616371748        0.86485184512593
C            2.33731915492215        2.63153316582791        1.31358848466504
C            1.16055880002154        1.97236167161073        1.01599064327102
C            1.18597027038401        0.81235392515624        0.23785082195359
N           -0.00000540016856        0.10561374704122       -0.00002122025000
C           -1.18596018483671        0.81240542446097       -0.23787514084030
C           -1.16052222871812        1.97241109166325       -1.01601947595791
C           -2.33726569279812        2.63162881036129       -1.31359967470524
C           -3.55941807779088        2.14810505559712       -0.86484810986299
C           -3.59452561941833        0.99789557302354       -0.09764619915597
C           -2.41525297833496        0.35045550710234        0.21631312413936
S           -2.37695121074146       -1.07114554388703        1.28694290437924
O           -1.88356729639076       -0.64125388104742        2.56871553267064
O           -3.62027100519965       -1.78596489594351        1.24896423982929
C           -1.07573093099768       -2.01309643692188        0.50802160837982
C           -1.08834119505635       -3.39301004425100        0.49423788423233
C           -0.00007705408912       -4.09598227856639       -0.00002482647341
C            1.08821476718274       -3.39304922053654       -0.49427863074094
C            1.07565188256152       -2.01313272670599       -0.50806931940740
C           -0.00002838480556       -1.28507465782517       -0.00002445986978
H            4.51791286042728        0.58400303711606       -0.27566116618244
H            4.47271627086906        2.66589183180742        1.11112251709820
H            2.30260133470871        3.52588808408106        1.91682561960969
H            0.21750375588407        2.33466140511235        1.39558074377858
H           -0.21745878234857        2.33467326366410       -1.39562403329637
H           -2.30251947642984        3.52600257957236       -1.91680875369469
H           -4.47265642678103        2.66607807875808       -1.11108331823314
H           -4.51790391129709        0.58419436483665        0.27570939681399
H           -1.95767691927728       -3.89382224313993        0.89122721492253
H           -0.00008709066303       -5.17399393400151       -0.00000552296976
H            1.95755770944776       -3.89389037873495       -0.89121564709913

          :  Hamiltonian                  GFN2-xTB          :
         :: gradient norm              0.000074530059 Eh/a0 ::
         :: HOMO-LUMO gap              3.132489095947 eV    ::
         :: SCC energy               -70.804820469193 Eh    ::
         :: -> dispersion             -0.057477874629 Eh    ::
         :: repulsion energy           0.996127028062 Eh    ::

    * Orbital Energies and Occupations

         #    Occupation            Energy/Eh            Energy/eV
      -------------------------------------------------------------
         1        2.0000           -0.7838632             -21.3300
       ...           ...                  ...                  ...
        50        2.0000           -0.4623680             -12.5817
        51        2.0000           -0.4575684             -12.4511
        52        2.0000           -0.4505147             -12.2591
        53        2.0000           -0.4491317             -12.2215
        54        2.0000           -0.4468979             -12.1607
        55        2.0000           -0.4465127             -12.1502
        56        2.0000           -0.4453907             -12.1197
        57        2.0000           -0.4453019             -12.1173
        58        2.0000           -0.4425989             -12.0437
        59        2.0000           -0.4404781             -11.9860
        60        2.0000           -0.4222520             -11.4901
        61        2.0000           -0.4146820             -11.2841
        62        2.0000           -0.3981810             -10.8351 (HOMO)
        63                         -0.2830639              -7.7026 (LUMO)
        64                         -0.2725801              -7.4173
        65                         -0.2710891              -7.3767
        66                         -0.2661666              -7.2428
        67                         -0.2649968              -7.2109
        68                         -0.2428240              -6.6076
        69                         -0.1610002              -4.3810
        70                         -0.1492443              -4.0611
        71                         -0.1386458              -3.7727
        72                         -0.1373360              -3.7371
        73                         -0.1150838              -3.1316
       ...                                ...                  ...
       121                          1.2127377              33.0003
      -------------------------------------------------------------
                  HL-Gap            0.1151171 Eh            3.1325 eV

     #   Z          covCN         q      C6AA      α(0)
     1   8 O        0.860    -0.545    24.810     6.678
     2  16 S        3.845     0.978   107.281    17.433
     3   8 O        0.860    -0.528    24.416     6.625
     4   6 C        2.974    -0.094    30.364     9.039
     5   6 C        2.949    -0.020    28.513     8.758
     6   6 C        2.920    -0.028    28.709     8.787
     7   6 C        2.920    -0.022    28.554     8.763
     8   6 C        2.924    -0.040    28.986     8.829
     9   6 C        2.985     0.066    26.509     8.446
    10   7 N        2.754    -0.067    22.543     7.052
    11   6 C        2.985     0.066    26.509     8.446
    12   6 C        2.924    -0.040    28.986     8.829
    13   6 C        2.920    -0.022    28.554     8.763
    14   6 C        2.920    -0.028    28.709     8.787
    15   6 C        2.949    -0.020    28.513     8.758
    16   6 C        2.974    -0.094    30.364     9.039
    17  16 S        3.845     0.978   107.281    17.433
    18   8 O        0.860    -0.545    24.810     6.678
    19   8 O        0.860    -0.528    24.416     6.625
    20   6 C        2.975    -0.095    30.386     9.042
    21   6 C        2.949    -0.018    28.461     8.750
    22   6 C        2.920    -0.027    28.668     8.780
    23   6 C        2.949    -0.018    28.461     8.750
    24   6 C        2.975    -0.095    30.386     9.042
    25   6 C        3.031     0.065    26.522     8.447
    26   1 H        0.926     0.070     2.090     2.261
    27   1 H        0.926     0.060     2.194     2.317
    28   1 H        0.926     0.060     2.200     2.319
    29   1 H        0.926     0.058     2.226     2.333
    30   1 H        0.926     0.058     2.226     2.333
    31   1 H        0.926     0.060     2.200     2.319
    32   1 H        0.926     0.060     2.194     2.317
    33   1 H        0.926     0.070     2.090     2.261
    34   1 H        0.926     0.078     1.996     2.209
    35   1 H        0.926     0.071     2.072     2.251
    36   1 H        0.926     0.078     1.996     2.209

molecular dipole:
                 x           y           z       tot (Debye)
 q only:       -0.000       1.397      -0.000
   full:       -0.000       1.315       0.000       3.343

 projected vibrational frequencies (cm⁻¹)
eigval :       -0.00    -0.00    -0.00     0.00     0.00     0.00
eigval :       39.27    39.66    62.11    87.87    92.55   112.40
eigval :      129.57   147.77   188.96   193.52   221.47   224.73
eigval :      236.24   266.62   277.90   280.72   310.08   315.02
eigval :      362.81   380.08   401.48   403.91   446.65   452.42
eigval :      453.12   475.77   482.64   504.33   507.98   519.36
eigval :      539.25   540.63   546.91   602.00   621.85   669.09
eigval :      672.95   682.47   693.50   703.36   729.78   773.50
eigval :      781.43   784.28   806.61   882.88   885.35   909.22
eigval :      910.12   911.39   916.39   917.66   917.82   927.26
eigval :      928.46  1024.63  1060.19  1079.04  1081.02  1081.28
eigval :     1108.75  1116.56  1134.60  1155.99  1156.83  1159.29
eigval :     1170.97  1171.96  1180.79  1209.57  1227.02  1229.20
eigval :     1250.31  1250.58  1303.14  1309.61  1316.75  1322.58
eigval :     1323.77  1413.03  1419.82  1420.43  1442.31  1447.81
eigval :     1457.40  1543.12  1561.31  1565.16  1582.83  1589.48
eigval :     1596.65  3091.23  3091.97  3099.97  3100.14  3100.97
eigval :     3103.78  3104.73  3105.31  3112.02  3112.06  3112.81

   temp. (K)  partition function   enthalpy   heat capacity  entropy
                                   cal/mol     cal/K/mol   cal/K/mol   J/K/mol
 298.15  VIB  0.433E+07            10732.678     71.921     63.733
         ROT  0.451E+07              888.752      2.981     33.430
         INT  0.195E+14            11621.430     74.901     97.163
         TR   0.687E+28             1481.254      4.968     43.593
         TOT                       13102.6843    79.8695   140.7566   588.9258

       T/K    H(0)-H(T)+PV         H(T)/Eh          T*S/Eh         G(T)/Eh
   ------------------------------------------------------------------------
    298.15    0.208805E-01    0.267993E+00    0.668780E-01    0.201115E+00
   ------------------------------------------------------------------------

         :::::::::::::::::::::::::::::::::::::::::::::::::::::
         ::                  THERMODYNAMIC                  ::
         :::::::::::::::::::::::::::::::::::::::::::::::::::::
         :: total free energy         -69.607578261671 Eh   ::
         ::.................................................::
         :: total energy              -69.808693441158 Eh   ::
         :: zero point energy           0.247112747904 Eh   ::
         :: G(RRHO) w/o ZPVE           -0.045997568417 Eh   ::
         :: G(RRHO) contrib.            0.201115179487 Eh   ::
         :::::::::::::::::::::::::::::::::::::::::::::::::::::

           -------------------------------------------------
          | TOTAL ENERGY              -69.808693441158 Eh   |
          | TOTAL ENTHALPY            -69.540700236798 Eh   |
          | TOTAL FREE ENERGY         -69.607578261671 Eh   |
          | GRADIENT NORM               0.000074900002 Eh/α |
          | HOMO-LUMO GAP               3.132494462279 eV   |
           -------------------------------------------------

 * finished run on 2025/09/05 at 00:21:32.396
