   * xtb version 6.7.1 (edcfbbe) compiled by 'albert@albert-system' on 2024-07-22

   ID    Z sym.   atoms
    1    8 O      1, 3, 18, 19
    2   16 S      2, 17
    3    6 C      4-9, 11-16, 20-25
    4    7 N      10
    5    1 H      26-36

          program call               : xtb data2507/gas/BTPO/BTPO_gas_S0_finalOpt.xtbopt.xyz --gfn 2 --spinpol --tblite --uhf 2 --ohess vtight --parallel 40 --molden --ceasefiles --namespace data2507/gas/BTPO/BTPO_gas_T1_preOpt
 * total energy  :   -69.6883655 Eh     change        0.5954348E-09 Eh
 * total energy  :   -69.6918347 Eh     change       -0.3469162E-02 Eh
 * total energy  :   -69.6929032 Eh     change       -0.1068496E-02 Eh
 * total energy  :   -69.6930798 Eh     change       -0.1765733E-03 Eh
 * total energy  :   -69.6932154 Eh     change       -0.1356440E-03 Eh
 * total energy  :   -69.6932621 Eh     change       -0.4667140E-04 Eh
 * total energy  :   -69.6933050 Eh     change       -0.4293557E-04 Eh
 * total energy  :   -69.6933262 Eh     change       -0.2115953E-04 Eh
 * total energy  :   -69.6933414 Eh     change       -0.1522030E-04 Eh
 * total energy  :   -69.6933528 Eh     change       -0.1141779E-04 Eh
 * total energy  :   -69.6933714 Eh     change       -0.2335054E-05 Eh
 * total energy  :   -69.6933731 Eh     change       -0.1695602E-05 Eh
 * total energy  :   -69.6933744 Eh     change       -0.1222368E-05 Eh
 * total energy  :   -69.6933753 Eh     change       -0.9484450E-06 Eh
 * total energy  :   -69.6933761 Eh     change       -0.7632823E-06 Eh
 * total energy  :   -69.6933767 Eh     change       -0.6343385E-06 Eh
 * total energy  :   -69.6933772 Eh     change       -0.5087187E-06 Eh
 * total energy  :   -69.6933776 Eh     change       -0.3923285E-06 Eh
 * total energy  :   -69.6933776 Eh     change       -0.5952614E-08 Eh
   *** GEOMETRY OPTIMIZATION CONVERGED AFTER 22 ITERATIONS ***

 final structure:
================
36
 xtb: 6.7.1 (edcfbbe)
O            2.26134116965877       -0.20470893847639       -2.14443133733429
S            2.55848023034774       -0.71891407891075       -0.83005751065010
O            3.78303871022710       -1.44251106160292       -0.64417425963269
C            2.41294150723256        0.61384869639267        0.32082636990039
C            3.49042350043231        1.26574908973253        0.87941141337993
C            3.30317660009783        2.42815646171416        1.60759936535600
C            2.00051181027132        2.95575499789583        1.76202762836566
C            0.91966392135482        2.32324878450810        1.20449608294159
C            1.09051635846710        1.12739027069104        0.47818343635207
N            0.00119141394061        0.43537703304804       -0.00182417008446
C           -1.08540049509982        1.13155698077878       -0.47999702279934
C           -0.91165180544984        2.33035229742479       -1.20152792946399
C           -1.99033438726298        2.96668068454883       -1.75810255394709
C           -3.29477913244526        2.44095444526968       -1.60699846701283
C           -3.48520400169833        1.27663390689563       -0.88254821309415
C           -2.40988939565991        0.62015864626867       -0.32555476490272
S           -2.56024603958693       -0.71145303261404        0.82587966257490
O           -2.26426197953130       -0.19711027774343        2.14048712698362
O           -3.78593380292392       -1.43267319006093        0.63839932114099
C           -1.15900769273979       -1.67667849578361        0.30865281564582
C           -1.16906892441704       -3.07098701585852        0.29280413915124
C           -0.00292157240419       -3.76487350133463        0.00399671030055
C            1.16373921672755       -3.07444123846853       -0.28727928842529
C            1.15660020646872       -1.67987247424793       -0.30836647851978
C           -0.00081578561220       -0.96795956458428       -0.00072188648053
H            4.47362450584238        0.85355661178502        0.71276800209490
H            4.14336715868832        2.93847349707374        2.04926265374291
H            1.85795774500049        3.85408641430693        2.34060733330564
H           -0.08258838232317        2.69024463322788        1.36811116781311
H            0.09153159740288        2.69583052647995       -1.36279939562236
H           -1.84554806878009        3.86651794730823       -2.33375336202341
H           -4.13332377967535        2.95448189932268       -2.04800240984561
H           -4.46960230059435        0.86656364853850       -0.71764292308980
H           -2.09531782475747       -3.57193328296282        0.52085732574262
H           -0.00409328117247       -4.84375532635781        0.00588497323976
H            2.08911174421490       -3.57774144623618       -0.51393739040939

 projected vibrational frequencies (cm⁻¹)
eigval :       -0.00    -0.00    -0.00    -0.00     0.00     0.00
eigval :      -21.91    38.61    52.28    75.41    83.46   106.75
eigval :      124.70   142.41   181.87   185.55   210.08   213.88
eigval :      230.59   260.27   261.64   270.86   307.39   312.86
eigval :      335.58   361.78   386.23   388.53   396.74   412.02
eigval :      424.46   442.71   449.12   473.08   479.84   504.17
eigval :      510.15   524.10   545.71   582.44   603.75   605.20
eigval :      610.09   663.42   674.69   688.84   718.18   725.05
eigval :      731.23   753.51   775.69   825.37   834.75   850.90
eigval :      866.06   884.50   890.05   891.88   897.88   899.72
eigval :      902.21   937.75  1005.36  1026.55  1028.07  1058.24
eigval :     1085.21  1089.35  1094.91  1107.25  1139.49  1146.55
eigval :     1151.83  1153.41  1165.29  1185.46  1186.72  1196.69
eigval :     1212.76  1242.43  1243.15  1263.06  1287.31  1301.34
eigval :     1329.05  1352.77  1353.54  1370.79  1374.46  1389.58
eigval :     1395.36  1431.65  1434.71  1439.46  1460.04  1463.28
eigval :     1512.89  3086.59  3088.79  3097.54  3098.74  3098.88
eigval :     3106.45  3106.60  3114.14  3114.89  3116.15  3118.64

   temp. (K)  partition function   enthalpy   heat capacity  entropy
                                   cal/mol     cal/K/mol   cal/K/mol   J/K/mol
 298.15  VIB  0.209E+07            10743.027     73.537     63.001
         ROT  0.446E+07              888.752      2.981     33.409
         INT  0.934E+13            11631.779     76.518     96.411
         TR   0.687E+28             1481.254      4.968     43.593
         TOT                       13113.0330    81.4864   140.0040   585.7767

       T/K    H(0)-H(T)+PV         H(T)/Eh          T*S/Eh         G(T)/Eh
   ------------------------------------------------------------------------
    298.15    0.208969E-01    0.260860E+00    0.665204E-01    0.194339E+00
   ------------------------------------------------------------------------

         :::::::::::::::::::::::::::::::::::::::::::::::::::::
         ::                  THERMODYNAMIC                  ::
         :::::::::::::::::::::::::::::::::::::::::::::::::::::
         :: total free energy         -69.499038377049 Eh   ::
         ::.................................................::
         :: total energy              -69.693377611273 Eh   ::
         :: zero point energy           0.239962696449 Eh   ::
         :: G(RRHO) w/o ZPVE           -0.045623462226 Eh   ::
         :: G(RRHO) contrib.            0.194339234224 Eh   ::
         :::::::::::::::::::::::::::::::::::::::::::::::::::::

           -------------------------------------------------
          | TOTAL ENERGY              -69.693377611273 Eh   |
          | TOTAL ENTHALPY            -69.432517966517 Eh   |
          | TOTAL FREE ENERGY         -69.499038377049 Eh   |
          | GRADIENT NORM               0.000053372224 Eh/α |
           -------------------------------------------------

 * finished run on 2025/09/05 at 00:22:49.180
