   * xtb version 6.7.1 (edcfbbe) compiled by 'albert@albert-system' on 2024-07-22

   ID    Z sym.   atoms
    1    8 O      1, 3, 18, 19
    2   16 S      2, 17
    3    6 C      4-9, 11-16, 20-25
    4    7 N      10
    5    1 H      26-36

          program call               : xtb data2507/gas/BTPO/BTPO_gas_T1_crest.xyz --gfn 2 --spinpol --tblite --uhf 2 --ohess vtight --parallel 40 --molden --ceasefiles --namespace data2507/gas/BTPO/BTPO_gas_T1_finalOpt
 * total energy  :   -69.6933534 Eh     change        0.1120274E-07 Eh
 * total energy  :   -69.6933689 Eh     change       -0.1550071E-04 Eh
 * total energy  :   -69.6933798 Eh     change       -0.1085284E-04 Eh
 * total energy  :   -69.6933817 Eh     change       -0.1941279E-05 Eh
 * total energy  :   -69.6933828 Eh     change       -0.1122526E-05 Eh
 * total energy  :   -69.6933835 Eh     change       -0.6450639E-06 Eh
 * total energy  :   -69.6933841 Eh     change       -0.5946813E-06 Eh
 * total energy  :   -69.6933844 Eh     change       -0.3182129E-06 Eh
 * total energy  :   -69.6933847 Eh     change       -0.2880612E-06 Eh
 * total energy  :   -69.6933851 Eh     change       -0.4172968E-06 Eh
 * total energy  :   -69.6933890 Eh     change       -0.1521804E-05 Eh
 * total energy  :   -69.6933916 Eh     change       -0.2591131E-05 Eh
 * total energy  :   -69.6933949 Eh     change       -0.3328898E-05 Eh
 * total energy  :   -69.6933974 Eh     change       -0.2538461E-05 Eh
 * total energy  :   -69.6933994 Eh     change       -0.1974857E-05 Eh
 * total energy  :   -69.6934015 Eh     change       -0.2072598E-05 Eh
 * total energy  :   -69.6934034 Eh     change       -0.1899627E-05 Eh
 * total energy  :   -69.6934044 Eh     change       -0.1046834E-05 Eh
 * total energy  :   -69.6934044 Eh     change       -0.8123905E-08 Eh
   *** GEOMETRY OPTIMIZATION CONVERGED AFTER 22 ITERATIONS ***

 final structure:
================
36
 xtb: 6.7.1 (edcfbbe)
O            2.33695495205354       -0.21040928086947       -2.06832798521037
S            2.58064002664304       -0.73650231970157       -0.74739023300903
O            3.78877329381600       -1.47613297939621       -0.52324996783836
C            2.41088919235598        0.59301476360603        0.40425244634971
C            3.48086579892732        1.26283416507407        0.95007455424972
C            3.29124262651161        2.45747891721077        1.62652563312628
C            1.98630963173226        3.00992076393496        1.72336768220356
C            0.91380693216822        2.36891706628890        1.16910966261936
C            1.08206317153937        1.12872532254785        0.50944197581113
N            0.00437556374039        0.42417898320344        0.04516062071175
C           -1.08709054308838        1.10774573495347       -0.46520015042329
C           -0.90003984269502        2.25882211341928       -1.24934088721436
C           -1.97806434911533        2.88422526780171       -1.82856336644959
C           -3.28123270479737        2.38578921962262       -1.64287744728753
C           -3.48036155983001        1.25711595465099       -0.86755818240674
C           -2.40624935673440        0.62020139420937       -0.28194260578063
S           -2.55245307081577       -0.71957682135615        0.86358834413197
O           -2.22661656391675       -0.21764610471265        2.17555293960512
O           -3.79107516637130       -1.42300562738300        0.69190694370213
C           -1.17790171390391       -1.68488324040937        0.29681464544680
C           -1.20430894997956       -3.07727160225297        0.21384450503889
C           -0.05510058855443       -3.77338791836042       -0.10063658523966
C            1.13378906713484       -3.08342310475984       -0.34898594726781
C            1.14499839654354       -1.69589668722345       -0.29958665684990
C            0.00042370411872       -0.97737592490427        0.01974930973500
H            4.46479855902244        0.84005205333663        0.81631392010368
H            4.12595858986562        2.97715435265539        2.06693705224730
H            1.84454446864779        3.93445987539482        2.25912555211867
H           -0.08693806063292        2.75556934100123        1.29075747736081
H            0.10609879654226        2.60482808904458       -1.43370268273591
H           -1.82374302333464        3.75545378671195       -2.44466899804924
H           -4.11794627189556        2.88764552327620       -2.10115848634259
H           -4.46633534450477        0.85847855502601       -0.68602248846147
H           -2.13959184845801       -3.57320117265484        0.41801185670591
H           -0.06890045887143       -4.85083236462435       -0.15009960253762
H            2.05235635363663       -3.59282273686169       -0.58749771866377

 projected vibrational frequencies (cm⁻¹)
eigval :       -0.00    -0.00    -0.00     0.00     0.00     0.00
eigval :       23.94    39.12    54.96    76.40    83.87   106.56
eigval :      124.86   141.74   180.36   186.82   210.31   214.17
eigval :      230.90   259.40   260.53   274.29   305.89   314.17
eigval :      341.59   360.31   383.07   389.20   397.81   418.37
eigval :      425.60   445.62   447.30   474.98   481.14   502.25
eigval :      511.65   524.91   546.51   584.10   592.90   608.90
eigval :      620.88   660.32   675.05   687.21   715.77   718.35
eigval :      742.45   756.78   773.98   819.18   843.26   854.34
eigval :      865.86   883.34   892.63   893.24   894.84   901.64
eigval :      903.08   954.73  1002.06  1018.03  1032.90  1057.87
eigval :     1069.67  1091.72  1106.55  1111.47  1129.62  1149.05
eigval :     1150.27  1155.68  1167.00  1176.54  1193.51  1205.54
eigval :     1213.37  1242.59  1243.19  1262.73  1274.01  1322.06
eigval :     1330.89  1341.81  1354.62  1365.80  1381.04  1387.56
eigval :     1399.87  1424.46  1437.84  1447.79  1465.01  1467.44
eigval :     1528.34  3086.78  3089.01  3097.00  3098.55  3099.81
eigval :     3105.64  3107.13  3111.56  3113.05  3116.10  3120.73

   temp. (K)  partition function   enthalpy   heat capacity  entropy
                                   cal/mol     cal/K/mol   cal/K/mol   J/K/mol
 298.15  VIB  0.176E+08            11281.912     74.565     67.257
         ROT  0.893E+07              888.752      2.981     34.787
         INT  0.157E+15            12170.664     77.546    102.043
         TR   0.687E+28             1481.254      4.968     43.593
         TOT                       13651.9183    82.5139   145.6366   609.3437

       T/K    H(0)-H(T)+PV         H(T)/Eh          T*S/Eh         G(T)/Eh
   ------------------------------------------------------------------------
    298.15    0.217557E-01    0.261954E+00    0.691967E-01    0.192757E+00
   ------------------------------------------------------------------------

         :::::::::::::::::::::::::::::::::::::::::::::::::::::
         ::                  THERMODYNAMIC                  ::
         :::::::::::::::::::::::::::::::::::::::::::::::::::::
         :: total free energy         -69.500647520696 Eh   ::
         ::.................................................::
         :: total energy              -69.693404450574 Eh   ::
         :: zero point energy           0.240197883124 Eh   ::
         :: G(RRHO) w/o ZPVE           -0.047440953246 Eh   ::
         :: G(RRHO) contrib.            0.192756929878 Eh   ::
         :::::::::::::::::::::::::::::::::::::::::::::::::::::

           -------------------------------------------------
          | TOTAL ENERGY              -69.693404450574 Eh   |
          | TOTAL ENTHALPY            -69.431450850782 Eh   |
          | TOTAL FREE ENERGY         -69.500647520696 Eh   |
          | GRADIENT NORM               0.000068246764 Eh/α |
           -------------------------------------------------

 * finished run on 2025/09/05 at 00:24:23.134
