   * xtb version 6.7.1 (edcfbbe) compiled by 'albert@albert-system' on 2024-07-22

   ID    Z sym.   atoms
    1    8 O      1
    2    6 C      2-4, 6, 8-11, 13-26, 28-40
    3    7 N      5, 7, 12, 27
    4    1 H      41-62

          program call               : xtb data2507/toluene/35CzBPym/35CzBPym_toluene_T1_crest.xyz --gfn 2 --uhf 2 --gbsa toluene --ohess vtight --parallel 40 --molden --ceasefiles --namespace data2507/toluene/35CzBPym/35CzBPym_toluene_T1_finalOpt
      * Solvation model:               GBSA
        Solvent                        toluene
        Solvent mass                       9.2140E+01 g/mol
          :  Hamiltonian                  GFN2-xTB          :
 * total energy  :  -101.9463881 Eh     change       -0.2217564E-07 Eh
 * total energy  :  -101.9465332 Eh     change       -0.1451156E-03 Eh
 * total energy  :  -101.9465919 Eh     change       -0.5870566E-04 Eh
 * total energy  :  -101.9466004 Eh     change       -0.8499426E-05 Eh
 * total energy  :  -101.9466089 Eh     change       -0.8460437E-05 Eh
 * total energy  :  -101.9466129 Eh     change       -0.4081215E-05 Eh
 * total energy  :  -101.9466179 Eh     change       -0.4975601E-05 Eh
 * total energy  :  -101.9466198 Eh     change       -0.1856557E-05 Eh
 * total energy  :  -101.9466215 Eh     change       -0.1719441E-05 Eh
 * total energy  :  -101.9466236 Eh     change       -0.2141707E-05 Eh
 * total energy  :  -101.9466339 Eh     change       -0.5223508E-06 Eh
 * total energy  :  -101.9466344 Eh     change       -0.5093344E-06 Eh
 * total energy  :  -101.9466344 Eh     change        0.6663612E-09 Eh
 * total energy  :  -101.9466346 Eh     change       -0.1584389E-06 Eh
 * total energy  :  -101.9466349 Eh     change       -0.3707815E-06 Eh
 * total energy  :  -101.9466351 Eh     change       -0.1850754E-06 Eh
 * total energy  :  -101.9466353 Eh     change       -0.1359841E-06 Eh
 * total energy  :  -101.9466354 Eh     change       -0.1294804E-06 Eh
 * total energy  :  -101.9466355 Eh     change       -0.9908018E-07 Eh
   *** GEOMETRY OPTIMIZATION CONVERGED AFTER 28 ITERATIONS ***

 final structure:
================
62
 xtb: 6.7.1 (edcfbbe)
O           -0.03609868403277       -4.03697469279598        1.30034501373920
C           -0.82032432919512       -3.28590245967200        0.65795236807011
C           -2.09074401071787       -3.73915550616270        0.18850629644832
C           -2.90461172415581       -3.13226581183793       -0.80243437035197
N           -4.04317847088561       -3.62858717478445       -1.20289435045442
C           -4.46164016724217       -4.77586321379060       -0.67374940200819
N           -3.74083318321998       -5.46766946419171        0.20605056402767
C           -2.60238411685255       -4.99996940840883        0.61783078403755
C           -0.40508783530004       -1.89663682975293        0.36593256340981
C           -1.29586987281309       -0.81928075406552        0.37930458674759
C           -0.82889548227259        0.47460675933250        0.17020042216063
N           -1.71775376054111        1.55533721410517        0.24338981615625
C           -2.91507793649668        1.67158425373972       -0.43351217928176
C           -3.47382907435377        0.83540818830960       -1.39042689046892
C           -4.68807479288277        1.20189161776242       -1.94113812917953
C           -5.32847316106832        2.37907475657728       -1.56285209138360
C           -4.76245991978316        3.23233415098525       -0.63047809932933
C           -3.54779467682513        2.88140622067756       -0.06194767587958
C           -2.68209480402845        3.51528601388731        0.89892357799635
C           -2.76528988655714        4.69290818479593        1.62561421759761
C           -1.74086465476958        5.00195635433844        2.50446423963033
C           -0.65508916565808        4.14632431283936        2.67029420752350
C           -0.55118308418630        2.96581197319217        1.95671961687839
C           -1.56466880842938        2.66183252752418        1.05703011213873
C            0.52690030643540        0.71429097791067       -0.04092800520418
C            1.42078817816973       -0.35483545424707       -0.02562592078132
N            2.78595867215911       -0.13110702080346       -0.23205705795751
C            3.33782353594476        0.60873181400871       -1.25961314384066
C            2.71444777901243        1.25891824873669       -2.31707543606819
C            3.51616436797610        1.91705719964165       -3.23240775401561
C            4.90297367001765        1.92380379850472       -3.11013692083108
C            5.53122072979323        1.25592225482939       -2.07220891615244
C            4.74791586904537        0.58921049519401       -1.14311674840615
C            5.05074427544357       -0.20864176970032        0.01755835778519
C            6.23384166295400       -0.57432330213391        0.64026644778875
C            6.16653681316413       -1.36094392855062        1.77813000243460
C            4.94054614517870       -1.76427449939758        2.30059852741550
C            3.74677092201580       -1.40737528555408        1.69947266720515
C            3.80987512415003       -0.64045905150329        0.54287963971389
C            0.95599030616865       -1.64765008762735        0.17347336566691
H           -2.57533265448626       -2.23202456966936       -1.30551335617291
H           -5.41217982314664       -5.17329281031253       -0.98720175414200
H           -2.01778746110565       -5.58831257441481        1.31393896688598
H           -2.33538144184050       -0.97060775066009        0.62645805810247
H           -2.97571005067748       -0.06828803495227       -1.70392304006504
H           -5.14509532603574        0.56133751076497       -2.68021594096103
H           -6.27695440711488        2.63157300315388       -2.01242909126651
H           -5.25267936418337        4.15289953298291       -0.35332703595084
H           -3.61348011346441        5.34992276145142        1.51018692963239
H           -1.78624148226389        5.91513695874551        3.07862259289918
H            0.12133473207158        4.40642084273710        3.37400046177894
H            0.28368974881156        2.29929001144164        2.10842940910338
H            0.88273121745180        1.72106060069773       -0.19093379159054
H            1.64212227141831        1.24048938435512       -2.43420450071004
H            3.05510513312679        2.43206046565295       -4.06178651720854
H            5.49573518672003        2.44948717261634       -3.84353216317490
H            6.60704301199397        1.24826600839930       -1.98943768433663
H            7.18508852237984       -0.25090905921530        0.24647664692210
H            7.07661708840597       -1.66130963888362        2.27532739997523
H            4.91791210997739       -2.36722153919680        3.19603039505609
H            2.80212822581403       -1.71739386626661        2.11941543657781
H            1.63643901478603       -2.48510911954075        0.15877525746711

          :  Hamiltonian                  GFN2-xTB          :
         :: gradient norm              0.000046152822 Eh/a0 ::
         :: HOMO-LUMO gap              0.900103026845 eV    ::
         :: SCC energy              -103.746151355631 Eh    ::
         :: -> dispersion             -0.085932337237 Eh    ::
         :: -> Gsolv                  -0.051862593582 Eh    ::
         :: repulsion energy           1.799515856952 Eh    ::

    * Orbital Energies and Occupations

         #    Occupation            Energy/Eh            Energy/eV
      -------------------------------------------------------------
         1        2.0000           -0.6936969             -18.8765
       ...           ...                  ...                  ...
        83        2.0000           -0.4295722             -11.6893
        84        2.0000           -0.4276692             -11.6375
        85        2.0000           -0.4264180             -11.6034
        86        2.0000           -0.4210905             -11.4585
        87        2.0000           -0.4187397             -11.3945
        88        2.0000           -0.4185393             -11.3890
        89        2.0000           -0.3926129             -10.6835
        90        2.0000           -0.3925512             -10.6819
        91        1.9995           -0.3837806             -10.4432
        92        1.9312           -0.3789859             -10.3127
        93        1.9224           -0.3788630             -10.3094
        94        1.1469           -0.3748398             -10.1999
        95        1.0000           -0.3010366              -8.1916 (HOMO)
        96                         -0.2679587              -7.2915 (LUMO)
        97                         -0.2604118              -7.0862
        98                         -0.2592868              -7.0556
        99                         -0.2546787              -6.9302
       100                         -0.2506157              -6.8196
       101                         -0.2363776              -6.4322
       102                         -0.2363243              -6.4307
       103                         -0.2143070              -5.8316
       104                         -0.2032360              -5.5303
       105                         -0.1992598              -5.4221
       106                         -0.1992442              -5.4217
       ...                                ...                  ...
       182                          0.7310345              19.8925
      -------------------------------------------------------------
                  HL-Gap            0.0330779 Eh            0.9001 eV

     #   Z          covCN         q      C6AA      α(0)
     1   8 O        0.858    -0.517    24.163     6.590
     2   6 C        2.830     0.171    24.326     8.082
     3   6 C        2.958    -0.043    29.071     8.844
     4   6 C        2.919     0.060    26.665     8.468
     5   7 N        1.833    -0.213    26.484     7.626
     6   6 C        2.894     0.112    25.535     8.285
     7   7 N        1.834    -0.196    26.068     7.566
     8   6 C        2.918     0.076    26.306     8.411
     9   6 C        2.969    -0.006    28.164     8.705
    10   6 C        2.921    -0.050    29.230     8.866
    11   6 C        2.910     0.065    26.536     8.447
    12   7 N        2.803    -0.018    21.596     6.902
    13   6 C        3.071     0.047    26.885     8.502
    14   6 C        2.910    -0.042    29.055     8.839
    15   6 C        2.922    -0.030    28.737     8.791
    16   6 C        2.920    -0.032    28.808     8.802
    17   6 C        2.912    -0.028    28.711     8.786
    18   6 C        3.065    -0.011    28.223     8.711
    19   6 C        3.065    -0.011    28.212     8.710
    20   6 C        2.912    -0.028    28.708     8.786
    21   6 C        2.920    -0.033    28.816     8.803
    22   6 C        2.923    -0.030    28.750     8.793
    23   6 C        2.909    -0.044    29.084     8.843
    24   6 C        3.071     0.047    26.884     8.502
    25   6 C        2.923    -0.066    29.651     8.930
    26   6 C        2.909     0.065    26.538     8.447
    27   7 N        2.803    -0.015    21.547     6.894
    28   6 C        3.069     0.047    26.879     8.501
    29   6 C        2.909    -0.043    29.080     8.842
    30   6 C        2.923    -0.030    28.749     8.793
    31   6 C        2.920    -0.032    28.805     8.801
    32   6 C        2.912    -0.028    28.703     8.785
    33   6 C        3.065    -0.010    28.202     8.708
    34   6 C        3.065    -0.011    28.218     8.711
    35   6 C        2.912    -0.028    28.712     8.787
    36   6 C        2.920    -0.032    28.803     8.801
    37   6 C        2.923    -0.029    28.733     8.790
    38   6 C        2.909    -0.041    29.017     8.833
    39   6 C        3.070     0.048    26.858     8.498
    40   6 C        2.928    -0.036    28.908     8.817
    41   1 H        0.925     0.049     2.332     2.388
    42   1 H        0.926     0.048     2.350     2.397
    43   1 H        0.925     0.056     2.244     2.342
    44   1 H        0.926     0.048     2.345     2.395
    45   1 H        0.926     0.035     2.521     2.483
    46   1 H        0.926     0.044     2.402     2.424
    47   1 H        0.926     0.043     2.412     2.429
    48   1 H        0.926     0.045     2.377     2.411
    49   1 H        0.926     0.045     2.382     2.414
    50   1 H        0.926     0.042     2.417     2.431
    51   1 H        0.926     0.043     2.415     2.430
    52   1 H        0.926     0.040     2.447     2.446
    53   1 H        0.926     0.062     2.171     2.304
    54   1 H        0.926     0.042     2.421     2.433
    55   1 H        0.926     0.044     2.399     2.422
    56   1 H        0.926     0.043     2.407     2.426
    57   1 H        0.926     0.045     2.378     2.411
    58   1 H        0.926     0.046     2.366     2.406
    59   1 H        0.926     0.043     2.411     2.428
    60   1 H        0.926     0.041     2.438     2.442
    61   1 H        0.926     0.040     2.454     2.450
    62   1 H        0.926     0.056     2.250     2.346

molecular dipole:
                 x           y           z       tot (Debye)
 q only:        1.027       4.153      -0.916
   full:        1.155       4.069      -0.805      10.944

 projected vibrational frequencies (cm⁻¹)
eigval :       -0.00    -0.00    -0.00     0.00     0.00     0.00
eigval :       18.16    21.49    21.97    26.68    34.35    42.06
eigval :       60.27    70.62    79.98    99.42   103.21   125.85
eigval :      134.21   138.17   140.69   144.79   178.32   193.21
eigval :      210.91   239.83   250.73   261.48   268.32   271.87
eigval :      289.33   303.05   327.85   331.96   366.18   385.49
eigval :      390.35   394.88   410.29   420.49   420.72   433.28
eigval :      434.27   437.02   469.00   504.99   513.91   514.91
eigval :      534.58   534.91   536.76   546.08   547.77   584.03
eigval :      585.48   588.36   603.42   618.35   620.45   633.02
eigval :      640.30   655.93   664.42   664.84   673.00   674.85
eigval :      708.43   709.68   747.32   752.13   752.74   764.87
eigval :      766.99   768.15   774.23   778.56   780.05   813.31
eigval :      831.85   855.23   862.24   867.18   867.98   876.05
eigval :      882.64   885.77   892.65   897.17   899.69   902.20
eigval :      904.31   907.29   910.01   917.95   920.85   921.82
eigval :      927.79   955.27   984.63  1007.52  1009.97  1027.26
eigval :     1033.50  1065.84  1067.64  1069.64  1070.74  1106.83
eigval :     1116.95  1119.07  1135.89  1140.52  1142.29  1145.17
eigval :     1161.99  1173.83  1174.93  1176.11  1177.80  1201.69
eigval :     1212.33  1218.25  1225.91  1226.98  1227.17  1229.00
eigval :     1242.45  1249.10  1278.91  1281.21  1282.46  1287.19
eigval :     1289.50  1320.64  1325.60  1333.67  1336.18  1345.49
eigval :     1356.86  1358.75  1364.50  1403.89  1405.26  1408.99
eigval :     1412.09  1431.94  1438.23  1445.54  1458.64  1459.68
eigval :     1467.52  1477.88  1478.55  1500.83  1518.91  1554.79
eigval :     1562.63  1563.43  1575.84  1576.77  1577.40  1580.68
eigval :     1596.41  1602.42  3035.39  3042.29  3081.75  3082.02
eigval :     3082.37  3083.74  3087.44  3088.01  3088.54  3090.07
eigval :     3094.57  3095.05  3096.66  3096.82  3097.83  3099.90
eigval :     3100.35  3101.32  3102.92  3103.74  3106.35  3109.58

   temp. (K)  partition function   enthalpy   heat capacity  entropy
                                   cal/mol     cal/K/mol   cal/K/mol   J/K/mol
 298.15  VIB  0.101E+14            17618.352    113.982    107.518
         ROT  0.463E+08              888.752      2.981     38.056
         INT  0.468E+21            18507.105    116.963    145.574
         TR   0.113E+29             1481.254      4.968     44.581
         TOT                       19988.3587   121.9309   190.1547   795.6071

       T/K    H(0)-H(T)+PV         H(T)/Eh          T*S/Eh         G(T)/Eh
   ------------------------------------------------------------------------
    298.15    0.318535E-01    0.492409E+00    0.903486E-01    0.402060E+00
   ------------------------------------------------------------------------

         :::::::::::::::::::::::::::::::::::::::::::::::::::::
         ::                  THERMODYNAMIC                  ::
         :::::::::::::::::::::::::::::::::::::::::::::::::::::
         :: total free energy        -101.544575162984 Eh   ::
         ::.................................................::
         :: total energy             -101.946635493009 Eh   ::
         :: zero point energy           0.460555467795 Eh   ::
         :: G(RRHO) w/o ZPVE           -0.058495137770 Eh   ::
         :: G(RRHO) contrib.            0.402060330025 Eh   ::
         :::::::::::::::::::::::::::::::::::::::::::::::::::::

           -------------------------------------------------
          | TOTAL ENERGY             -101.946635493009 Eh   |
          | TOTAL ENTHALPY           -101.454226548060 Eh   |
          | TOTAL FREE ENERGY        -101.544575162984 Eh   |
          | GRADIENT NORM               0.000043847739 Eh/α |
          | HOMO-LUMO GAP               0.900095174148 eV   |
           -------------------------------------------------

 * finished run on 2025/09/04 at 03:27:30.987
