   * xtb version 6.7.1 (edcfbbe) compiled by 'albert@albert-system' on 2024-07-22

   ID    Z sym.   atoms
    1    8 O      1
    2    6 C      2-4, 6, 8-11, 13-26, 28-40
    3    7 N      5, 7, 12, 27
    4    1 H      41-62

          program call               : xtb data2507/toluene/35CzBPym/35CzBPym_toluene_S0_crest.xyz --gfn 2 --gbsa toluene --ohess vtight --parallel 40 --molden --ceasefiles --namespace data2507/toluene/35CzBPym/35CzBPym_toluene_S0_finalOpt
      * Solvation model:               GBSA
        Solvent                        toluene
        Solvent mass                       9.2140E+01 g/mol
          :  Hamiltonian                  GFN2-xTB          :
 * total energy  :  -102.0149872 Eh     change       -0.2944034E-08 Eh
 * total energy  :  -102.0150457 Eh     change       -0.5855544E-04 Eh
 * total energy  :  -102.0150801 Eh     change       -0.3438255E-04 Eh
 * total energy  :  -102.0150985 Eh     change       -0.1835610E-04 Eh
 * total energy  :  -102.0151112 Eh     change       -0.1268702E-04 Eh
 * total energy  :  -102.0151312 Eh     change       -0.2001026E-04 Eh
 * total energy  :  -102.0151219 Eh     change        0.9215538E-05 Eh
 * total energy  :  -102.0151354 Eh     change       -0.1348846E-04 Eh
 * total energy  :  -102.0151429 Eh     change       -0.7511656E-05 Eh
 * total energy  :  -102.0151466 Eh     change       -0.3611997E-05 Eh
 * total energy  :  -102.0151831 Eh     change        0.3631188E-06 Eh
 * total energy  :  -102.0151837 Eh     change       -0.5789450E-06 Eh
 * total energy  :  -102.0151839 Eh     change       -0.1853788E-06 Eh
 * total energy  :  -102.0151843 Eh     change       -0.3907196E-06 Eh
 * total energy  :  -102.0151843 Eh     change       -0.2892858E-07 Eh
 * total energy  :  -102.0151846 Eh     change       -0.2648374E-06 Eh
 * total energy  :  -102.0151846 Eh     change        0.1646877E-07 Eh
 * total energy  :  -102.0151848 Eh     change       -0.2020585E-06 Eh
 * total energy  :  -102.0151848 Eh     change       -0.1780904E-09 Eh
   *** GEOMETRY OPTIMIZATION CONVERGED AFTER 32 ITERATIONS ***

 final structure:
================
62
 xtb: 6.7.1 (edcfbbe)
O           -0.11554841383944       -4.23749119877938        0.95602522447640
C           -0.83260887427439       -3.36021923061966        0.51181785985388
C           -2.23266326047790       -3.64798679881697        0.10683517901191
C           -2.78271461588044       -3.19897583295940       -1.09559759860438
N           -4.02547716071565       -3.47600813801678       -1.44536930124349
C           -4.72949256300233       -4.22862407159772       -0.61866415747015
N           -4.30333198837278       -4.74370381236837        0.52157879356903
C           -3.06767201403836       -4.45416318650124        0.88445823589772
C           -0.37277960076491       -1.96563449433747        0.32739038898754
C           -1.26328084870274       -0.89583464262079        0.37096861713602
C           -0.79000923263893        0.40480486437280        0.21494845556412
N           -1.67153185726669        1.48505512895299        0.28230909358407
C           -2.89004517611397        1.58127422518428       -0.36996031953189
C           -3.48457780377556        0.70976983560584       -1.27047446654599
C           -4.71105383252123        1.06329287401479       -1.80167786420774
C           -5.33147220775683        2.26268370099985       -1.46037189404024
C           -4.73069472172912        3.14872543850100       -0.58762372673717
C           -3.49982391568897        2.81220487550941       -0.03903720830377
C           -2.60637600288952        3.48319848622765        0.86550277130226
C           -2.66847513985618        4.69618500051376        1.53936808857513
C           -1.62862690734264        5.03957663122853        2.38075771340111
C           -0.54673932605042        4.18233936326430        2.56694205129485
C           -0.46308583428301        2.97044870310062        1.90635403124571
C           -1.49062318015828        2.63328898108063        1.03731998470012
C            0.56921288118634        0.62652315567866        0.00588598319421
C            1.46294140488924       -0.44164340314168       -0.02530548505425
N            2.82445073677312       -0.20892202532084       -0.22390962063681
C            3.37835586488947        0.58766620299174       -1.21260599752417
C            2.75931830962905        1.27979308230317       -2.24337803742061
C            3.56237874812174        1.97742066162063       -3.12674746414425
C            4.94936845208632        1.98435349956111       -2.99937325810549
C            5.57244821871766        1.27643274875035       -1.99040770365677
C            4.78613873361675        0.56676214186112       -1.09191988765877
C            5.09028147764305       -0.27954591030886        0.02971437087544
C            6.27779142743556       -0.66311822227437        0.63964682316048
C            6.21725467355730       -1.49231018213151        1.74241783882972
C            4.99252512214102       -1.92394603429009        2.24677562479598
C            3.79772504145692       -1.55500112845586        1.65670795195422
C            3.85421159270821       -0.74372145367091        0.53277571035098
C            0.98843963053725       -1.73872106869564        0.14225987985318
H           -2.20201957692285       -2.62003624450669       -1.80281999360214
H           -5.74850180941046       -4.45191061792579       -0.90673184347304
H           -2.72560406543560       -4.86202539206993        1.82706434061112
H           -2.31041865158644       -1.05929207175219        0.57255977203851
H           -3.00789763624068       -0.21344104701082       -1.56061586768962
H           -5.19391313617477        0.39429377374368       -2.49852269558375
H           -6.29076716522790        2.50322785337157       -1.89403215167364
H           -5.20283806554519        4.08653788536040       -0.33668200571193
H           -3.51712386828419        5.35068054268501        1.40987556770330
H           -1.65582811975134        5.97913595405525        2.91254716549196
H            0.24380540812025        4.46764001133721        3.24536173264545
H            0.37090903876373        2.30736543412470        2.07918540504130
H            0.93353265844062        1.63370237852965       -0.12368029546991
H            1.68709646322465        1.26770192074284       -2.36730170821195
H            3.10264526344753        2.52593824654481       -3.93575222060007
H            5.54225007871686        2.54388864067842       -3.70778638265810
H            6.64828671670271        1.26626150833449       -1.90197416684577
H            7.22584688472585       -0.31453217881564        0.25863141624031
H            7.12884018141935       -1.80533978368340        2.22975771063516
H            4.97397626738837       -2.55933741510254        3.12016498443303
H            2.85562339711206       -1.88548197644655        2.06754162745016
H            1.66036964626888       -2.58199274230873        0.10322637120178

          :  Hamiltonian                  GFN2-xTB          :
         :: gradient norm              0.000176876571 Eh/a0 ::
         :: HOMO-LUMO gap              1.443526238579 eV    ::
         :: SCC energy              -103.824962145106 Eh    ::
         :: -> dispersion             -0.086309627957 Eh    ::
         :: -> Gsolv                  -0.042973551802 Eh    ::
         :: repulsion energy           1.809777366710 Eh    ::

    * Orbital Energies and Occupations

         #    Occupation            Energy/Eh            Energy/eV
      -------------------------------------------------------------
         1        2.0000           -0.7353264             -20.0092
       ...           ...                  ...                  ...
        82        2.0000           -0.4267483             -11.6124
        83        2.0000           -0.4241450             -11.5416
        84        2.0000           -0.4237169             -11.5299
        85        2.0000           -0.4227920             -11.5048
        86        2.0000           -0.4221772             -11.4880
        87        2.0000           -0.4138575             -11.2616
        88        2.0000           -0.4109836             -11.1834
        89        2.0000           -0.4100367             -11.1577
        90        2.0000           -0.3945259             -10.7356
        91        2.0000           -0.3843938             -10.4599
        92        2.0000           -0.3835199             -10.4361
        93        2.0000           -0.3718202             -10.1177
        94        2.0000           -0.3708584             -10.0916 (HOMO)
        95                         -0.3178097              -8.6480 (LUMO)
        96                         -0.2949996              -8.0273
        97                         -0.2767816              -7.5316
        98                         -0.2601735              -7.0797
        99                         -0.2503319              -6.8119
       100                         -0.2472893              -6.7291
       101                         -0.2277255              -6.1967
       102                         -0.2269372              -6.1753
       103                         -0.2265634              -6.1651
       104                         -0.1978486              -5.3837
       105                         -0.1952235              -5.3123
       ...                                ...                  ...
       182                          0.7390792              20.1114
      -------------------------------------------------------------
                  HL-Gap            0.0530487 Eh            1.4435 eV

     #   Z          covCN         q      C6AA      α(0)
     1   8 O        0.858    -0.388    21.451     6.210
     2   6 C        2.827     0.230    23.176     7.889
     3   6 C        2.960    -0.026    28.656     8.780
     4   6 C        2.933     0.082    26.175     8.390
     5   7 N        1.834    -0.219    26.615     7.645
     6   6 C        2.923     0.153    24.689     8.148
     7   7 N        1.833    -0.221    26.660     7.651
     8   6 C        2.935     0.089    26.017     8.365
     9   6 C        2.971    -0.012    28.320     8.729
    10   6 C        2.923    -0.048    29.188     8.860
    11   6 C        2.909     0.073    26.376     8.421
    12   7 N        2.801    -0.041    22.024     6.970
    13   6 C        3.068     0.044    26.944     8.511
    14   6 C        2.910    -0.052    29.299     8.876
    15   6 C        2.923    -0.033    28.830     8.805
    16   6 C        2.920    -0.040    28.992     8.830
    17   6 C        2.913    -0.033    28.821     8.803
    18   6 C        3.065    -0.015    28.329     8.728
    19   6 C        3.066    -0.015    28.324     8.727
    20   6 C        2.913    -0.033    28.821     8.803
    21   6 C        2.920    -0.040    28.993     8.830
    22   6 C        2.924    -0.033    28.823     8.804
    23   6 C        2.910    -0.051    29.276     8.872
    24   6 C        3.067     0.045    26.925     8.508
    25   6 C        2.926    -0.053    29.311     8.879
    26   6 C        2.908     0.073    26.370     8.420
    27   7 N        2.802    -0.040    22.014     6.969
    28   6 C        3.068     0.045    26.921     8.508
    29   6 C        2.910    -0.052    29.282     8.873
    30   6 C        2.924    -0.033    28.828     8.805
    31   6 C        2.920    -0.040    28.999     8.831
    32   6 C        2.912    -0.033    28.823     8.803
    33   6 C        3.066    -0.015    28.325     8.727
    34   6 C        3.066    -0.016    28.332     8.728
    35   6 C        2.912    -0.033    28.829     8.805
    36   6 C        2.920    -0.040    28.999     8.831
    37   6 C        2.924    -0.033    28.821     8.804
    38   6 C        2.910    -0.051    29.255     8.869
    39   6 C        3.068     0.045    26.912     8.506
    40   6 C        2.926    -0.037    28.925     8.820
    41   1 H        0.925     0.059     2.210     2.325
    42   1 H        0.925     0.063     2.160     2.298
    43   1 H        0.925     0.064     2.157     2.296
    44   1 H        0.926     0.049     2.330     2.387
    45   1 H        0.926     0.027     2.623     2.533
    46   1 H        0.926     0.036     2.501     2.473
    47   1 H        0.926     0.033     2.540     2.492
    48   1 H        0.926     0.036     2.506     2.475
    49   1 H        0.926     0.035     2.510     2.477
    50   1 H        0.926     0.033     2.551     2.497
    51   1 H        0.926     0.034     2.528     2.487
    52   1 H        0.926     0.032     2.565     2.504
    53   1 H        0.926     0.068     2.104     2.268
    54   1 H        0.926     0.032     2.563     2.504
    55   1 H        0.926     0.034     2.527     2.486
    56   1 H        0.926     0.032     2.555     2.500
    57   1 H        0.926     0.035     2.518     2.481
    58   1 H        0.926     0.035     2.514     2.479
    59   1 H        0.926     0.032     2.558     2.501
    60   1 H        0.926     0.033     2.545     2.495
    61   1 H        0.926     0.031     2.576     2.510
    62   1 H        0.926     0.065     2.138     2.287

molecular dipole:
                 x           y           z       tot (Debye)
 q only:       -0.169       1.297      -0.373
   full:        0.039       1.281      -0.281       3.335

 projected vibrational frequencies (cm⁻¹)
eigval :       -0.00    -0.00    -0.00     0.00     0.00     0.00
eigval :       14.55    20.34    22.91    24.35    28.86    39.79
eigval :       53.91    65.41    70.30   101.23   103.18   119.61
eigval :      130.80   138.57   142.63   147.37   175.19   187.50
eigval :      204.99   242.53   245.94   250.85   271.84   273.38
eigval :      287.70   303.61   307.66   338.50   353.81   361.21
eigval :      393.48   395.14   398.08   421.25   423.44   435.94
eigval :      437.72   446.24   470.57   511.20   517.50   520.31
eigval :      534.54   541.16   541.80   543.76   557.61   587.08
eigval :      587.76   608.74   611.03   619.97   638.12   644.51
eigval :      667.99   673.73   675.21   682.01   705.15   708.10
eigval :      709.41   720.20   748.92   753.88   768.02   769.20
eigval :      770.50   779.66   781.84   793.68   836.52   841.16
eigval :      864.50   867.04   870.98   877.06   887.79   896.16
eigval :      896.77   898.34   901.76   902.76   904.86   906.59
eigval :      914.57   923.14   924.40   924.95   926.32   926.90
eigval :      928.75   991.12  1007.10  1010.89  1016.64  1033.75
eigval :     1050.00  1070.50  1070.85  1073.62  1073.92  1119.96
eigval :     1122.75  1134.17  1150.87  1151.55  1156.33  1164.37
eigval :     1173.36  1178.49  1179.62  1179.83  1181.77  1205.95
eigval :     1219.52  1226.84  1233.10  1233.83  1234.97  1240.45
eigval :     1244.98  1260.80  1293.36  1295.00  1297.95  1299.84
eigval :     1321.43  1331.26  1354.24  1355.04  1357.05  1359.39
eigval :     1380.76  1388.48  1394.11  1414.73  1417.02  1425.34
eigval :     1426.42  1450.15  1454.65  1472.98  1474.49  1484.84
eigval :     1485.08  1537.79  1539.94  1555.51  1560.11  1574.14
eigval :     1574.67  1587.45  1587.93  1597.28  1597.56  1610.88
eigval :     1611.22  1670.51  3048.90  3058.48  3065.12  3074.35
eigval :     3074.59  3075.59  3077.84  3080.02  3080.56  3080.66
eigval :     3084.12  3087.22  3087.48  3088.34  3091.88  3093.80
eigval :     3095.05  3096.06  3099.73  3103.02  3107.45  3109.97

   temp. (K)  partition function   enthalpy   heat capacity  entropy
                                   cal/mol     cal/K/mol   cal/K/mol   J/K/mol
 298.15  VIB  0.230E+14            17555.575    112.162    107.848
         ROT  0.452E+08              888.752      2.981     38.007
         INT  0.104E+22            18444.328    115.143    145.855
         TR   0.113E+29             1481.254      4.968     44.581
         TOT                       19925.5815   120.1110   190.4358   796.7836

       T/K    H(0)-H(T)+PV         H(T)/Eh          T*S/Eh         G(T)/Eh
   ------------------------------------------------------------------------
    298.15    0.317534E-01    0.495896E+00    0.904822E-01    0.405414E+00
   ------------------------------------------------------------------------

         :::::::::::::::::::::::::::::::::::::::::::::::::::::
         ::                  THERMODYNAMIC                  ::
         :::::::::::::::::::::::::::::::::::::::::::::::::::::
         :: total free energy        -101.609771054796 Eh   ::
         ::.................................................::
         :: total energy             -102.015184777947 Eh   ::
         :: zero point energy           0.464142504638 Eh   ::
         :: G(RRHO) w/o ZPVE           -0.058728781488 Eh   ::
         :: G(RRHO) contrib.            0.405413723150 Eh   ::
         :::::::::::::::::::::::::::::::::::::::::::::::::::::

           -------------------------------------------------
          | TOTAL ENERGY             -102.015184777947 Eh   |
          | TOTAL ENTHALPY           -101.519288837995 Eh   |
          | TOTAL FREE ENERGY        -101.609771054796 Eh   |
          | GRADIENT NORM               0.000176764898 Eh/α |
          | HOMO-LUMO GAP               1.443528233638 eV   |
           -------------------------------------------------

 * finished run on 2025/09/04 at 03:23:15.021
