   * xtb version 6.7.1 (edcfbbe) compiled by 'albert@albert-system' on 2024-07-22

   ID    Z sym.   atoms
    1    8 O      1
    2    6 C      2-4, 6, 8-11, 13-26, 28-40
    3    7 N      5, 7, 12, 27
    4    1 H      41-62

          program call               : xtb data2507/toluene/35CzBPym/35CzBPym_toluene_S0_finalOpt.xtbopt.xyz --gfn 2 --uhf 2 --gbsa toluene --ohess vtight --parallel 40 --molden --ceasefiles --namespace data2507/toluene/35CzBPym/35CzBPym_toluene_T1_preOpt
      * Solvation model:               GBSA
        Solvent                        toluene
        Solvent mass                       9.2140E+01 g/mol
          :  Hamiltonian                  GFN2-xTB          :
 * total energy  :  -101.9370617 Eh     change       -0.9800658E-09 Eh
 * total energy  :  -101.9412550 Eh     change       -0.4193261E-02 Eh
 * total energy  :  -101.9427696 Eh     change       -0.1514571E-02 Eh
 * total energy  :  -101.9433706 Eh     change       -0.6009853E-03 Eh
 * total energy  :  -101.9440468 Eh     change       -0.6762003E-03 Eh
 * total energy  :  -101.9446630 Eh     change       -0.6162710E-03 Eh
 * total energy  :  -101.9452612 Eh     change       -0.5982210E-03 Eh
 * total energy  :  -101.9455758 Eh     change       -0.3145745E-03 Eh
 * total energy  :  -101.9457514 Eh     change       -0.1755868E-03 Eh
 * total energy  :  -101.9458788 Eh     change       -0.1273972E-03 Eh
 * total energy  :  -101.9466179 Eh     change       -0.1989218E-05 Eh
 * total energy  :  -101.9466196 Eh     change       -0.1764445E-05 Eh
 * total energy  :  -101.9466211 Eh     change       -0.1429420E-05 Eh
 * total energy  :  -101.9466220 Eh     change       -0.8976852E-06 Eh
 * total energy  :  -101.9466226 Eh     change       -0.5839703E-06 Eh
 * total energy  :  -101.9466229 Eh     change       -0.3665896E-06 Eh
 * total energy  :  -101.9466232 Eh     change       -0.2675770E-06 Eh
 * total energy  :  -101.9466233 Eh     change       -0.1377913E-06 Eh
 * total energy  :  -101.9466234 Eh     change       -0.6864988E-07 Eh
   *** GEOMETRY OPTIMIZATION CONVERGED AFTER 41 ITERATIONS ***

 final structure:
================
62
 xtb: 6.7.1 (edcfbbe)
O           -0.11533447531643       -4.03828276942954        1.30236637504047
C           -0.88733634721781       -3.26946446426377        0.66603519972808
C           -2.17023049998852       -3.69556075801531        0.20454450102418
C           -2.97827745999477       -3.07196397238303       -0.78074944293233
N           -4.12901742589722       -3.54554079649161       -1.17410372177334
C           -4.56682488001656       -4.68446145190019       -0.64281777482289
N           -3.85460323824507       -5.39066421888490        0.23250650205019
C           -2.70451607081780       -4.94573494441309        0.63712886063173
C           -0.44416338503524       -1.88925901095095        0.37356202173853
C           -1.31211142075360       -0.79332148471358        0.38856438466277
C           -0.81822894969336        0.49034804655836        0.17929536954552
N           -1.68426322017035        1.58967295498726        0.25264816435060
C           -2.87408888216458        1.73471478950520       -0.43153655004683
C           -3.44528410200427        0.91325684430004       -1.39381767531358
C           -4.64626683705624        1.30932896214586       -1.95302282126956
C           -5.26144732621324        2.50070113836506       -1.57721319610676
C           -4.68295855283843        3.33845168229963       -0.63844092778022
C           -3.48123355901180        2.95804020194438       -0.06142545661434
C           -2.60762895525561        3.56954099036875        0.90680765195354
C           -2.66820736509965        4.74691936899469        1.63613530825092
C           -1.64232535854726        5.03016596379886        2.52199409214035
C           -0.57696571066970        4.14995080740789        2.69163693063916
C           -0.49552816828889        2.96937545186376        1.97527742154048
C           -1.51087533584642        2.69047743386361        1.06958640984276
C            0.54188274605460        0.70187570957951       -0.03356431241542
C            1.41303651202446       -0.38593921687687       -0.02088872868205
N            2.78200514176621       -0.18994483181501       -0.23080076388303
C            3.34527836663214        0.53893401819342       -1.25990241192937
C            2.73180046162272        1.19793618964392       -2.31770569189647
C            3.54356303082497        1.84051236532483       -3.23522028530161
C            4.93045467820338        1.82348268031380       -3.11468573817618
C            5.54842501883000        1.14695341880283       -2.07617498534959
C            4.75495483505959        0.49533135378711       -1.14501411093407
C            5.04529283358982       -0.30597065018147        0.01647005100861
C            6.22258298839713       -0.69047543143266        0.63882503642131
C            6.14299454316662       -1.47481645707163        1.77747499941448
C            4.91084963428823       -1.85783919272602        2.30077449900093
C            3.72269634831527       -1.48155691994378        1.70029640239156
C            3.79775654564970       -0.71624066462961        0.54337335630591
C            0.92165020975498       -1.66866008370689        0.17870230964874
H           -2.63488349559690       -2.17814191179539       -1.28569879622370
H           -5.52694301135969       -5.06292037919864       -0.95053055759515
H           -2.12750143682958       -5.54576799078116        1.32959059661226
H           -2.35430182910548       -0.92252571365844        0.63692167958147
H           -2.96608506978445       -0.00149812680589       -1.70488565462667
H           -5.11277079955347        0.68117751734498       -2.69681464026764
H           -6.19999837819695        2.77668301421269       -2.03377531286980
H           -5.15373112091761        4.26963110563691       -0.36300281544928
H           -3.50002344850668        5.42390139067914        1.51714173965581
H           -1.67053295402138        5.94259034451326        3.09845723138150
H            0.20112851363164        4.39077721109616        3.40035450133516
H            0.32374759443042        2.28416354007795        2.12886270001307
H            0.91847023707418        1.70117653874652       -0.18310374035219
H            1.65913088138883        1.19793385507843       -2.43326026287423
H            3.09042951561219        2.36177736758455       -4.06505054090476
H            5.53125661932562        2.33746547198351       -3.84983632056963
H            6.62405846457400        1.12102767067317       -1.99461622889565
H            7.17871116906744       -0.38284015493418        0.24422906440737
H            7.04832251974638       -1.78948404842236        2.27449715932721
H            4.87891486214055       -2.46004720840294        3.19641187684993
H            2.77329509979997       -1.77589063228923        2.12078255292375
H            1.58427338499111       -2.52027889004928        0.16271569769519

          :  Hamiltonian                  GFN2-xTB          :
         :: gradient norm              0.000048575675 Eh/a0 ::
         :: HOMO-LUMO gap              0.900264333625 eV    ::
         :: SCC energy              -103.746163174312 Eh    ::
         :: -> dispersion             -0.085907570072 Eh    ::
         :: -> Gsolv                  -0.051853833471 Eh    ::
         :: repulsion energy           1.799539767535 Eh    ::

    * Orbital Energies and Occupations

         #    Occupation            Energy/Eh            Energy/eV
      -------------------------------------------------------------
         1        2.0000           -0.6936982             -18.8765
       ...           ...                  ...                  ...
        83        2.0000           -0.4295995             -11.6900
        84        2.0000           -0.4276745             -11.6376
        85        2.0000           -0.4264087             -11.6032
        86        2.0000           -0.4210848             -11.4583
        87        2.0000           -0.4187452             -11.3946
        88        2.0000           -0.4185450             -11.3892
        89        2.0000           -0.3926169             -10.6836
        90        2.0000           -0.3925557             -10.6820
        91        1.9995           -0.3837837             -10.4433
        92        1.9288           -0.3789633             -10.3121
        93        1.9222           -0.3788725             -10.3096
        94        1.1494           -0.3748706             -10.2007
        95        1.0000           -0.3010765              -8.1927 (HOMO)
        96                         -0.2679930              -7.2925 (LUMO)
        97                         -0.2603817              -7.0853
        98                         -0.2592678              -7.0550
        99                         -0.2547282              -6.9315
       100                         -0.2505912              -6.8189
       101                         -0.2363818              -6.4323
       102                         -0.2363225              -6.4307
       103                         -0.2142511              -5.8301
       104                         -0.2033071              -5.5323
       105                         -0.1992658              -5.4223
       106                         -0.1992509              -5.4219
       ...                                ...                  ...
       182                          0.7310535              19.8930
      -------------------------------------------------------------
                  HL-Gap            0.0330836 Eh            0.9002 eV

     #   Z          covCN         q      C6AA      α(0)
     1   8 O        0.858    -0.517    24.165     6.591
     2   6 C        2.830     0.170    24.327     8.082
     3   6 C        2.958    -0.043    29.068     8.843
     4   6 C        2.919     0.060    26.666     8.468
     5   7 N        1.833    -0.213    26.483     7.626
     6   6 C        2.894     0.112    25.533     8.285
     7   7 N        1.834    -0.196    26.069     7.566
     8   6 C        2.918     0.076    26.305     8.410
     9   6 C        2.969    -0.006    28.166     8.705
    10   6 C        2.921    -0.050    29.232     8.866
    11   6 C        2.910     0.065    26.537     8.447
    12   7 N        2.803    -0.018    21.597     6.902
    13   6 C        3.071     0.047    26.884     8.502
    14   6 C        2.910    -0.042    29.054     8.839
    15   6 C        2.922    -0.029    28.737     8.791
    16   6 C        2.920    -0.032    28.808     8.802
    17   6 C        2.912    -0.028    28.710     8.786
    18   6 C        3.065    -0.011    28.223     8.711
    19   6 C        3.065    -0.011    28.213     8.710
    20   6 C        2.912    -0.028    28.708     8.786
    21   6 C        2.920    -0.033    28.816     8.803
    22   6 C        2.923    -0.030    28.749     8.793
    23   6 C        2.909    -0.044    29.083     8.843
    24   6 C        3.071     0.047    26.883     8.501
    25   6 C        2.923    -0.066    29.648     8.929
    26   6 C        2.909     0.065    26.539     8.447
    27   7 N        2.803    -0.015    21.547     6.894
    28   6 C        3.069     0.047    26.879     8.501
    29   6 C        2.909    -0.043    29.079     8.842
    30   6 C        2.923    -0.030    28.749     8.793
    31   6 C        2.920    -0.032    28.805     8.801
    32   6 C        2.912    -0.028    28.702     8.785
    33   6 C        3.064    -0.010    28.202     8.708
    34   6 C        3.065    -0.011    28.218     8.711
    35   6 C        2.912    -0.028    28.712     8.786
    36   6 C        2.920    -0.032    28.803     8.801
    37   6 C        2.923    -0.029    28.733     8.790
    38   6 C        2.909    -0.041    29.017     8.833
    39   6 C        3.070     0.048    26.858     8.498
    40   6 C        2.928    -0.036    28.908     8.817
    41   1 H        0.925     0.049     2.330     2.387
    42   1 H        0.926     0.048     2.350     2.397
    43   1 H        0.925     0.056     2.243     2.342
    44   1 H        0.926     0.048     2.345     2.395
    45   1 H        0.926     0.035     2.523     2.484
    46   1 H        0.926     0.044     2.402     2.424
    47   1 H        0.926     0.043     2.412     2.429
    48   1 H        0.926     0.045     2.377     2.411
    49   1 H        0.926     0.045     2.382     2.414
    50   1 H        0.926     0.042     2.417     2.431
    51   1 H        0.926     0.043     2.415     2.430
    52   1 H        0.926     0.040     2.449     2.447
    53   1 H        0.926     0.062     2.173     2.305
    54   1 H        0.926     0.042     2.421     2.433
    55   1 H        0.926     0.044     2.399     2.422
    56   1 H        0.926     0.043     2.407     2.426
    57   1 H        0.926     0.045     2.377     2.411
    58   1 H        0.926     0.046     2.366     2.406
    59   1 H        0.926     0.043     2.411     2.428
    60   1 H        0.926     0.041     2.437     2.441
    61   1 H        0.926     0.040     2.454     2.450
    62   1 H        0.926     0.056     2.250     2.346

molecular dipole:
                 x           y           z       tot (Debye)
 q only:        1.109       4.132      -0.918
   full:        1.236       4.046      -0.809      10.947

 projected vibrational frequencies (cm⁻¹)
eigval :       -0.00    -0.00     0.00     0.00     0.00     0.00
eigval :       17.27    20.84    21.89    26.88    32.80    41.43
eigval :       58.28    70.36    79.35    98.94   102.63   124.26
eigval :      133.52   138.25   140.17   144.50   178.05   192.82
eigval :      210.58   239.71   250.31   261.32   268.06   270.84
eigval :      289.15   302.92   328.15   331.49   366.51   385.75
eigval :      390.21   394.29   409.29   420.30   421.00   433.20
eigval :      434.20   437.03   469.00   504.69   513.86   514.86
eigval :      534.29   534.78   536.27   545.82   547.33   584.01
eigval :      585.44   588.35   603.32   618.40   620.55   633.15
eigval :      640.34   655.73   664.43   664.98   673.23   674.77
eigval :      708.79   709.62   747.35   752.53   753.05   765.59
eigval :      767.03   767.73   775.45   777.88   779.97   813.62
eigval :      831.61   855.17   862.66   866.93   870.14   875.47
eigval :      881.73   885.77   892.37   897.11   899.36   903.37
eigval :      906.16   907.00   910.27   917.23   920.49   923.37
eigval :      925.70   955.41   984.57  1007.51  1009.94  1027.21
eigval :     1033.70  1065.74  1067.61  1069.68  1070.52  1106.40
eigval :     1117.13  1119.07  1136.15  1140.33  1142.42  1145.15
eigval :     1162.17  1174.02  1175.05  1176.09  1177.74  1201.76
eigval :     1212.38  1217.92  1225.89  1227.13  1227.31  1229.18
eigval :     1242.68  1249.41  1279.01  1281.34  1282.49  1287.15
eigval :     1289.53  1320.68  1325.69  1333.61  1336.14  1345.25
eigval :     1356.95  1358.76  1364.57  1403.86  1405.39  1409.25
eigval :     1411.93  1432.07  1438.36  1445.55  1458.66  1459.65
eigval :     1467.10  1477.87  1478.53  1500.65  1518.83  1554.69
eigval :     1562.57  1563.35  1575.76  1576.88  1577.42  1580.71
eigval :     1596.30  1602.42  3036.37  3041.75  3081.74  3082.02
eigval :     3082.30  3083.71  3087.43  3088.11  3088.49  3089.87
eigval :     3094.60  3095.41  3096.55  3096.60  3097.63  3099.91
eigval :     3100.46  3101.30  3102.59  3103.94  3106.37  3109.32

   temp. (K)  partition function   enthalpy   heat capacity  entropy
                                   cal/mol     cal/K/mol   cal/K/mol   J/K/mol
 298.15  VIB  0.124E+14            17635.475    113.910    107.725
         ROT  0.463E+08              888.752      2.981     38.056
         INT  0.573E+21            18524.227    116.890    145.781
         TR   0.113E+29             1481.254      4.968     44.581
         TOT                       20005.4813   121.8586   190.3615   796.4725

       T/K    H(0)-H(T)+PV         H(T)/Eh          T*S/Eh         G(T)/Eh
   ------------------------------------------------------------------------
    298.15    0.318808E-01    0.492406E+00    0.904469E-01    0.401960E+00
   ------------------------------------------------------------------------

         :::::::::::::::::::::::::::::::::::::::::::::::::::::
         ::                  THERMODYNAMIC                  ::
         :::::::::::::::::::::::::::::::::::::::::::::::::::::
         :: total free energy        -101.544663860468 Eh   ::
         ::.................................................::
         :: total energy             -101.946623401306 Eh   ::
         :: zero point energy           0.460525668476 Eh   ::
         :: G(RRHO) w/o ZPVE           -0.058566127638 Eh   ::
         :: G(RRHO) contrib.            0.401959540838 Eh   ::
         :::::::::::::::::::::::::::::::::::::::::::::::::::::

           -------------------------------------------------
          | TOTAL ENERGY             -101.946623401306 Eh   |
          | TOTAL ENTHALPY           -101.454216969128 Eh   |
          | TOTAL FREE ENERGY        -101.544663860468 Eh   |
          | GRADIENT NORM               0.000048984860 Eh/α |
          | HOMO-LUMO GAP               0.900249317714 eV   |
           -------------------------------------------------

 * finished run on 2025/09/04 at 03:23:20.735
