   * xtb version 6.7.1 (edcfbbe) compiled by 'albert@albert-system' on 2024-07-22

   ID    Z sym.   atoms
    1    8 O      1
    2    6 C      2-4, 6, 8-11, 13-26, 28-40
    3    7 N      5, 7, 12, 27
    4    1 H      41-62

          program call               : xtb data2507/toluene/35CzBPym/35CzBPym.xyz --gfn 2 --gbsa toluene --ohess vtight --parallel 40 --molden --ceasefiles --namespace data2507/toluene/35CzBPym/35CzBPym_toluene_S0_preOpt
      * Solvation model:               GBSA
        Solvent                        toluene
        Solvent mass                       9.2140E+01 g/mol
          :  Hamiltonian                  GFN2-xTB          :
 * total energy  :  -101.9965378 Eh     change       -0.3056726E-08 Eh
 * total energy  :  -102.0104885 Eh     change       -0.1395071E-01 Eh
 * total energy  :  -102.0132470 Eh     change       -0.2758501E-02 Eh
 * total energy  :  -102.0136727 Eh     change       -0.4256647E-03 Eh
 * total energy  :  -102.0140088 Eh     change       -0.3360624E-03 Eh
 * total energy  :  -102.0141376 Eh     change       -0.1288525E-03 Eh
 * total energy  :  -102.0142638 Eh     change       -0.1261592E-03 Eh
 * total energy  :  -102.0143684 Eh     change       -0.1045805E-03 Eh
 * total energy  :  -102.0144709 Eh     change       -0.1025730E-03 Eh
 * total energy  :  -102.0145851 Eh     change       -0.1141650E-03 Eh
 * total energy  :  -102.0152049 Eh     change       -0.1512345E-05 Eh
 * total energy  :  -102.0152061 Eh     change       -0.1209162E-05 Eh
 * total energy  :  -102.0152072 Eh     change       -0.1085644E-05 Eh
 * total energy  :  -102.0152082 Eh     change       -0.9584478E-06 Eh
 * total energy  :  -102.0152090 Eh     change       -0.8180765E-06 Eh
 * total energy  :  -102.0152097 Eh     change       -0.6728857E-06 Eh
 * total energy  :  -102.0152103 Eh     change       -0.6249598E-06 Eh
 * total energy  :  -102.0152110 Eh     change       -0.6468669E-06 Eh
 * total energy  :  -102.0152110 Eh     change       -0.1484425E-07 Eh
   *** GEOMETRY OPTIMIZATION CONVERGED AFTER 44 ITERATIONS ***

 final structure:
================
62
 xtb: 6.7.1 (edcfbbe)
O            0.19675091404381       -4.45807902781759        0.93979230187570
C           -0.60678370269437       -3.64203225219850        0.52787454310958
C           -1.99128176363902       -4.04519768369837        0.17128393675834
C           -2.62327105694589       -3.63594015011224       -1.00473255404866
N           -3.84913621225790       -4.01855465412647       -1.31218589656682
C           -4.45274269295568       -4.83788560678974       -0.46966910324654
N           -3.94114427567712       -5.32238380535807        0.64867641050255
C           -2.72323932056530       -4.92758405280306        0.96987775227089
C           -0.27102666529247       -2.21311849656299        0.33944691924490
C           -1.24444647888715       -1.22013894956035        0.41691058816063
C           -0.88318652638225        0.11570899589086        0.25867650562268
N           -1.84770402390953        1.11999486845034        0.35920263893985
C           -3.08477966590403        1.12330322908238       -0.26416802620707
C           -3.62779755266939        0.21362386536841       -1.15935031432029
C           -4.89060960588864        0.47111211516260       -1.65959899287776
C           -5.59727253246611        1.61409755352534       -1.29303803759058
C           -5.04979438652428        2.53882443266592       -0.42526857354757
C           -3.78335650809721        2.29866416108605        0.09223927609842
C           -2.92562238158421        3.03193941344572        0.98299517100034
C           -3.06842200927052        4.23027231562294        1.67066992026083
C           -2.04018297732052        4.64829796230576        2.49232991394942
C           -0.88920500707511        3.87891437730832        2.64528766399970
C           -0.72424128951546        2.68372497815808        1.96984204738618
C           -1.74172554085835        2.27287832109824        1.12101106871439
C            0.44696034404523        0.44963452590179        0.01470651146189
C            1.42350013427678       -0.54164586481455       -0.05199045316556
N            2.75567245629583       -0.19835601673734       -0.28501124196495
C            3.21722486110407        0.65205134049616       -1.27637867734944
C            2.51689915987813        1.30815337451044       -2.27828361481188
C            3.23726850705941        2.08043318888322       -3.17082831012477
C            4.62262476175709        2.19403239757680       -3.08151575698076
C            5.32773738237081        1.52200105349473       -2.10246145321657
C            4.62527389128897        0.73974163517234       -1.19488520000394
C            5.02655944811742       -0.09463212790560       -0.09505787618570
C            6.25719866465159       -0.39145759701449        0.47655716516615
C            6.29265034214633       -1.23513814362935        1.56937667433588
C            5.12026427102145       -1.76733138124783        2.10113585398848
C            3.88415735933858       -1.48579192681058        1.54934997957804
C            3.84536234967400       -0.66022463581185        0.43510780197933
C            1.06085760506644       -1.87420247844853        0.11629619021593
H           -2.12219495200996       -3.00264588973870       -1.72610340360032
H           -5.45825017075724       -5.14778595260308       -0.72295296594284
H           -2.31166625421394       -5.31130632262218        1.89470848226706
H           -2.26860457779741       -1.46977363777845        0.64651799731090
H           -3.08443518985595       -0.66556039808987       -1.46844140803189
H           -5.33409460085725       -0.22958462247927       -2.35148202075473
H           -6.58260344112002        1.77988670738422       -1.70273575568169
H           -5.59015549024905        3.43340678179477       -0.15480984252167
H           -3.96900118571669        4.81634617074500        1.56681920237758
H           -2.13008328149132        5.57798477036105        3.03449624965990
H           -0.10855226320820        4.22052736521572        3.30906483333870
H            0.16400164788472        2.08803714879191        2.11616040099502
H            0.72413555291108        1.48431496365557       -0.11358215704978
H            1.44577890836296        1.21367848217129       -2.37306840687278
H            2.71337995729086        2.60317812613392       -3.95759850426730
H            5.14940795898584        2.80916977859871       -3.79601576750354
H            6.40321014556834        1.59480033868285       -2.04383218259988
H            7.16413217654547        0.03425896898306        0.07449563624949
H            7.23929248013033       -1.48137822931395        2.02729274645073
H            5.17608135765751       -2.41236604804038        2.96581738719112
H            2.98274508217926       -1.89322723280856        1.98165990926980
H            1.79748686399696       -2.65966752279825        0.04936581730789

          :  Hamiltonian                  GFN2-xTB          :
         :: gradient norm              0.000072629987 Eh/a0 ::
         :: HOMO-LUMO gap              1.441315524928 eV    ::
         :: SCC energy              -103.825012360797 Eh    ::
         :: -> dispersion             -0.086291059747 Eh    ::
         :: -> Gsolv                  -0.043004581813 Eh    ::
         :: repulsion energy           1.809801392968 Eh    ::

    * Orbital Energies and Occupations

         #    Occupation            Energy/Eh            Energy/eV
      -------------------------------------------------------------
         1        2.0000           -0.7352566             -20.0073
       ...           ...                  ...                  ...
        82        2.0000           -0.4267682             -11.6130
        83        2.0000           -0.4241211             -11.5409
        84        2.0000           -0.4236994             -11.5294
        85        2.0000           -0.4227979             -11.5049
        86        2.0000           -0.4221770             -11.4880
        87        2.0000           -0.4138494             -11.2614
        88        2.0000           -0.4109390             -11.1822
        89        2.0000           -0.4100532             -11.1581
        90        2.0000           -0.3944936             -10.7347
        91        2.0000           -0.3843552             -10.4588
        92        2.0000           -0.3835513             -10.4370
        93        2.0000           -0.3717632             -10.1162
        94        2.0000           -0.3708835             -10.0923 (HOMO)
        95                         -0.3179161              -8.6509 (LUMO)
        96                         -0.2949771              -8.0267
        97                         -0.2767155              -7.5298
        98                         -0.2601559              -7.0792
        99                         -0.2503171              -6.8115
       100                         -0.2472811              -6.7289
       101                         -0.2276756              -6.1954
       102                         -0.2269141              -6.1746
       103                         -0.2264796              -6.1628
       104                         -0.1978061              -5.3826
       105                         -0.1952020              -5.3117
       ...                                ...                  ...
       182                          0.7390931              20.1117
      -------------------------------------------------------------
                  HL-Gap            0.0529674 Eh            1.4413 eV

     #   Z          covCN         q      C6AA      α(0)
     1   8 O        0.858    -0.389    21.455     6.210
     2   6 C        2.827     0.230    23.177     7.889
     3   6 C        2.959    -0.026    28.657     8.780
     4   6 C        2.933     0.082    26.175     8.390
     5   7 N        1.834    -0.219    26.616     7.645
     6   6 C        2.923     0.153    24.689     8.148
     7   7 N        1.833    -0.221    26.660     7.652
     8   6 C        2.935     0.089    26.016     8.365
     9   6 C        2.971    -0.012    28.321     8.729
    10   6 C        2.922    -0.048    29.187     8.859
    11   6 C        2.909     0.073    26.377     8.421
    12   7 N        2.801    -0.041    22.026     6.970
    13   6 C        3.068     0.044    26.943     8.511
    14   6 C        2.910    -0.052    29.299     8.876
    15   6 C        2.923    -0.033    28.830     8.805
    16   6 C        2.920    -0.040    28.992     8.830
    17   6 C        2.913    -0.033    28.822     8.803
    18   6 C        3.065    -0.015    28.330     8.728
    19   6 C        3.066    -0.015    28.325     8.727
    20   6 C        2.913    -0.033    28.822     8.803
    21   6 C        2.920    -0.040    28.994     8.830
    22   6 C        2.924    -0.033    28.823     8.804
    23   6 C        2.910    -0.051    29.276     8.872
    24   6 C        3.068     0.045    26.924     8.508
    25   6 C        2.926    -0.053    29.311     8.879
    26   6 C        2.908     0.073    26.370     8.420
    27   7 N        2.802    -0.040    22.012     6.968
    28   6 C        3.068     0.045    26.921     8.508
    29   6 C        2.910    -0.052    29.281     8.873
    30   6 C        2.924    -0.033    28.828     8.805
    31   6 C        2.920    -0.040    28.999     8.831
    32   6 C        2.912    -0.033    28.823     8.803
    33   6 C        3.066    -0.015    28.324     8.727
    34   6 C        3.066    -0.016    28.332     8.728
    35   6 C        2.912    -0.033    28.829     8.805
    36   6 C        2.920    -0.040    28.999     8.831
    37   6 C        2.924    -0.033    28.821     8.804
    38   6 C        2.910    -0.051    29.255     8.869
    39   6 C        3.068     0.045    26.913     8.507
    40   6 C        2.927    -0.037    28.926     8.820
    41   1 H        0.925     0.059     2.209     2.324
    42   1 H        0.925     0.063     2.160     2.298
    43   1 H        0.925     0.064     2.156     2.296
    44   1 H        0.926     0.049     2.329     2.387
    45   1 H        0.926     0.027     2.623     2.533
    46   1 H        0.926     0.036     2.501     2.473
    47   1 H        0.926     0.033     2.541     2.493
    48   1 H        0.926     0.036     2.507     2.476
    49   1 H        0.926     0.035     2.511     2.478
    50   1 H        0.926     0.032     2.551     2.498
    51   1 H        0.926     0.034     2.529     2.487
    52   1 H        0.926     0.031     2.566     2.505
    53   1 H        0.926     0.068     2.104     2.268
    54   1 H        0.926     0.032     2.562     2.503
    55   1 H        0.926     0.034     2.527     2.486
    56   1 H        0.926     0.032     2.555     2.500
    57   1 H        0.926     0.035     2.517     2.481
    58   1 H        0.926     0.035     2.513     2.479
    59   1 H        0.926     0.032     2.557     2.501
    60   1 H        0.926     0.033     2.545     2.494
    61   1 H        0.926     0.031     2.574     2.509
    62   1 H        0.926     0.065     2.137     2.286

molecular dipole:
                 x           y           z       tot (Debye)
 q only:       -0.281       1.278      -0.357
   full:       -0.070       1.281      -0.273       3.333

 projected vibrational frequencies (cm⁻¹)
eigval :       -0.00    -0.00    -0.00    -0.00     0.00     0.00
eigval :       13.89    20.15    21.50    24.80    29.76    39.72
eigval :       53.13    66.01    70.59    99.21   102.37   118.94
eigval :      130.92   137.67   141.55   147.51   175.08   186.84
eigval :      205.03   242.49   245.46   250.13   271.42   272.27
eigval :      287.38   303.05   307.44   337.46   353.83   361.18
eigval :      393.89   396.36   397.11   421.47   423.12   436.08
eigval :      437.65   445.62   470.95   511.16   517.60   519.95
eigval :      533.95   540.55   541.70   543.32   557.47   586.98
eigval :      588.00   609.23   610.86   620.01   637.95   644.51
eigval :      667.55   673.39   674.59   681.88   705.50   707.62
eigval :      708.70   720.58   748.95   754.05   768.74   770.10
eigval :      770.37   780.58   781.30   793.73   838.66   840.45
eigval :      864.75   869.20   874.13   878.29   887.97   896.22
eigval :      897.00   899.21   902.35   903.78   905.83   907.24
eigval :      914.19   922.77   924.67   924.87   925.76   928.37
eigval :      931.17   991.11  1007.23  1011.09  1016.88  1033.55
eigval :     1050.39  1070.14  1071.14  1073.23  1074.15  1119.71
eigval :     1122.28  1134.42  1150.20  1150.93  1156.52  1164.07
eigval :     1173.84  1177.03  1178.81  1179.22  1180.49  1205.85
eigval :     1219.88  1226.61  1232.95  1233.93  1235.17  1240.52
eigval :     1245.65  1260.77  1293.32  1294.86  1297.66  1299.82
eigval :     1321.39  1331.23  1354.24  1355.03  1357.04  1359.35
eigval :     1380.74  1388.83  1394.27  1414.78  1417.01  1425.63
eigval :     1426.46  1450.03  1454.67  1472.89  1474.36  1484.81
eigval :     1484.95  1538.13  1539.94  1555.50  1559.90  1574.09
eigval :     1574.69  1587.51  1587.97  1597.40  1597.82  1610.99
eigval :     1611.35  1670.06  3050.23  3058.06  3063.86  3073.97
eigval :     3074.73  3074.98  3077.14  3079.96  3080.57  3080.73
eigval :     3083.38  3087.21  3087.69  3088.18  3091.67  3093.61
eigval :     3095.07  3095.94  3099.58  3102.38  3107.16  3110.14

   temp. (K)  partition function   enthalpy   heat capacity  entropy
                                   cal/mol     cal/K/mol   cal/K/mol   J/K/mol
 298.15  VIB  0.258E+14            17566.378    112.152    108.027
         ROT  0.452E+08              888.752      2.981     38.009
         INT  0.117E+22            18455.130    115.133    146.036
         TR   0.113E+29             1481.254      4.968     44.581
         TOT                       19936.3843   120.1007   190.6170   797.5415

       T/K    H(0)-H(T)+PV         H(T)/Eh          T*S/Eh         G(T)/Eh
   ------------------------------------------------------------------------
    298.15    0.317707E-01    0.495901E+00    0.905683E-01    0.405332E+00
   ------------------------------------------------------------------------

         :::::::::::::::::::::::::::::::::::::::::::::::::::::
         ::                  THERMODYNAMIC                  ::
         :::::::::::::::::::::::::::::::::::::::::::::::::::::
         :: total free energy        -101.609878583104 Eh   ::
         ::.................................................::
         :: total energy             -102.015210965198 Eh   ::
         :: zero point energy           0.464130019422 Eh   ::
         :: G(RRHO) w/o ZPVE           -0.058797637328 Eh   ::
         :: G(RRHO) contrib.            0.405332382094 Eh   ::
         :::::::::::::::::::::::::::::::::::::::::::::::::::::

           -------------------------------------------------
          | TOTAL ENERGY             -102.015210965198 Eh   |
          | TOTAL ENTHALPY           -101.519310295057 Eh   |
          | TOTAL FREE ENERGY        -101.609878583104 Eh   |
          | GRADIENT NORM               0.000072614219 Eh/α |
          | HOMO-LUMO GAP               1.441316223479 eV   |
           -------------------------------------------------

 * finished run on 2025/09/04 at 03:20:31.737
