   * xtb version 6.7.1 (edcfbbe) compiled by 'albert@albert-system' on 2024-07-22

   ID    Z sym.   atoms
    1    6 C      1-6, 8-17, 19, 20, 22, 24-33, 35-43, 45, 46
    2    8 O      7, 34
    3    7 N      18, 21, 23, 44
    4    1 H      47-68

          program call               : xtb data2507/gas/BFCZPZ3/BFCZPZ3_gas_S0_finalOpt.xtbopt.xyz --gfn 2 --spinpol --tblite --uhf 2 --ohess vtight --parallel 40 --molden --ceasefiles --namespace data2507/gas/BFCZPZ3/BFCZPZ3_gas_T1_preOpt
 * total energy  :  -116.7479057 Eh     change        0.4319968E-07 Eh
 * total energy  :  -116.7514299 Eh     change       -0.3524202E-02 Eh
 * total energy  :  -116.7522657 Eh     change       -0.8358629E-03 Eh
 * total energy  :  -116.7524211 Eh     change       -0.1553982E-03 Eh
 * total energy  :  -116.7525116 Eh     change       -0.9043019E-04 Eh
 * total energy  :  -116.7525355 Eh     change       -0.2391475E-04 Eh
 * total energy  :  -116.7525729 Eh     change       -0.3741783E-04 Eh
 * total energy  :  -116.7525971 Eh     change       -0.2415747E-04 Eh
 * total energy  :  -116.7526393 Eh     change       -0.4219687E-04 Eh
 * total energy  :  -116.7526901 Eh     change       -0.5084929E-04 Eh
 * total energy  :  -116.7531403 Eh     change       -0.2256012E-05 Eh
 * total energy  :  -116.7531425 Eh     change       -0.2241160E-05 Eh
 * total energy  :  -116.7531444 Eh     change       -0.1850679E-05 Eh
 * total energy  :  -116.7531458 Eh     change       -0.1407660E-05 Eh
 * total energy  :  -116.7531467 Eh     change       -0.9261446E-06 Eh
 * total energy  :  -116.7531474 Eh     change       -0.6845696E-06 Eh
 * total energy  :  -116.7531480 Eh     change       -0.5374691E-06 Eh
 * total energy  :  -116.7531484 Eh     change       -0.4605552E-06 Eh
 * total energy  :  -116.7531484 Eh     change       -0.2896125E-07 Eh
   *** GEOMETRY OPTIMIZATION CONVERGED AFTER 68 ITERATIONS ***

 final structure:
================
68
 xtb: 6.7.1 (edcfbbe)
C            1.98521674694171        4.06642430274448        2.53532051181783
C            1.16611556534199        3.32988832336176        1.68373484976395
C            1.64364921792584        2.22400516185870        1.01001125308475
C            2.96616406635242        1.84216946223716        1.20463001705699
C            3.79319170297980        2.62958609869421        2.03338134120186
C            3.31609352350175        3.73471529418866        2.71456766211792
O            5.07430257621091        2.17698699807070        2.03632735935594
C            5.10559670152419        1.10180915730656        1.20488500352311
C            6.25755927794466        0.40209517298982        0.86752390179003
C            6.14961636803525       -0.62780893221358       -0.04559702588122
C            4.90094171933480       -0.97130819946842       -0.55480251412358
C            4.49561220812260       -1.98449010095424       -1.49167755416543
C            5.18505810233489       -2.93083622868545       -2.23622478225617
C            4.46488122742683       -3.77435706032254       -3.06159364525195
C            3.07827252689121       -3.68414055767833       -3.14970482646120
C            2.37008099994746       -2.75113966914024       -2.41435285807694
C            3.09105664220655       -1.89988602535719       -1.59364027449329
N            2.63097761278083       -0.88006377541390       -0.77093781917537
C            1.29942622154794       -0.78334606854785       -0.38479751054254
C            0.94070198912322       -0.82484635300516        0.94298434007285
N           -0.33695199239399       -0.76243336036967        1.34251486488789
C           -1.29892326847824       -0.78447015067733        0.38411110992184
N           -2.63043324526732       -0.88233981079591        0.77015546958784
C           -3.08992188499452       -1.90320334729073        1.59190056283327
C           -2.36845371521306       -2.75482088712417        2.41180018137647
C           -3.07610578482718       -3.68892185298551        3.14626726419804
C           -4.46266602514051       -3.77984378834204        3.05808303664439
C           -5.18332960437249       -2.93595547621321        2.23352653041289
C           -4.49442689079914       -1.98850468193510        1.48986438644184
C           -4.90033970590266       -0.97468264404034        0.55394513538716
C           -6.14921889566296       -0.63142335373524        0.04505660732003
C           -6.25774950709278        0.39924222841235       -0.86712101488769
C           -5.10618293852320        1.09992079944754       -1.20386087071446
O           -5.07550147959154        2.17584064090359       -2.03435213883863
C           -3.79464548422783        2.62916295217912       -2.03101337861637
C           -3.31816730433612        3.73514488424825       -2.71125199788450
C           -1.98747559397250        4.06743981236314       -2.53172689500421
C           -1.16796347689055        3.33063696994602       -1.68077020011420
C           -1.64487485495188        2.22390895172332       -1.00799289404409
C           -2.96717273362329        1.84149316679516       -1.20295175980411
C           -3.82458999021233        0.80899142434606       -0.68590643203600
C           -3.71985949159498       -0.29961456691267        0.15821155923933
C           -0.94018199456737       -0.82452333325892       -0.94370177683207
N            0.33743413942573       -0.76098276144711       -1.34315964707763
C            3.72006554980262       -0.29728684927475       -0.15845304028873
C            3.82416538793000        0.81061442536313        0.68667506597758
H            1.57940914442691        4.92348236852728        3.05094928872813
H            0.13975830532067        3.63410660112032        1.54175818903473
H            1.01365958380693        1.67802887115190        0.32954703278307
H            3.96799366850197        4.31460966473737        3.34778975216789
H            7.20431944364557        0.68480790296745        1.29705496316573
H            7.02624545822547       -1.17056122924800       -0.36196757120478
H            6.26016670229191       -3.00175342470991       -2.17271473108918
H            4.98343474013569       -4.51725221598936       -3.64911239398355
H            2.54480318159693       -4.35790336044943       -3.80324512364206
H            1.29598384708335       -2.67723916984065       -2.48129018892388
H            1.69212159845778       -0.88961874352125        1.71319202339758
H           -1.29439926354150       -2.68036106571242        2.47880433633366
H           -2.54224881034248       -4.36299083853110        3.79917778646197
H           -4.98079084898433       -4.52358823487331        3.64490593421601
H           -6.25839655618466       -3.00742082423549        2.16995258047786
H           -7.02553193291277       -1.17496976301702        0.36093639448036
H           -7.20466926490804        0.68180609258091       -1.29639762977000
H           -3.97039407683214        4.31521485615229       -3.34397801623746
H           -1.58214842145080        4.92516710557941       -3.04662262471246
H           -0.14178054850174        3.63531633798972       -1.53852011355233
H           -1.01458710124450        1.67771443372375       -0.32798203377450
H           -1.69155205192054       -0.88903519014234       -1.71397786352673

 projected vibrational frequencies (cm⁻¹)
eigval :       -0.00    -0.00    -0.00    -0.00     0.00     0.00
eigval :       11.37    20.83    22.91    32.63    35.45    53.17
eigval :       60.51    67.10    86.01    89.01   109.55   111.15
eigval :      118.34   142.45   144.06   154.10   164.05   166.30
eigval :      208.63   212.99   254.93   262.85   262.90   281.00
eigval :      282.13   300.91   305.95   331.49   335.67   339.61
eigval :      347.83   353.85   373.74   398.55   407.95   408.58
eigval :      418.70   435.70   437.18   447.17   459.26   484.13
eigval :      488.66   494.06   495.71   522.53   534.35   541.38
eigval :      541.93   543.26   543.90   555.10   555.89   565.63
eigval :      578.19   604.19   607.75   613.26   623.30   624.34
eigval :      630.17   632.65   637.19   655.90   679.21   679.88
eigval :      697.84   704.87   705.22   710.94   711.25   712.94
eigval :      736.99   738.39   771.03   773.73   774.20   775.64
eigval :      775.67   819.92   819.98   828.39   837.52   847.28
eigval :      852.16   853.31   855.08   865.40   867.68   869.08
eigval :      869.52   886.85   892.47   892.52   900.55   901.61
eigval :      902.17   902.31   920.98   920.99   922.56   925.17
eigval :      945.14   984.50   996.35   998.98  1053.56  1060.29
eigval :     1067.15  1068.73  1068.82  1071.12  1085.31  1091.13
eigval :     1097.40  1128.32  1130.84  1132.83  1137.94  1156.43
eigval :     1168.95  1169.20  1176.93  1177.85  1182.73  1194.06
eigval :     1195.59  1210.11  1211.65  1215.39  1231.26  1248.60
eigval :     1249.89  1253.40  1254.96  1256.35  1262.19  1285.77
eigval :     1288.16  1302.52  1302.97  1306.67  1349.04  1351.52
eigval :     1354.74  1356.55  1357.15  1369.81  1371.43  1391.44
eigval :     1394.66  1395.52  1410.25  1420.82  1424.07  1428.95
eigval :     1430.91  1449.05  1449.26  1475.20  1475.57  1476.71
eigval :     1477.03  1520.46  1564.51  1564.68  1576.78  1577.84
eigval :     1586.30  1586.77  1594.49  1594.72  1600.57  1602.04
eigval :     1605.37  1606.33  3080.92  3080.92  3084.47  3084.79
eigval :     3088.09  3088.20  3091.23  3091.42  3094.90  3095.20
eigval :     3095.66  3095.99  3101.32  3101.36  3101.91  3102.28
eigval :     3109.17  3109.37  3117.27  3117.50  3133.20  3134.61

   temp. (K)  partition function   enthalpy   heat capacity  entropy
                                   cal/mol     cal/K/mol   cal/K/mol   J/K/mol
 298.15  VIB  0.421E+14            19139.748    127.431    115.733
         ROT  0.293E+08              888.752      2.981     37.150
         INT  0.123E+22            20028.500    130.412    152.883
         TR   0.139E+29             1481.254      4.968     44.992
         TOT                       21509.7544   135.3799   197.8745   827.9070

       T/K    H(0)-H(T)+PV         H(T)/Eh          T*S/Eh         G(T)/Eh
   ------------------------------------------------------------------------
    298.15    0.342780E-01    0.531925E+00    0.940166E-01    0.437908E+00
   ------------------------------------------------------------------------

         :::::::::::::::::::::::::::::::::::::::::::::::::::::
         ::                  THERMODYNAMIC                  ::
         :::::::::::::::::::::::::::::::::::::::::::::::::::::
         :: total free energy        -116.315240187999 Eh   ::
         ::.................................................::
         :: total energy             -116.753148444430 Eh   ::
         :: zero point energy           0.497646846911 Eh   ::
         :: G(RRHO) w/o ZPVE           -0.059738590480 Eh   ::
         :: G(RRHO) contrib.            0.437908256431 Eh   ::
         :::::::::::::::::::::::::::::::::::::::::::::::::::::

           -------------------------------------------------
          | TOTAL ENERGY             -116.753148444430 Eh   |
          | TOTAL ENTHALPY           -116.221223622023 Eh   |
          | TOTAL FREE ENERGY        -116.315240187999 Eh   |
          | GRADIENT NORM               0.000061884410 Eh/α |
           -------------------------------------------------

 * finished run on 2025/08/21 at 18:20:40.768
