   * xtb version 6.7.1 (edcfbbe) compiled by 'albert@albert-system' on 2024-07-22

   ID    Z sym.   atoms
    1    6 C      1-6, 8-17, 19, 20, 22, 24-33, 35-43, 45, 46
    2    8 O      7, 34
    3    7 N      18, 21, 23, 44
    4    1 H      47-68

          program call               : xtb data2507/gas/BFCZPZ3/BFCZPZ3_gas_T1_crest.xyz --gfn 2 --spinpol --tblite --uhf 2 --ohess vtight --parallel 40 --molden --ceasefiles --namespace data2507/gas/BFCZPZ3/BFCZPZ3_gas_T1_finalOpt
 * total energy  :  -116.7527510 Eh     change       -0.1326950E-07 Eh
 * total energy  :  -116.7528511 Eh     change       -0.1000695E-03 Eh
 * total energy  :  -116.7529012 Eh     change       -0.5014297E-04 Eh
 * total energy  :  -116.7529107 Eh     change       -0.9492606E-05 Eh
 * total energy  :  -116.7529178 Eh     change       -0.7055767E-05 Eh
 * total energy  :  -116.7529204 Eh     change       -0.2668857E-05 Eh
 * total energy  :  -116.7529245 Eh     change       -0.4071039E-05 Eh
 * total energy  :  -116.7529273 Eh     change       -0.2763179E-05 Eh
 * total energy  :  -116.7529292 Eh     change       -0.1929117E-05 Eh
 * total energy  :  -116.7529301 Eh     change       -0.9134862E-06 Eh
 * total energy  :  -116.7529305 Eh     change       -0.4394579E-06 Eh
 * total energy  :  -116.7529310 Eh     change       -0.4764296E-06 Eh
 * total energy  :  -116.7529317 Eh     change       -0.7102809E-06 Eh
 * total energy  :  -116.7529323 Eh     change       -0.5588327E-06 Eh
 * total energy  :  -116.7529328 Eh     change       -0.5393799E-06 Eh
 * total energy  :  -116.7529333 Eh     change       -0.4287066E-06 Eh
 * total energy  :  -116.7529335 Eh     change       -0.2444718E-06 Eh
 * total energy  :  -116.7529337 Eh     change       -0.2010575E-06 Eh
 * total energy  :  -116.7529338 Eh     change       -0.8175368E-07 Eh
   *** GEOMETRY OPTIMIZATION CONVERGED AFTER 19 ITERATIONS ***

 final structure:
================
68
 xtb: 6.7.1 (edcfbbe)
C            1.31781379348293        4.59708858206189        1.15448431889222
C            0.67643909079384        3.58300748353754        0.45005760514049
C            1.29943973566489        2.37879671085282        0.18934653972201
C            2.58978532100932        2.17146654311653        0.66834288046624
C            3.23553975177639        3.23118874031917        1.34165023192239
C            2.61688719693590        4.44045042141857        1.60042028865681
O            4.51338864631369        2.91277643753472        1.66884043168067
C            4.72445162143262        1.65193419626509        1.21305747551395
C            5.94981193832145        1.00393895498014        1.29555846612819
C            6.05279543029821       -0.25425335970426        0.74126028294110
C            4.92890848810764       -0.84673640733591        0.17693257597320
C            4.76517710040537       -2.13080413507449       -0.44622472504163
C            5.64082746754208       -3.16969150629502       -0.72649063873599
C            5.14608949002337       -4.29986240554594       -1.34969380711322
C            3.79985957530443       -4.39822342507699       -1.68922501185073
C            2.91007489811058       -3.37613747517331       -1.41195147030445
C            3.40448574332801       -2.23734669260952       -0.79688365362909
N            2.73875761625371       -1.07546146198565       -0.41530952973642
C            1.35886293283452       -1.01035550123732       -0.35633979949511
C            0.69589453882202       -0.50080480430640        0.73894920127021
N           -0.63486630118725       -0.52729637563028        0.85533462157213
C           -1.33597761153039       -1.19077042313478       -0.10912337047294
N           -2.70986164818852       -1.34507552539572        0.05498170900181
C           -3.28013861219632       -2.51296108164521        0.53483366373792
C           -2.71044336977214       -3.76786112000205        0.67307369405096
C           -3.50437536308715       -4.77831571560899        1.18425821828964
C           -4.82633479758833       -4.54300370373410        1.55258003999985
C           -5.39225888981887       -3.28789975194868        1.42612328848106
C           -4.61594830526699       -2.25928454642868        0.91149628820204
C           -4.85607578728571       -0.86460112096303        0.65105350824320
C           -5.96808395020849       -0.05585340540989        0.86849076747141
C           -5.91894776674822        1.28083229477978        0.52735078130115
C           -4.76395473483723        1.76297796863014       -0.07650083510123
O           -4.60799156792568        3.03296017272738       -0.53552929934042
C           -3.39846080609801        3.07361954875899       -1.15214815932192
C           -2.86155759998824        4.16282506232337       -1.81487296824745
C           -1.64533903390265        3.98472479731042       -2.44862170831278
C           -0.99708668010888        2.75256852028399       -2.42924863709261
C           -1.52746163944406        1.67075867550746       -1.75431367336819
C           -2.73548145605497        1.82907555673363       -1.08374318809278
C           -3.62375499772139        0.97360014201651       -0.34268964171872
C           -3.65964620641777       -0.34940728593801        0.09813855115952
C           -0.67464434091988       -1.74006006136623       -1.18011883212444
N            0.64506178593110       -1.60756543082561       -1.35567576967883
C            3.66113690698583       -0.21144804616153        0.14893197776775
C            3.56266813566980        1.10698631803813        0.61596490833412
H            0.79947727827128        5.52523687978867        1.34077375938663
H           -0.32828653715198        3.74257671115517        0.09018654851474
H            0.78968787160991        1.62488262544709       -0.38393995826086
H            3.14185665154808        5.22360715937632        2.12315558327024
H            6.78703961671722        1.49602071597392        1.76181383881840
H            6.99254964932234       -0.78293657745985        0.74775926859643
H            6.68499099086834       -3.09223406482581       -0.46477150814499
H            5.81018516472814       -5.12049797949722       -1.57647929761578
H            3.44048321944756       -5.29318729951760       -2.17459264714275
H            1.86721295229701       -3.45467966511932       -1.67450501858169
H            1.24664001416444       -0.12061002718227        1.58402388820215
H           -1.68350657393320       -3.94791922498210        0.39220717447026
H           -3.09069413321207       -5.76873336805186        1.30104042187399
H           -5.41569696193784       -5.35709722656367        1.94717243252883
H           -6.41487210685586       -3.10884872438554        1.72110672710563
H           -6.85976243777307       -0.47460804303332        1.30763261235107
H           -6.75394486562382        1.94098997352869        0.69471715626908
H           -3.38754414990512        5.10350200886474       -1.84307887717083
H           -1.19707886965790        4.81099213217136       -2.97897676447586
H           -0.05977213023306        2.64268321083780       -2.95353696759138
H           -1.02455485843814        0.71775122494274       -1.76635622672418
H           -1.22199212870313       -2.24079188302599       -1.96353300352008

 projected vibrational frequencies (cm⁻¹)
eigval :       -0.00    -0.00    -0.00     0.00     0.00     0.00
eigval :       11.82    15.24    20.96    37.46    50.90    57.47
eigval :       67.50    73.65    87.36    98.27   104.72   119.56
eigval :      132.93   140.15   143.72   149.34   163.21   167.59
eigval :      211.44   214.44   251.51   260.81   264.71   278.36
eigval :      286.40   297.56   309.99   330.43   341.27   343.63
eigval :      349.31   352.92   377.06   400.58   411.09   412.90
eigval :      420.96   432.47   441.48   451.57   462.58   476.27
eigval :      491.68   494.30   496.79   521.56   535.82   538.61
eigval :      542.80   544.07   545.83   554.84   558.53   565.27
eigval :      577.42   602.89   608.88   611.74   622.55   628.27
eigval :      628.81   631.90   638.24   658.28   679.64   680.92
eigval :      695.50   705.10   705.38   711.73   712.44   713.34
eigval :      734.65   769.60   773.52   774.67   776.52   778.98
eigval :      787.52   820.14   820.29   829.23   834.30   848.40
eigval :      850.49   852.14   854.92   868.85   869.09   869.38
eigval :      875.11   890.19   891.61   892.87   901.86   902.09
eigval :      902.76   906.36   920.44   920.91   923.99   926.61
eigval :      941.26   977.12   995.64   997.84  1053.77  1058.78
eigval :     1066.77  1068.25  1068.61  1069.70  1070.25  1091.23
eigval :     1098.07  1127.43  1130.20  1132.24  1137.77  1155.99
eigval :     1166.86  1171.07  1177.92  1179.33  1179.99  1194.77
eigval :     1197.30  1204.78  1207.40  1211.88  1232.43  1249.56
eigval :     1250.17  1250.97  1256.46  1256.98  1265.02  1278.09
eigval :     1290.28  1299.27  1301.88  1303.91  1349.79  1350.20
eigval :     1356.78  1357.94  1361.66  1368.16  1372.88  1391.83
eigval :     1393.62  1395.70  1414.99  1420.06  1421.93  1430.54
eigval :     1436.90  1447.99  1450.13  1474.66  1475.38  1475.50
eigval :     1476.83  1523.93  1564.48  1566.49  1573.55  1578.44
eigval :     1584.85  1588.95  1589.22  1596.57  1599.49  1602.17
eigval :     1603.02  1611.52  3079.75  3080.91  3083.65  3084.34
eigval :     3086.29  3088.41  3089.85  3090.82  3091.56  3096.05
eigval :     3096.35  3098.38  3100.56  3102.57  3103.12  3103.77
eigval :     3108.97  3109.71  3116.00  3118.59  3120.10  3141.82

   temp. (K)  partition function   enthalpy   heat capacity  entropy
                                   cal/mol     cal/K/mol   cal/K/mol   J/K/mol
 298.15  VIB  0.243E+14            19040.609    127.874    115.166
         ROT  0.569E+08              888.752      2.981     38.466
         INT  0.138E+22            19929.361    130.855    153.633
         TR   0.139E+29             1481.254      4.968     44.992
         TOT                       21410.6152   135.8231   198.6242   831.0437

       T/K    H(0)-H(T)+PV         H(T)/Eh          T*S/Eh         G(T)/Eh
   ------------------------------------------------------------------------
    298.15    0.341200E-01    0.532030E+00    0.943728E-01    0.437657E+00
   ------------------------------------------------------------------------

         :::::::::::::::::::::::::::::::::::::::::::::::::::::
         ::                  THERMODYNAMIC                  ::
         :::::::::::::::::::::::::::::::::::::::::::::::::::::
         :: total free energy        -116.315276524723 Eh   ::
         ::.................................................::
         :: total energy             -116.752933730303 Eh   ::
         :: zero point energy           0.497909987654 Eh   ::
         :: G(RRHO) w/o ZPVE           -0.060252782073 Eh   ::
         :: G(RRHO) contrib.            0.437657205580 Eh   ::
         :::::::::::::::::::::::::::::::::::::::::::::::::::::

           -------------------------------------------------
          | TOTAL ENERGY             -116.752933730303 Eh   |
          | TOTAL ENTHALPY           -116.220903755552 Eh   |
          | TOTAL FREE ENERGY        -116.315276524723 Eh   |
          | GRADIENT NORM               0.000091223058 Eh/α |
           -------------------------------------------------

 * finished run on 2025/08/21 at 18:24:54.465
