   * xtb version 6.7.1 (edcfbbe) compiled by 'albert@albert-system' on 2024-07-22

   ID    Z sym.   atoms
    1    6 C      1-6, 8-17, 19, 20, 22, 24-33, 35-43, 45, 46
    2    8 O      7, 34
    3    7 N      18, 21, 23, 44
    4    1 H      47-68

          program call               : xtb data2507/gas/BFCZPZ3/BFCZPZ3.xyz --gfn 2 --ohess vtight --parallel 40 --molden --ceasefiles --namespace data2507/gas/BFCZPZ3/BFCZPZ3_gas_S0_preOpt
          :  Hamiltonian                  GFN2-xTB          :
 * total energy  :  -116.7871724 Eh     change       -0.1770800E-08 Eh
 * total energy  :  -116.8138526 Eh     change       -0.2668023E-01 Eh
 * total energy  :  -116.8214762 Eh     change       -0.7623542E-02 Eh
 * total energy  :  -116.8236860 Eh     change       -0.2209804E-02 Eh
 * total energy  :  -116.8251553 Eh     change       -0.1469297E-02 Eh
 * total energy  :  -116.8258334 Eh     change       -0.6780988E-03 Eh
 * total energy  :  -116.8263526 Eh     change       -0.5192170E-03 Eh
 * total energy  :  -116.8268266 Eh     change       -0.4740259E-03 Eh
 * total energy  :  -116.8272348 Eh     change       -0.4082098E-03 Eh
 * total energy  :  -116.8275845 Eh     change       -0.3497030E-03 Eh
 * total energy  :  -116.8298373 Eh     change       -0.2203476E-05 Eh
 * total energy  :  -116.8298384 Eh     change       -0.1121344E-05 Eh
 * total energy  :  -116.8298390 Eh     change       -0.5695826E-06 Eh
 * total energy  :  -116.8298394 Eh     change       -0.3847296E-06 Eh
 * total energy  :  -116.8298398 Eh     change       -0.3849974E-06 Eh
 * total energy  :  -116.8298403 Eh     change       -0.4797060E-06 Eh
 * total energy  :  -116.8298409 Eh     change       -0.5908245E-06 Eh
 * total energy  :  -116.8298414 Eh     change       -0.5563766E-06 Eh
 * total energy  :  -116.8298414 Eh     change       -0.3147008E-08 Eh
   *** GEOMETRY OPTIMIZATION CONVERGED AFTER 44 ITERATIONS ***

 final structure:
================
68
 xtb: 6.7.1 (edcfbbe)
C            1.84718213579763        3.87849068048843        2.98274828349400
C            1.09200819201375        3.25771516415096        1.99190617968883
C            1.59514114798598        2.19518728777203        1.26824988918951
C            2.87702319196669        1.73845181357871        1.55320245554955
C            3.64710809658251        2.41802191167595        2.52036309707049
C            3.14285895733651        3.47733207349171        3.25306439339008
O            4.90937256548381        1.92133886729482        2.59482414135860
C            4.98799527207945        0.92568207941541        1.67181002700997
C            6.14875788204707        0.22826038604508        1.35918128723994
C            6.09720516507324       -0.69434482240737        0.33518664400002
C            4.88607756116037       -0.95099496304341       -0.30400922544112
C            4.54042793519650       -1.82944622867041       -1.38970318414438
C            5.27866470567019       -2.70211410833056       -2.17778600796549
C            4.62439072434520       -3.41531287552796       -3.16301554330570
C            3.25425186691817       -3.27092635722347       -3.36236328923523
C            2.49875968095467       -2.40916495363635       -2.58782631017323
C            3.15430616258915       -1.68799224358510       -1.60512128476714
N            2.63797416880529       -0.78217698974399       -0.67960874057510
C            1.29759772757757       -0.72127490970312       -0.33647842078289
C            0.87617749945985       -0.72874503619755        1.00051639112438
N           -0.39976294493981       -0.74374686177196        1.32089566588005
C           -1.29755403105421       -0.72234477234634        0.33429968071901
N           -2.63792500017990       -0.78434110286236        0.67725455138062
C           -3.15419839122409       -1.69293595533308        1.60007120151082
C           -2.49860059657370       -2.41700634099797        2.58060898488935
C           -3.25403764307344       -3.28111153991122        3.35258388958179
C           -4.62417221213761       -3.42497164552301        3.15282670958100
C           -5.27849682940386       -2.70886956042671        2.16973899417979
C           -4.54031642260837       -1.83381551493892        1.38425347963963
C           -4.88602802576985       -0.95213776987119        0.30119780366089
C           -6.09718074737599       -0.69363224517696       -0.33720269520556
C           -6.14879438158727        0.23201900897855       -1.35844173389098
C           -4.98806823285596        0.93041947695073       -1.66901398950891
O           -4.90950587339712        1.92882470111568       -2.58905983039790
C           -3.64726354981477        2.42534306932808       -2.51313805169647
C           -3.14307383952841        3.48685459662418       -3.24268762230766
C           -1.84741229154464        3.88726737135153       -2.97119511593773
C           -1.09219586061022        3.26357912831737       -1.98221617588742
C           -1.59526871105197        2.19887605859763       -1.26172221529433
C           -2.87713182712153        1.74292894908250       -1.54801937045753
C           -3.74996426075744        0.72570579254589       -1.02199986556531
C           -3.69200475898224       -0.30080886749660       -0.07890154697283
C           -0.87613360416524       -0.72579707989234       -1.00271147566503
N            0.39980836566133       -0.73977524787153       -1.32313425545070
C            3.69201809535380       -0.30085523626010        0.07800680319327
C            3.74991229010162        0.72284299097625        1.02416554722466
H            1.42157874218047        4.70229053124744        3.53511431590761
H            0.09678763484871        3.61914130990999        1.77995434200437
H            1.01598691373816        1.75059966205102        0.47592055110753
H            3.75034475567912        3.97272999883641        3.99311212284114
H            7.06212800461753        0.43812157706274        1.89072430973322
H            6.98752517236485       -1.22014267715787        0.02880460129506
H            6.34045456133985       -2.81598793957105       -2.02109079893408
H            5.18099666509405       -4.09539321723901       -3.79047557563587
H            2.77041373441896       -3.84139393450707       -4.14106151247560
H            1.43922676757669       -2.29020010361754       -2.74620228337388
H            1.57740614829871       -0.75529507510926        1.82195988244970
H           -1.43906893664409       -2.29847144128789        2.73931472483646
H           -2.77015709539587       -3.85388242337098        4.12956302498180
H           -5.18073590321600       -4.10694274484693        3.77826860556234
H           -6.34028643743974       -2.82231572332137        2.01273277534223
H           -6.98746975208843       -1.22038718180185       -0.03237865378627
H           -7.06218375455715        0.44342032449087       -1.88934079971654
H           -3.75059091999920        3.98442268098202       -3.98125220381724
H           -1.42185273697301        4.71272431907903       -3.52111548548976
H           -0.09699072215231        3.62442083976875       -1.76919950880890
H           -1.01608455119793        1.75196083811891       -0.47072540968517
H           -1.57736064488821       -0.74991979874991       -1.82423117426640

          :  Hamiltonian                  GFN2-xTB          :
         :: gradient norm              0.000042484673 Eh/a0 ::
         :: HOMO-LUMO gap              2.286924518659 eV    ::
         :: SCC energy              -118.854278157792 Eh    ::
         :: -> dispersion             -0.104289227145 Eh    ::
         :: repulsion energy           2.024436745628 Eh    ::

    * Orbital Energies and Occupations

         #    Occupation            Energy/Eh            Energy/eV
      -------------------------------------------------------------
         1        2.0000           -0.7387753             -20.1031
       ...           ...                  ...                  ...
        95        2.0000           -0.4240010             -11.5377
        96        2.0000           -0.4226761             -11.5016
        97        2.0000           -0.4224517             -11.4955
        98        2.0000           -0.4171899             -11.3523
        99        2.0000           -0.4060846             -11.0501
       100        2.0000           -0.4056758             -11.0390
       101        2.0000           -0.4010482             -10.9131
       102        2.0000           -0.3984893             -10.8434
       103        2.0000           -0.3840963             -10.4518
       104        2.0000           -0.3792439             -10.3198
       105        2.0000           -0.3790817             -10.3153
       106        2.0000           -0.3679625             -10.0128
       107        2.0000           -0.3676910             -10.0054 (HOMO)
       108                         -0.2836481              -7.7185 (LUMO)
       109                         -0.2651144              -7.2141
       110                         -0.2587787              -7.0417
       111                         -0.2586718              -7.0388
       112                         -0.2448418              -6.6625
       113                         -0.2386238              -6.4933
       114                         -0.2243952              -6.1061
       115                         -0.2239791              -6.0948
       116                         -0.2153510              -5.8600
       117                         -0.2111542              -5.7458
       118                         -0.2006291              -5.4594
       ...                                ...                  ...
       206                          0.7561601              20.5762
      -------------------------------------------------------------
                  HL-Gap            0.0840429 Eh            2.2869 eV

     #   Z          covCN         q      C6AA      α(0)
     1   6 C        2.926    -0.032    28.786     8.799
     2   6 C        2.920    -0.036    28.907     8.817
     3   6 C        2.914    -0.033    28.834     8.805
     4   6 C        3.051    -0.020    28.460     8.749
     5   6 C        3.102     0.129    25.050     8.201
     6   6 C        2.909    -0.051    29.277     8.872
     7   8 O        1.715    -0.219    17.634     5.670
     8   6 C        3.102     0.126    25.115     8.212
     9   6 C        2.910    -0.061    29.511     8.908
    10   6 C        2.918    -0.034    28.859     8.809
    11   6 C        3.062    -0.022    28.482     8.752
    12   6 C        3.067    -0.012    28.238     8.713
    13   6 C        2.913    -0.033    28.822     8.803
    14   6 C        2.920    -0.037    28.926     8.820
    15   6 C        2.925    -0.032    28.791     8.799
    16   6 C        2.910    -0.046    29.136     8.851
    17   6 C        3.072     0.051    26.786     8.486
    18   7 N        2.800    -0.040    22.015     6.969
    19   6 C        2.896     0.136    25.026     8.202
    20   6 C        2.901     0.042    27.047     8.527
    21   7 N        1.846    -0.228    26.836     7.678
    22   6 C        2.896     0.136    25.026     8.202
    23   7 N        2.800    -0.040    22.015     6.969
    24   6 C        3.072     0.051    26.786     8.486
    25   6 C        2.910    -0.046    29.136     8.851
    26   6 C        2.925    -0.032    28.791     8.799
    27   6 C        2.920    -0.037    28.926     8.820
    28   6 C        2.913    -0.033    28.822     8.803
    29   6 C        3.067    -0.012    28.238     8.713
    30   6 C        3.062    -0.022    28.482     8.752
    31   6 C        2.918    -0.034    28.859     8.809
    32   6 C        2.910    -0.061    29.511     8.908
    33   6 C        3.102     0.126    25.115     8.212
    34   8 O        1.715    -0.219    17.634     5.670
    35   6 C        3.102     0.129    25.050     8.201
    36   6 C        2.909    -0.051    29.277     8.872
    37   6 C        2.926    -0.032    28.786     8.799
    38   6 C        2.920    -0.036    28.907     8.817
    39   6 C        2.914    -0.033    28.834     8.805
    40   6 C        3.051    -0.020    28.460     8.749
    41   6 C        3.043    -0.040    28.948     8.824
    42   6 C        3.063     0.041    27.022     8.524
    43   6 C        2.901     0.042    27.047     8.527
    44   7 N        1.846    -0.228    26.836     7.678
    45   6 C        3.063     0.041    27.022     8.524
    46   6 C        3.043    -0.040    28.948     8.824
    47   1 H        0.926     0.041     2.435     2.440
    48   1 H        0.926     0.037     2.483     2.464
    49   1 H        0.926     0.026     2.649     2.545
    50   1 H        0.926     0.048     2.341     2.393
    51   1 H        0.926     0.050     2.322     2.383
    52   1 H        0.926     0.045     2.381     2.413
    53   1 H        0.926     0.035     2.520     2.482
    54   1 H        0.926     0.033     2.542     2.493
    55   1 H        0.926     0.035     2.516     2.481
    56   1 H        0.926     0.050     2.315     2.379
    57   1 H        0.926     0.050     2.322     2.383
    58   1 H        0.926     0.050     2.315     2.379
    59   1 H        0.926     0.035     2.516     2.481
    60   1 H        0.926     0.033     2.542     2.493
    61   1 H        0.926     0.035     2.520     2.482
    62   1 H        0.926     0.045     2.381     2.413
    63   1 H        0.926     0.050     2.322     2.383
    64   1 H        0.926     0.048     2.341     2.393
    65   1 H        0.926     0.041     2.435     2.440
    66   1 H        0.926     0.037     2.483     2.464
    67   1 H        0.926     0.026     2.649     2.545
    68   1 H        0.926     0.050     2.322     2.383

molecular dipole:
                 x           y           z       tot (Debye)
 q only:        0.000      -0.311      -0.000
   full:        0.000      -0.207      -0.000       0.525

 projected vibrational frequencies (cm⁻¹)
eigval :       -0.00    -0.00     0.00     0.00     0.00     0.00
eigval :       10.54    22.54    25.33    34.64    34.92    53.60
eigval :       65.17    78.88    86.99    99.21   109.64   116.56
eigval :      120.39   140.92   146.41   163.65   165.92   172.59
eigval :      211.05   221.96   254.74   264.69   266.02   282.29
eigval :      283.97   310.38   311.49   329.44   342.42   352.44
eigval :      355.69   388.67   393.40   402.31   411.87   412.17
eigval :      425.23   432.48   437.98   446.39   466.11   479.34
eigval :      493.45   497.26   501.71   515.42   537.98   538.83
eigval :      543.82   543.83   556.30   557.06   565.68   578.35
eigval :      594.85   598.23   619.67   623.21   627.36   630.88
eigval :      632.10   644.44   656.46   680.70   680.93   702.22
eigval :      705.38   706.11   711.60   712.02   714.01   730.11
eigval :      751.58   776.03   776.38   776.88   777.02   821.90
eigval :      821.96   832.78   837.00   847.12   847.66   853.13
eigval :      853.65   858.41   869.42   869.55   873.72   873.88
eigval :      892.13   894.72   894.72   901.98   902.17   904.87
eigval :      904.95   922.91   923.27   923.53   924.09   924.19
eigval :      956.12   996.28   997.51  1031.68  1060.79  1062.35
eigval :     1069.72  1069.87  1070.36  1072.04  1097.62  1099.44
eigval :     1130.28  1131.45  1139.82  1140.18  1169.09  1170.93
eigval :     1178.08  1179.53  1180.78  1185.79  1201.02  1211.77
eigval :     1212.08  1212.74  1224.85  1233.55  1246.06  1250.75
eigval :     1251.47  1256.15  1259.28  1263.88  1281.06  1294.13
eigval :     1303.82  1305.22  1315.93  1353.42  1354.27  1355.70
eigval :     1357.60  1373.40  1374.09  1392.35  1395.99  1397.59
eigval :     1401.00  1416.44  1423.58  1426.12  1435.03  1441.34
eigval :     1454.77  1455.30  1476.50  1476.68  1480.60  1480.98
eigval :     1498.41  1563.52  1571.25  1571.66  1581.61  1581.97
eigval :     1590.74  1591.17  1599.92  1600.20  1606.79  1607.24
eigval :     1615.20  1616.29  3073.69  3075.25  3080.16  3080.16
eigval :     3084.53  3084.81  3087.90  3087.90  3095.28  3095.42
eigval :     3096.37  3096.55  3101.90  3101.94  3109.87  3110.04
eigval :     3112.64  3112.66  3115.17  3115.26  3117.37  3117.40

   temp. (K)  partition function   enthalpy   heat capacity  entropy
                                   cal/mol     cal/K/mol   cal/K/mol   J/K/mol
 298.15  VIB  0.187E+14            18828.697    126.008    113.561
         ROT  0.292E+08              888.752      2.981     37.140
         INT  0.545E+21            19717.449    128.989    150.700
         TR   0.139E+29             1481.254      4.968     44.992
         TOT                       21198.7031   133.9572   195.6918   818.7744

       T/K    H(0)-H(T)+PV         H(T)/Eh          T*S/Eh         G(T)/Eh
   ------------------------------------------------------------------------
    298.15    0.337823E-01    0.534857E+00    0.929795E-01    0.441878E+00
   ------------------------------------------------------------------------

         :::::::::::::::::::::::::::::::::::::::::::::::::::::
         ::                  THERMODYNAMIC                  ::
         :::::::::::::::::::::::::::::::::::::::::::::::::::::
         :: total free energy        -116.387963739538 Eh   ::
         ::.................................................::
         :: total energy             -116.829841412163 Eh   ::
         :: zero point energy           0.501074862875 Eh   ::
         :: G(RRHO) w/o ZPVE           -0.059197190249 Eh   ::
         :: G(RRHO) contrib.            0.441877672626 Eh   ::
         :::::::::::::::::::::::::::::::::::::::::::::::::::::

           -------------------------------------------------
          | TOTAL ENERGY             -116.829841412163 Eh   |
          | TOTAL ENTHALPY           -116.294984265583 Eh   |
          | TOTAL FREE ENERGY        -116.387963739538 Eh   |
          | GRADIENT NORM               0.000042480319 Eh/α |
          | HOMO-LUMO GAP               2.286924610533 eV   |
           -------------------------------------------------

 * finished run on 2025/08/21 at 18:17:33.505
