   * xtb version 6.7.1 (edcfbbe) compiled by 'albert@albert-system' on 2024-07-22

   ID    Z sym.   atoms
    1    6 C      1-6, 8-17, 19, 20, 22, 24-33, 35-43, 45, 46
    2    8 O      7, 34
    3    7 N      18, 21, 23, 44
    4    1 H      47-68

          program call               : xtb data2507/gas/BFCZPZ3/BFCZPZ3_gas_S0_crest.xyz --gfn 2 --ohess vtight --parallel 40 --molden --ceasefiles --namespace data2507/gas/BFCZPZ3/BFCZPZ3_gas_S0_finalOpt
          :  Hamiltonian                  GFN2-xTB          :
 * total energy  :  -116.8298424 Eh     change       -0.1546852E-08 Eh
 * total energy  :  -116.8298438 Eh     change       -0.1419605E-05 Eh
 * total energy  :  -116.8298449 Eh     change       -0.1158336E-05 Eh
 * total energy  :  -116.8298469 Eh     change       -0.1932456E-05 Eh
 * total energy  :  -116.8298482 Eh     change       -0.1295069E-05 Eh
 * total energy  :  -116.8298489 Eh     change       -0.7351786E-06 Eh
 * total energy  :  -116.8298495 Eh     change       -0.6411383E-06 Eh
 * total energy  :  -116.8298503 Eh     change       -0.7765018E-06 Eh
 * total energy  :  -116.8298511 Eh     change       -0.7883003E-06 Eh
 * total energy  :  -116.8298518 Eh     change       -0.6732207E-06 Eh
 * total energy  :  -116.8298544 Eh     change       -0.7476486E-06 Eh
 * total energy  :  -116.8298551 Eh     change       -0.6226886E-06 Eh
 * total energy  :  -116.8298555 Eh     change       -0.4692007E-06 Eh
 * total energy  :  -116.8298559 Eh     change       -0.3493737E-06 Eh
 * total energy  :  -116.8298562 Eh     change       -0.3114911E-06 Eh
 * total energy  :  -116.8298565 Eh     change       -0.3235577E-06 Eh
 * total energy  :  -116.8298568 Eh     change       -0.3172771E-06 Eh
 * total energy  :  -116.8298571 Eh     change       -0.2631789E-06 Eh
 * total energy  :  -116.8298571 Eh     change       -0.9327721E-09 Eh
   *** GEOMETRY OPTIMIZATION CONVERGED AFTER 22 ITERATIONS ***

 final structure:
================
68
 xtb: 6.7.1 (edcfbbe)
C            2.07302712183722        3.90665581002551        2.78309780705487
C            1.25105065544641        3.27515261091605        1.85407532942449
C            1.69767289094712        2.19404997936151        1.12085077747561
C            2.99106585995786        1.73019277429694        1.33305990812063
C            3.82650502760093        2.41865905655290        2.23766596102709
C            3.37918307837958        3.49675752326363        2.97987367422164
O            5.08603446366113        1.90952433184163        2.24312659992666
C            5.09754473527324        0.89692863937449        1.33534990155389
C            6.22939551891154        0.18072757713480        0.96439424210805
C            6.10525872575144       -0.75855674785975       -0.03803624768684
C            4.85470626899599       -1.01128061638211       -0.59805844035476
C            4.43336053774155       -1.90266347475899       -1.64588042489474
C            5.11135211382630       -2.79844549987298       -2.46169630609492
C            4.38959054560568       -3.51917651736904       -3.39285370275393
C            3.01184430896918       -3.35940781793667       -3.51192036206469
C            2.31562571667277       -2.47461546310539       -2.70838086251602
C            3.03856080172009       -1.74639651391691       -1.77968440354009
N            2.59007833931335       -0.81926924244928       -0.84006748112056
C            1.27416078710956       -0.74146441872121       -0.41466432031737
C            0.93675017143587       -0.73813833308815        0.94599115983539
N           -0.31687068346718       -0.75641955307793        1.34458790189117
C           -1.27411326162083       -0.74276897309420        0.41554881983636
N           -2.59012470178798       -0.82167084801613        0.84043871487597
C           -3.03881691992844       -1.74980060315141        1.77897258715646
C           -2.31626659651124       -2.47757223220900        2.70830130129263
C           -3.01254788064602       -3.36350157453588        3.51054800284428
C           -4.38995121209950       -3.52477820688943        3.38958689996735
C           -5.11130991323812       -2.80450788219439        2.45775059310249
C           -4.43327298115825       -1.90761180883788        1.64320763721804
C           -4.85426499126655       -1.01624408371305        0.59520004800236
C           -6.10419524088277       -0.76484499105502        0.03316690323286
C           -6.22785424550035        0.17467733187379       -0.96912545234106
C           -5.09636569079153        0.89264097537341       -1.33779735031822
O           -5.08451843053945        1.90579899148388       -2.24496362115098
C           -3.82568905970764        2.41668400421364       -2.23679010134194
C           -3.37839753271557        3.49596763509356       -2.97729514895781
C           -2.07323617210356        3.90760598937967       -2.77752791227950
C           -1.25219041209443        3.27659551165471       -1.84734177024368
C           -1.69870210628944        2.19424311253757       -1.11590264467746
C           -2.99101069816266        1.72875311670676       -1.33108853755191
C           -3.81949571529758        0.69393632275976       -0.76924966036100
C           -3.69337578357817       -0.34383496537941        0.15436108294173
C           -0.93668696343649       -0.73789631353293       -0.94511729964486
N            0.31690365296083       -0.75488770713731       -1.34370571672590
C            3.69362251803172       -0.34050556391969       -0.15513899632686
C            3.81990945762068        0.69686369884694        0.76894775219758
H            1.69086833733980        4.74538541784647        3.34468787656158
H            0.24772588555771        3.64284988022399        1.69847581460966
H            1.06543099699381        1.74004770820142        0.37571050955695
H            4.03638907912931        3.99934370235924        3.67097416417927
H            7.17599532633856        0.38885360060792        1.43500149740108
H            6.96947947418980       -1.30001742870816       -0.38869689478262
H            6.17912293018556       -2.92440281090804       -2.36729118898180
H            4.89848892473055       -4.21751160193395       -4.04043653270660
H            2.47460212554639       -3.93616925958152       -4.24989686662727
H            1.24998669264558       -2.34377597913742       -2.80458839935413
H            1.68761037149315       -0.75467687542738        1.72262812360518
H           -1.25090202354828       -2.34553183750351        2.80591783846346
H           -2.47564709941779       -3.93994008705397        4.24902462614215
H           -4.89892462486193       -4.22393395999539        4.03622565110749
H           -6.17881400049449       -2.93163378053036        2.36189547383338
H           -6.96831765710492       -1.30760981415912        0.38205161002570
H           -7.17391902292959        0.38162670006180       -1.44132665178929
H           -4.03488683706101        3.99813030801401       -3.66938365313706
H           -1.69116614674301        4.74733296284652       -3.33768718470441
H           -0.24975104086523        3.64569566038353       -1.68936888192634
H           -1.06734959932840        1.74054240035577       -0.36981039808158
H           -1.68751391674104       -0.75435336414834       -1.72178064053764

          :  Hamiltonian                  GFN2-xTB          :
         :: gradient norm              0.000023696175 Eh/a0 ::
         :: HOMO-LUMO gap              2.288185147105 eV    ::
         :: SCC energy              -118.854340596751 Eh    ::
         :: -> dispersion             -0.104280201063 Eh    ::
         :: repulsion energy           2.024483495885 Eh    ::

    * Orbital Energies and Occupations

         #    Occupation            Energy/Eh            Energy/eV
      -------------------------------------------------------------
         1        2.0000           -0.7387882             -20.1034
       ...           ...                  ...                  ...
        95        2.0000           -0.4240614             -11.5393
        96        2.0000           -0.4227353             -11.5032
        97        2.0000           -0.4226046             -11.4997
        98        2.0000           -0.4173463             -11.3566
        99        2.0000           -0.4061579             -11.0521
       100        2.0000           -0.4057639             -11.0414
       101        2.0000           -0.4010992             -10.9145
       102        2.0000           -0.3985771             -10.8458
       103        2.0000           -0.3840949             -10.4518
       104        2.0000           -0.3793010             -10.3213
       105        2.0000           -0.3791406             -10.3169
       106        2.0000           -0.3680562             -10.0153
       107        2.0000           -0.3678933             -10.0109 (HOMO)
       108                         -0.2838041              -7.7227 (LUMO)
       109                         -0.2652579              -7.2180
       110                         -0.2588128              -7.0427
       111                         -0.2586966              -7.0395
       112                         -0.2448741              -6.6634
       113                         -0.2387533              -6.4968
       114                         -0.2244627              -6.1079
       115                         -0.2240656              -6.0971
       116                         -0.2153927              -5.8611
       117                         -0.2113053              -5.7499
       118                         -0.2006523              -5.4600
       ...                                ...                  ...
       206                          0.7562230              20.5779
      -------------------------------------------------------------
                  HL-Gap            0.0840893 Eh            2.2882 eV

     #   Z          covCN         q      C6AA      α(0)
     1   6 C        2.926    -0.032    28.787     8.799
     2   6 C        2.920    -0.037    28.909     8.817
     3   6 C        2.914    -0.034    28.837     8.806
     4   6 C        3.051    -0.020    28.459     8.749
     5   6 C        3.102     0.129    25.050     8.201
     6   6 C        2.909    -0.051    29.276     8.872
     7   8 O        1.715    -0.219    17.634     5.670
     8   6 C        3.102     0.126    25.116     8.212
     9   6 C        2.910    -0.061    29.511     8.908
    10   6 C        2.918    -0.034    28.859     8.809
    11   6 C        3.062    -0.022    28.483     8.752
    12   6 C        3.068    -0.012    28.238     8.713
    13   6 C        2.913    -0.033    28.821     8.803
    14   6 C        2.920    -0.037    28.926     8.820
    15   6 C        2.925    -0.032    28.790     8.799
    16   6 C        2.910    -0.046    29.135     8.851
    17   6 C        3.072     0.051    26.785     8.486
    18   7 N        2.800    -0.040    22.020     6.969
    19   6 C        2.897     0.136    25.023     8.202
    20   6 C        2.901     0.042    27.047     8.527
    21   7 N        1.846    -0.228    26.827     7.676
    22   6 C        2.897     0.136    25.023     8.202
    23   7 N        2.800    -0.040    22.021     6.970
    24   6 C        3.072     0.051    26.785     8.486
    25   6 C        2.910    -0.046    29.135     8.851
    26   6 C        2.925    -0.032    28.790     8.799
    27   6 C        2.920    -0.037    28.926     8.820
    28   6 C        2.913    -0.033    28.821     8.803
    29   6 C        3.068    -0.012    28.237     8.713
    30   6 C        3.062    -0.022    28.482     8.752
    31   6 C        2.918    -0.034    28.859     8.809
    32   6 C        2.910    -0.061    29.511     8.908
    33   6 C        3.102     0.126    25.116     8.212
    34   8 O        1.715    -0.219    17.634     5.670
    35   6 C        3.102     0.129    25.050     8.201
    36   6 C        2.909    -0.051    29.276     8.872
    37   6 C        2.926    -0.032    28.787     8.799
    38   6 C        2.920    -0.037    28.909     8.817
    39   6 C        2.914    -0.034    28.837     8.806
    40   6 C        3.051    -0.020    28.459     8.749
    41   6 C        3.043    -0.040    28.947     8.824
    42   6 C        3.063     0.041    27.020     8.524
    43   6 C        2.901     0.042    27.047     8.527
    44   7 N        1.846    -0.228    26.827     7.676
    45   6 C        3.063     0.041    27.020     8.524
    46   6 C        3.043    -0.040    28.947     8.824
    47   1 H        0.926     0.041     2.435     2.440
    48   1 H        0.926     0.037     2.483     2.464
    49   1 H        0.926     0.026     2.648     2.545
    50   1 H        0.926     0.048     2.341     2.393
    51   1 H        0.926     0.050     2.322     2.383
    52   1 H        0.926     0.045     2.381     2.413
    53   1 H        0.926     0.035     2.519     2.482
    54   1 H        0.926     0.033     2.542     2.493
    55   1 H        0.926     0.035     2.516     2.481
    56   1 H        0.926     0.050     2.321     2.383
    57   1 H        0.926     0.050     2.321     2.382
    58   1 H        0.926     0.050     2.321     2.382
    59   1 H        0.926     0.035     2.516     2.480
    60   1 H        0.926     0.033     2.541     2.493
    61   1 H        0.926     0.035     2.519     2.482
    62   1 H        0.926     0.045     2.381     2.413
    63   1 H        0.926     0.050     2.322     2.383
    64   1 H        0.926     0.048     2.341     2.393
    65   1 H        0.926     0.041     2.435     2.440
    66   1 H        0.926     0.037     2.482     2.464
    67   1 H        0.926     0.026     2.648     2.545
    68   1 H        0.926     0.050     2.321     2.382

molecular dipole:
                 x           y           z       tot (Debye)
 q only:       -0.001      -0.316       0.000
   full:       -0.001      -0.209       0.000       0.531

 projected vibrational frequencies (cm⁻¹)
eigval :       -0.00    -0.00     0.00     0.00     0.00     0.00
eigval :       10.76    22.37    25.48    34.67    34.96    53.19
eigval :       64.71    79.03    87.07    98.10   110.00   116.58
eigval :      120.28   140.83   146.41   162.28   165.63   172.13
eigval :      210.97   221.53   254.29   264.70   265.85   282.36
eigval :      284.23   310.25   311.64   329.57   342.53   352.34
eigval :      355.72   388.80   393.24   402.34   411.62   412.10
eigval :      425.47   432.68   437.91   446.32   466.15   478.65
eigval :      493.51   497.24   501.67   515.56   537.96   538.77
eigval :      543.78   543.80   556.30   557.06   565.86   578.45
eigval :      594.82   598.43   619.62   623.21   627.25   630.87
eigval :      632.07   644.58   656.58   680.72   680.95   702.17
eigval :      705.34   706.10   711.58   712.00   713.96   730.32
eigval :      751.45   776.26   776.50   776.95   776.99   821.89
eigval :      821.95   832.76   837.01   846.91   847.65   852.86
eigval :      853.58   858.24   869.64   869.81   873.67   873.84
eigval :      891.81   894.76   894.77   901.95   902.53   904.82
eigval :      904.90   922.93   923.23   923.50   924.13   924.62
eigval :      956.03   996.25   997.49  1031.51  1060.90  1062.46
eigval :     1069.71  1069.86  1070.42  1072.09  1097.51  1099.31
eigval :     1130.24  1131.63  1140.01  1140.34  1169.07  1171.11
eigval :     1177.96  1179.58  1180.77  1186.19  1201.08  1211.91
eigval :     1212.35  1212.96  1224.76  1233.33  1246.14  1250.72
eigval :     1251.47  1256.26  1259.42  1264.07  1281.15  1294.25
eigval :     1303.91  1305.29  1316.11  1353.40  1354.26  1355.72
eigval :     1357.60  1373.55  1374.18  1392.38  1396.08  1397.66
eigval :     1400.97  1416.49  1423.60  1426.20  1434.75  1441.10
eigval :     1454.82  1455.39  1476.54  1476.70  1480.63  1480.99
eigval :     1498.67  1562.68  1571.21  1571.60  1581.64  1582.00
eigval :     1590.77  1591.19  1599.99  1600.27  1606.79  1607.25
eigval :     1615.54  1616.65  3073.60  3075.16  3080.22  3080.22
eigval :     3084.33  3084.57  3087.92  3087.93  3095.18  3095.30
eigval :     3096.40  3096.58  3101.82  3101.87  3109.80  3109.99
eigval :     3111.97  3112.00  3114.11  3114.40  3117.31  3117.35

   temp. (K)  partition function   enthalpy   heat capacity  entropy
                                   cal/mol     cal/K/mol   cal/K/mol   J/K/mol
 298.15  VIB  0.188E+14            18833.146    125.998    113.594
         ROT  0.292E+08              888.752      2.981     37.144
         INT  0.550E+21            19721.898    128.979    150.738
         TR   0.139E+29             1481.254      4.968     44.992
         TOT                       21203.1523   133.9474   195.7294   818.9316

       T/K    H(0)-H(T)+PV         H(T)/Eh          T*S/Eh         G(T)/Eh
   ------------------------------------------------------------------------
    298.15    0.337894E-01    0.534852E+00    0.929973E-01    0.441855E+00
   ------------------------------------------------------------------------

         :::::::::::::::::::::::::::::::::::::::::::::::::::::
         ::                  THERMODYNAMIC                  ::
         :::::::::::::::::::::::::::::::::::::::::::::::::::::
         :: total free energy        -116.388002348407 Eh   ::
         ::.................................................::
         :: total energy             -116.829857100865 Eh   ::
         :: zero point energy           0.501062711855 Eh   ::
         :: G(RRHO) w/o ZPVE           -0.059207959397 Eh   ::
         :: G(RRHO) contrib.            0.441854752458 Eh   ::
         :::::::::::::::::::::::::::::::::::::::::::::::::::::

           -------------------------------------------------
          | TOTAL ENERGY             -116.829857100865 Eh   |
          | TOTAL ENTHALPY           -116.295005015026 Eh   |
          | TOTAL FREE ENERGY        -116.388002348407 Eh   |
          | GRADIENT NORM               0.000023698287 Eh/α |
          | HOMO-LUMO GAP               2.288185129129 eV   |
           -------------------------------------------------

 * finished run on 2025/08/21 at 18:20:31.616
