   * xtb version 6.7.1 (edcfbbe) compiled by 'albert@albert-system' on 2024-07-22

   ID    Z sym.   atoms
    1    6 C      1-8, 10-16, 18, 20-22, 24-37
    2    7 N      9, 17, 19, 23
    3    1 H      38-73

          program call               : xtb data2507/gas/TPA-CN-N4-2PY/TPA-CN-N4-2PY_gas_T1_crest.xyz --gfn 2 --spinpol --tblite --uhf 2 --ohess vtight --parallel 40 --molden --ceasefiles --namespace data2507/gas/TPA-CN-N4-2PY/TPA-CN-N4-2PY_gas_T1_finalOpt
 * total energy  :  -100.6287877 Eh     change        0.3097082E-07 Eh
 * total energy  :  -100.6287966 Eh     change       -0.8856168E-05 Eh
 * total energy  :  -100.6287961 Eh     change        0.5005897E-06 Eh
 * total energy  :  -100.6287964 Eh     change       -0.2866321E-06 Eh
 * total energy  :  -100.6288004 Eh     change       -0.3976675E-05 Eh
 * total energy  :  -100.6288011 Eh     change       -0.7004881E-06 Eh
 * total energy  :  -100.6288013 Eh     change       -0.2643891E-06 Eh
 * total energy  :  -100.6288022 Eh     change       -0.9110721E-06 Eh
 * total energy  :  -100.6288027 Eh     change       -0.4968129E-06 Eh
 * total energy  :  -100.6288029 Eh     change       -0.1658518E-06 Eh
 * total energy  :  -100.6288040 Eh     change       -0.1185584E-06 Eh
 * total energy  :  -100.6288043 Eh     change       -0.2661237E-06 Eh
 * total energy  :  -100.6288045 Eh     change       -0.2110807E-06 Eh
 * total energy  :  -100.6288047 Eh     change       -0.2018224E-06 Eh
 * total energy  :  -100.6288049 Eh     change       -0.1281711E-06 Eh
 * total energy  :  -100.6288051 Eh     change       -0.2106746E-06 Eh
 * total energy  :  -100.6288050 Eh     change        0.6868122E-07 Eh
 * total energy  :  -100.6288051 Eh     change       -0.1074032E-06 Eh
 * total energy  :  -100.6288051 Eh     change       -0.9991652E-09 Eh
   *** GEOMETRY OPTIMIZATION CONVERGED AFTER 24 ITERATIONS ***

 final structure:
================
73
 xtb: 6.7.1 (edcfbbe)
C           -4.55973745031916       -5.31566915614347        1.53140016594737
C           -4.18092407324759       -4.99977045800370        0.07720943393009
C           -5.46454590798166       -4.98418283743007       -0.75713109968307
C           -3.26608523969057       -6.10368255151557       -0.47244390415206
C           -3.43855317568311       -3.67485698154435        0.03466166009168
C           -2.24669893791364       -3.52962631235467        0.74585185949956
C           -1.53544771893881       -2.35056239130051        0.74025812327091
C           -1.99461459507386       -1.25202151517487        0.00972437264348
N           -1.27333392415366       -0.05881762360202       -0.01148862854903
C            0.11288077929113       -0.08377203105136       -0.00149740366174
C            0.85592417171875        0.91833288435500        0.66327856574400
C            2.21537660775688        0.90615893346663        0.65759548896825
C            2.96677695577739       -0.11040055374912       -0.01548441575768
C            4.37343584881735       -0.12303262054925       -0.03594172710607
C            5.09715042067161       -1.31910782700651       -0.28670567481640
C            6.45790835185256       -1.40733173891839       -0.24788642648345
N            7.13227484324404       -2.60469191563150       -0.49200246514115
C            7.24154841000821       -0.22223259086046       -0.00368267621678
N            8.62280803051827       -0.31347734157498        0.02042979545823
C            6.58330130230737        0.96052735392657        0.24881724281434
C            5.18871857245418        1.06215914188139        0.23583293489489
C            4.68572801874489        2.35185860308844        0.36355506727135
N            4.37869313237407        3.46523926012365        0.45621445730007
C            2.18825360952427       -1.12639844866733       -0.66339821522307
C            0.82868054311312       -1.10941452270912       -0.65992646653938
C           -1.94776032883631        1.16296814680679       -0.04462940380163
C           -3.14498571360398        1.33941184442230        0.65217955670065
C           -3.79520756868607        2.55315837418193        0.62130951173511
C           -3.29080703365083        3.64114281191052       -0.09207487196306
C           -4.04769524337229        4.95837594389118       -0.08577438808373
C           -3.35620000153459        6.03946577448284       -0.92048725606959
C           -4.15534788411096        5.46562928435563        1.35955400851135
C           -5.45245946601521        4.73233174426852       -0.66326851032110
C           -2.09647512453759        3.45333780040712       -0.78116492159111
C           -1.43450095387304        2.24227104854031       -0.76347728172020
C           -3.18469417649993       -1.38528925674490       -0.70605127128156
C           -3.88735243879963       -2.57326230055430       -0.68786322137465
H           -5.10624556753837       -6.25511064891999        1.58023242053424
H           -3.67883282443744       -5.40172722503257        2.16132915375426
H           -5.19174183273575       -4.52723732623439        1.93491864944499
H           -6.16032133155139       -4.23258199986480       -0.39142507630777
H           -5.24817665065381       -4.79094975247587       -1.80527098761506
H           -5.95250674141001       -5.95438600341217       -0.68880498403293
H           -2.36310777532354       -6.20359538989544        0.12332497426245
H           -2.97590892312170       -5.87600778040180       -1.49611540463222
H           -3.78620647037596       -7.05922339849233       -0.46546278388671
H           -1.86217422160167       -4.35293671006015        1.32860456455193
H           -0.62424916108592       -2.26120282429978        1.31325196755342
H            0.32415754305166        1.68216235457185        1.21223141403235
H            2.74359305752259        1.65591531935976        1.22191354103345
H            4.54200044929500       -2.23174802030011       -0.44684252669825
H            6.52272722176398       -3.41023260423587       -0.50633667099170
H            7.94070238143448       -2.75251748773865        0.09613010088030
H            9.02063455110022       -0.99083395856525       -0.61320320793464
H            9.10195406476060        0.57468101356433        0.01668928219267
H            7.16111991206764        1.85699059182203        0.43294956559112
H            2.69126261231729       -1.89242224031074       -1.23236423803743
H            0.27500410602992       -1.86406654090002       -1.20130638640738
H           -3.55133578838205        0.52055131509825        1.22805474487090
H           -4.71480947933627        2.65183321006846        1.17807594361120
H           -2.36280727017311        6.25573203152164       -0.53492312526816
H           -3.93945660559914        6.95718529646707       -0.87895082336475
H           -3.27732444407486        5.73924423227463       -1.96281743363186
H           -4.69748396610047        4.76408645296882        1.98756309721360
H           -3.16293360039620        5.60596205922229        1.78258089431129
H           -4.67889332881616        6.41900188730193        1.38345181851874
H           -6.01574570329844        4.01754615328535       -0.06975354096733
H           -6.00467555065136        5.66950380073477       -0.68154626385423
H           -5.38385252611956        4.35239869456533       -1.68060460968931
H           -1.66114068452429        4.25528522740934       -1.35378683815807
H           -0.51561015205480        2.12139810583718       -1.31771488925436
H           -3.54952767679669       -0.55196856672542       -1.28876485205203
H           -4.79800896433630       -2.62804100392992       -1.26144251431785

 projected vibrational frequencies (cm⁻¹)
eigval :       -0.00    -0.00     0.00     0.00     0.00     0.00
eigval :       14.68    16.32    20.79    24.62    25.39    28.92
eigval :       40.24    55.03    63.98    72.99    88.58    99.54
eigval :      108.37   115.76   139.63   152.78   164.16   170.54
eigval :      172.98   179.02   184.73   204.50   221.48   222.36
eigval :      229.82   240.01   254.21   268.21   275.39   281.76
eigval :      287.06   305.89   313.90   315.12   316.31   324.20
eigval :      335.40   355.23   356.49   363.90   378.54   383.33
eigval :      385.49   389.11   391.66   393.08   396.64   417.83
eigval :      425.86   432.27   435.25   454.66   458.73   470.31
eigval :      472.13   485.79   525.00   530.38   551.23   560.97
eigval :      578.70   586.52   598.19   606.44   606.88   609.51
eigval :      620.91   650.07   655.84   683.81   685.01   688.25
eigval :      702.64   715.03   752.52   759.88   788.30   811.93
eigval :      813.00   816.07   819.75   832.03   854.05   864.46
eigval :      867.20   875.35   878.99   900.58   904.98   910.92
eigval :      913.37   915.97   925.99   927.43   930.93   943.11
eigval :      960.12   960.28   962.68   962.97   963.22   963.38
eigval :      982.11  1009.42  1021.11  1035.08  1035.13  1035.19
eigval :     1035.59  1039.23  1058.80  1139.34  1143.14  1143.91
eigval :     1153.09  1154.25  1168.68  1182.82  1198.11  1204.31
eigval :     1208.69  1226.61  1226.64  1228.08  1233.18  1233.65
eigval :     1235.61  1251.61  1276.54  1276.91  1280.92  1282.63
eigval :     1291.55  1308.13  1318.88  1323.91  1327.43  1331.56
eigval :     1339.82  1350.32  1381.24  1399.40  1400.65  1405.28
eigval :     1405.39  1405.52  1411.46  1420.04  1428.65  1428.68
eigval :     1434.00  1451.70  1471.56  1474.69  1480.38  1490.65
eigval :     1491.58  1491.59  1494.07  1494.18  1501.13  1501.31
eigval :     1503.54  1505.20  1505.53  1513.98  1514.39  1518.41
eigval :     1519.27  1519.76  1540.45  1548.49  1572.49  1579.13
eigval :     1580.14  1592.47  2238.74  3023.17  3023.46  3024.60
eigval :     3025.02  3027.83  3028.49  3031.02  3031.73  3032.08
eigval :     3033.21  3036.44  3037.46  3039.48  3040.94  3046.48
eigval :     3047.62  3049.63  3050.85  3061.36  3065.65  3076.58
eigval :     3077.11  3078.50  3080.38  3082.32  3088.43  3090.49
eigval :     3092.18  3096.39  3115.10  3120.06  3129.07  3416.75
eigval :     3428.38  3466.09  3481.78

   temp. (K)  partition function   enthalpy   heat capacity  entropy
                                   cal/mol     cal/K/mol   cal/K/mol   J/K/mol
 298.15  VIB  0.141E+17            21421.511    132.071    131.403
         ROT  0.607E+08              888.752      2.981     38.594
         INT  0.853E+24            22310.263    135.051    169.997
         TR   0.105E+29             1481.254      4.968     44.427
         TOT                       23791.5169   140.0196   214.4242   897.1507

       T/K    H(0)-H(T)+PV         H(T)/Eh          T*S/Eh         G(T)/Eh
   ------------------------------------------------------------------------
    298.15    0.379142E-01    0.636387E+00    0.101880E+00    0.534507E+00
   ------------------------------------------------------------------------

         :::::::::::::::::::::::::::::::::::::::::::::::::::::
         ::                  THERMODYNAMIC                  ::
         :::::::::::::::::::::::::::::::::::::::::::::::::::::
         :: total free energy        -100.094298215210 Eh   ::
         ::.................................................::
         :: total energy             -100.628805113737 Eh   ::
         :: zero point energy           0.598472540133 Eh   ::
         :: G(RRHO) w/o ZPVE           -0.063965641606 Eh   ::
         :: G(RRHO) contrib.            0.534506898527 Eh   ::
         :::::::::::::::::::::::::::::::::::::::::::::::::::::

           -------------------------------------------------
          | TOTAL ENERGY             -100.628805113737 Eh   |
          | TOTAL ENTHALPY            -99.992418378019 Eh   |
          | TOTAL FREE ENERGY        -100.094298215210 Eh   |
          | GRADIENT NORM               0.000129096234 Eh/α |
           -------------------------------------------------

 * finished run on 2025/09/04 at 18:47:39.197
