   * xtb version 6.7.1 (edcfbbe) compiled by 'albert@albert-system' on 2024-07-22

   ID    Z sym.   atoms
    1    6 C      1-8, 10-16, 18, 20-22, 24-37
    2    7 N      9, 17, 19, 23
    3    1 H      38-73

          program call               : xtb data2507/gas/TPA-CN-N4-2PY/TPA-CN-N4-2PY_gas_S0_crest.xyz --gfn 2 --ohess vtight --parallel 40 --molden --ceasefiles --namespace data2507/gas/TPA-CN-N4-2PY/TPA-CN-N4-2PY_gas_S0_finalOpt
          :  Hamiltonian                  GFN2-xTB          :
 * total energy  :  -100.7151561 Eh     change       -0.2532204E-08 Eh
 * total energy  :  -100.7151566 Eh     change       -0.4571828E-06 Eh
 * total energy  :  -100.7151563 Eh     change        0.2804397E-06 Eh
 * total energy  :  -100.7151574 Eh     change       -0.1091139E-05 Eh
 * total energy  :  -100.7151578 Eh     change       -0.3722678E-06 Eh
 * total energy  :  -100.7151581 Eh     change       -0.3513457E-06 Eh
 * total energy  :  -100.7151581 Eh     change       -0.1623386E-07 Eh
 * total energy  :  -100.7151583 Eh     change       -0.2143731E-06 Eh
 * total energy  :  -100.7151585 Eh     change       -0.1897870E-06 Eh
 * total energy  :  -100.7151585 Eh     change        0.3979495E-07 Eh
 * total energy  :  -100.7151583 Eh     change        0.2345079E-06 Eh
 * total energy  :  -100.7151587 Eh     change       -0.4088346E-06 Eh
 * total energy  :  -100.7151588 Eh     change       -0.1040181E-06 Eh
 * total energy  :  -100.7151589 Eh     change       -0.1619701E-06 Eh
 * total energy  :  -100.7151591 Eh     change       -0.1206280E-06 Eh
 * total energy  :  -100.7151591 Eh     change       -0.8962313E-07 Eh
   *** GEOMETRY OPTIMIZATION CONVERGED AFTER 16 ITERATIONS ***

 final structure:
================
73
 xtb: 6.7.1 (edcfbbe)
C           -5.69806137057747       -4.62446971553632        0.45755707361017
C           -4.29648228469725       -4.92344823739067       -0.09309414931938
C           -4.40082167907617       -5.39238084274813       -1.55132231057237
C           -3.69358644772605       -6.06365871796129        0.73195159429936
C           -3.46081083324082       -3.65463934207950       -0.03742745346957
C           -2.28049501343621       -3.55191783677401        0.68914707109498
C           -1.55047021961639       -2.37884471507596        0.72085343299018
C           -1.97396311290569       -1.25804949787579        0.01240202675297
N           -1.23914312586704       -0.06789171360410        0.04168885812959
C            0.15468207077814       -0.10122342206649        0.05093511514951
C            0.88484838805609        0.85629721716373        0.75738393479854
C            2.26238575587953        0.83630455312247        0.74705010921085
C            2.95947638417217       -0.14492969364543        0.04386967097676
C            4.42560353083494       -0.16990034041680        0.02687223484069
C            5.11305829249522       -1.36412954378894        0.21257081920997
C            6.49839108825933       -1.42593462320806        0.21997071403020
N            7.16340323420797       -2.63378121516511        0.38225374520244
C            7.24521365151069       -0.25036517809635       -0.01099350170569
N            8.63907935537087       -0.30656660417078        0.01776101089891
C            6.57275786745323        0.94348100665488       -0.18819432894862
C            5.17624080758615        0.99904256206612       -0.16455864683128
C            4.56385991076814        2.24357514712684       -0.41372579300469
N            4.11845520718424        3.27692706586089       -0.64451295846408
C            2.22716348735548       -1.11278352023009       -0.64224283648275
C            0.84945404243698       -1.08988962106618       -0.64845884943058
C           -1.91095803371921        1.16180361537527        0.05669448689950
C           -3.09461030375791        1.31847931643241        0.77095603145121
C           -3.75835339934194        2.53099520277731        0.77889729092931
C           -3.26794078712716        3.63249538983656        0.08790498646425
C           -3.96198227409916        4.98497732836945        0.07697625297447
C           -5.24935154240272        4.99435172295305        0.90582862754165
C           -4.32217560013165        5.35192199702851       -1.36967223455200
C           -3.01073667457215        6.04014570596094        0.65881789624064
C           -2.08009262912717        3.46331618693636       -0.62108332568739
C           -1.41264495740034        2.25726265735848       -0.64587370463960
C           -3.15429246453760       -1.35080554912937       -0.72308519204157
C           -3.87709189268183       -2.52467896504580       -0.73886400228119
H           -6.30852576508325       -5.52500859602749        0.43983303631779
H           -5.63064734156874       -4.27299968169804        1.48514255775400
H           -6.20001535993466       -3.86141701469570       -0.13072645160875
H           -4.88188013833357       -4.64390343354710       -2.17469334040731
H           -3.40930593447329       -5.58611407039940       -1.95549078525380
H           -4.98304547239812       -6.30972845394640       -1.60990910464421
H           -3.62318553126685       -5.79175714077854        1.78262619765185
H           -2.70528321545509       -6.33167949135076        0.36552945356946
H           -4.33019735480022       -6.94292571411417        0.65471410177286
H           -1.91016878466105       -4.38992027660840        1.25697966684423
H           -0.64267306987341       -2.32632360372866        1.30455735576406
H            0.36105136848054        1.61627435700164        1.31776127207702
H            2.80621591589715        1.57755288184879        1.31329936110262
H            4.55115707439589       -2.27078634595170        0.38874166895914
H            6.58095666590409       -3.38401062649172        0.72318905730422
H            8.04244799845846       -2.56590784583869        0.87338948535165
H            9.02645109840575       -1.12477914501296       -0.43048970092416
H            9.08027900977273        0.54327158233959       -0.30347178781051
H            7.13269080594917        1.85269303020812       -0.35855230631977
H            2.74842048933009       -1.87112692009730       -1.20876976269208
H            0.29812250506518       -1.83233656211701       -1.20684342807392
H           -3.49556202789495        0.48260914016790        1.32609416306742
H           -4.67041898438236        2.60082483020988        1.34900676363666
H           -5.97015582875566        4.27815933811225        0.51797416964253
H           -5.70156020372676        5.98325161883699        0.86172406094950
H           -5.04466224675427        4.76536831583454        1.94912687016674
H           -3.43512899833440        5.42118520921399       -1.99291631564777
H           -4.98040750155334        4.59751338199639       -1.79599425895696
H           -4.83367545880894        6.31189730918115       -1.39709190568362
H           -2.10047945304497        6.11973360451688        0.07141249161563
H           -3.49434675834217        7.01479433036107        0.67236073447043
H           -2.73599603705350        5.77664922525017        1.67814754764933
H           -1.65959275160728        4.28679281354573       -1.17796304573441
H           -0.49782803923339        2.15798286875637       -1.21157646090088
H           -3.49928844347476       -0.49470512297209       -1.28440878519346
H           -4.78483191885109       -2.55470484705467       -1.32270271978088

          :  Hamiltonian                  GFN2-xTB          :
         :: gradient norm              0.000052843753 Eh/a0 ::
         :: HOMO-LUMO gap              2.378759523662 eV    ::
         :: SCC energy              -102.503234916719 Eh    ::
         :: -> dispersion             -0.087477879547 Eh    ::
         :: repulsion energy           1.788075775925 Eh    ::

    * Orbital Energies and Occupations

         #    Occupation            Energy/Eh            Energy/eV
      -------------------------------------------------------------
         1        2.0000           -0.6650834             -18.0978
       ...           ...                  ...                  ...
        82        2.0000           -0.4137081             -11.2576
        83        2.0000           -0.4100856             -11.1590
        84        2.0000           -0.4076678             -11.0932
        85        2.0000           -0.4050480             -11.0219
        86        2.0000           -0.4005650             -10.8999
        87        2.0000           -0.3992996             -10.8655
        88        2.0000           -0.3964731             -10.7886
        89        2.0000           -0.3957030             -10.7676
        90        2.0000           -0.3929001             -10.6914
        91        2.0000           -0.3887846             -10.5794
        92        2.0000           -0.3841718             -10.4538
        93        2.0000           -0.3575476              -9.7294
        94        2.0000           -0.3372423              -9.1768 (HOMO)
        95                         -0.2498244              -6.7981 (LUMO)
        96                         -0.2310800              -6.2880
        97                         -0.2197092              -5.9786
        98                         -0.2180434              -5.9333
        99                         -0.2132760              -5.8035
       100                         -0.2101576              -5.7187
       101                         -0.2044763              -5.5641
       102                         -0.1845648              -5.0223
       103                         -0.1791018              -4.8736
       104                         -0.1475642              -4.0154
       105                         -0.0929802              -2.5301
       ...                                ...                  ...
       184                          1.1860266              32.2734
      -------------------------------------------------------------
                  HL-Gap            0.0874179 Eh            2.3788 eV

     #   Z          covCN         q      C6AA      α(0)
     1   6 C        3.762    -0.105    22.555     6.770
     2   6 C        3.903     0.026    20.085     6.370
     3   6 C        3.762    -0.105    22.555     6.770
     4   6 C        3.761    -0.107    22.589     6.775
     5   6 C        2.972    -0.000    28.030     8.684
     6   6 C        2.925    -0.040    29.003     8.832
     7   6 C        2.922    -0.051    29.270     8.872
     8   6 C        2.924     0.061    26.629     8.462
     9   7 N        2.752    -0.074    22.684     7.074
    10   6 C        2.924     0.065    26.546     8.449
    11   6 C        2.921    -0.048    29.182     8.859
    12   6 C        2.923    -0.031    28.769     8.796
    13   6 C        2.976    -0.000    28.027     8.684
    14   6 C        2.978     0.007    27.868     8.659
    15   6 C        2.928    -0.067    29.673     8.933
    16   6 C        2.900     0.061    26.622     8.460
    17   7 N        2.639    -0.286    27.373     7.770
    18   6 C        2.900     0.055    26.769     8.483
    19   7 N        2.638    -0.295    27.611     7.804
    20   6 C        2.933    -0.056    29.385     8.890
    21   6 C        2.975    -0.005    28.134     8.700
    22   6 C        1.914     0.113    28.319     8.594
    23   7 N        0.911    -0.264    26.838     7.493
    24   6 C        2.924    -0.036    28.886     8.814
    25   6 C        2.921    -0.050    29.243     8.868
    26   6 C        2.925     0.060    26.653     8.466
    27   6 C        2.922    -0.051    29.262     8.871
    28   6 C        2.925    -0.040    29.003     8.832
    29   6 C        2.973     0.001    28.004     8.680
    30   6 C        3.903     0.026    20.085     6.370
    31   6 C        3.761    -0.107    22.589     6.775
    32   6 C        3.762    -0.105    22.559     6.771
    33   6 C        3.762    -0.106    22.566     6.772
    34   6 C        2.927    -0.035    28.868     8.811
    35   6 C        2.921    -0.049    29.219     8.864
    36   6 C        2.921    -0.050    29.240     8.867
    37   6 C        2.927    -0.036    28.890     8.815
    38   1 H        0.925     0.036     2.503     2.474
    39   1 H        0.925     0.033     2.542     2.493
    40   1 H        0.925     0.036     2.499     2.472
    41   1 H        0.925     0.036     2.499     2.472
    42   1 H        0.925     0.033     2.546     2.495
    43   1 H        0.925     0.036     2.503     2.474
    44   1 H        0.925     0.035     2.513     2.479
    45   1 H        0.925     0.035     2.518     2.481
    46   1 H        0.925     0.035     2.514     2.479
    47   1 H        0.926     0.035     2.513     2.479
    48   1 H        0.926     0.028     2.617     2.530
    49   1 H        0.926     0.035     2.515     2.480
    50   1 H        0.926     0.035     2.512     2.478
    51   1 H        0.926     0.030     2.587     2.515
    52   1 H        0.860     0.159     1.340     1.813
    53   1 H        0.860     0.166     1.295     1.782
    54   1 H        0.860     0.162     1.323     1.802
    55   1 H        0.860     0.157     1.355     1.823
    56   1 H        0.925     0.031     2.567     2.505
    57   1 H        0.926     0.030     2.588     2.516
    58   1 H        0.926     0.031     2.571     2.508
    59   1 H        0.926     0.028     2.615     2.529
    60   1 H        0.926     0.036     2.507     2.476
    61   1 H        0.925     0.035     2.520     2.483
    62   1 H        0.925     0.035     2.514     2.479
    63   1 H        0.925     0.035     2.515     2.480
    64   1 H        0.925     0.037     2.487     2.466
    65   1 H        0.925     0.032     2.552     2.498
    66   1 H        0.925     0.036     2.501     2.473
    67   1 H        0.925     0.038     2.470     2.458
    68   1 H        0.925     0.036     2.502     2.474
    69   1 H        0.925     0.033     2.539     2.492
    70   1 H        0.926     0.033     2.541     2.493
    71   1 H        0.926     0.033     2.543     2.494
    72   1 H        0.926     0.030     2.586     2.515
    73   1 H        0.926     0.029     2.593     2.518

molecular dipole:
                 x           y           z       tot (Debye)
 q only:        0.736      -1.571       0.305
   full:        1.005      -1.984       0.361       5.726

 projected vibrational frequencies (cm⁻¹)
eigval :       -0.00    -0.00     0.00     0.00     0.00     0.00
eigval :       16.32    17.27    20.34    24.31    25.67    29.64
eigval :       48.84    53.25    65.69    70.62    88.76    98.75
eigval :      101.99   112.95   135.39   150.38   161.76   170.14
eigval :      170.70   179.12   188.24   212.57   222.22   223.75
eigval :      231.32   235.29   254.75   265.77   271.86   283.19
eigval :      286.47   314.27   315.10   315.65   318.14   339.45
eigval :      347.03   357.59   371.12   372.62   383.41   383.79
eigval :      390.06   392.85   396.36   404.25   415.22   417.52
eigval :      434.07   435.29   448.69   457.41   459.82   467.84
eigval :      498.09   526.06   529.37   537.92   558.00   566.70
eigval :      593.81   599.93   607.37   608.06   610.89   623.65
eigval :      654.35   674.05   685.93   690.66   691.56   710.54
eigval :      718.41   726.22   761.26   766.60   812.24   815.92
eigval :      817.03   844.57   850.36   862.20   869.70   870.26
eigval :      872.93   876.51   882.90   913.97   915.45   917.85
eigval :      923.91   926.73   928.16   930.58   934.34   960.28
eigval :      960.40   962.65   962.87   963.02   963.11   987.57
eigval :     1013.79  1026.52  1035.19  1035.61  1035.69  1035.81
eigval :     1039.26  1049.44  1062.84  1144.06  1145.32  1146.10
eigval :     1154.18  1155.38  1175.37  1190.96  1202.19  1211.45
eigval :     1215.06  1227.85  1227.95  1228.02  1234.35  1234.40
eigval :     1250.56  1263.72  1272.65  1279.75  1283.04  1286.37
eigval :     1292.72  1314.44  1324.20  1325.62  1329.16  1335.78
eigval :     1337.42  1387.08  1398.83  1402.67  1405.70  1405.90
eigval :     1406.98  1412.43  1418.07  1424.61  1429.35  1429.41
eigval :     1485.82  1488.75  1490.32  1491.98  1492.17  1494.84
eigval :     1495.07  1502.92  1503.15  1503.38  1506.69  1507.12
eigval :     1509.55  1514.74  1514.75  1520.16  1520.25  1529.68
eigval :     1546.14  1556.13  1566.00  1569.88  1591.44  1599.78
eigval :     1603.94  1607.40  2358.65  3021.26  3021.28  3022.54
eigval :     3022.61  3026.74  3026.85  3029.59  3029.90  3030.84
eigval :     3030.87  3035.46  3035.52  3037.88  3037.98  3047.16
eigval :     3048.60  3050.66  3052.31  3071.65  3074.49  3074.85
eigval :     3076.90  3078.64  3079.12  3081.05  3084.58  3087.43
eigval :     3089.73  3093.23  3096.14  3111.26  3111.66  3427.72
eigval :     3437.49  3473.59  3485.48

   temp. (K)  partition function   enthalpy   heat capacity  entropy
                                   cal/mol     cal/K/mol   cal/K/mol   J/K/mol
 298.15  VIB  0.902E+16            21178.689    130.639    130.199
         ROT  0.601E+08              888.752      2.981     38.577
         INT  0.543E+24            22067.441    133.620    168.776
         TR   0.105E+29             1481.254      4.968     44.427
         TOT                       23548.6949   138.5880   213.2028   892.0403

       T/K    H(0)-H(T)+PV         H(T)/Eh          T*S/Eh         G(T)/Eh
   ------------------------------------------------------------------------
    298.15    0.375272E-01    0.639366E+00    0.101300E+00    0.538067E+00
   ------------------------------------------------------------------------

         :::::::::::::::::::::::::::::::::::::::::::::::::::::
         ::                  THERMODYNAMIC                  ::
         :::::::::::::::::::::::::::::::::::::::::::::::::::::
         :: total free energy        -100.177092424851 Eh   ::
         ::.................................................::
         :: total energy             -100.715159140792 Eh   ::
         :: zero point energy           0.601838992502 Eh   ::
         :: G(RRHO) w/o ZPVE           -0.063772276561 Eh   ::
         :: G(RRHO) contrib.            0.538066715941 Eh   ::
         :::::::::::::::::::::::::::::::::::::::::::::::::::::

           -------------------------------------------------
          | TOTAL ENERGY             -100.715159140792 Eh   |
          | TOTAL ENTHALPY           -100.075792914295 Eh   |
          | TOTAL FREE ENERGY        -100.177092424851 Eh   |
          | GRADIENT NORM               0.000052944698 Eh/α |
          | HOMO-LUMO GAP               2.378762819426 eV   |
           -------------------------------------------------

 * finished run on 2025/09/04 at 18:43:44.452
