   * xtb version 6.7.1 (edcfbbe) compiled by 'albert@albert-system' on 2024-07-22

   ID    Z sym.   atoms
    1    6 C      1-8, 10-16, 18, 20-22, 24-37
    2    7 N      9, 17, 19, 23
    3    1 H      38-73

          program call               : xtb data2507/gas/TPA-CN-N4-2PY/TPA-CN-N4-2PY_gas_S0_finalOpt.xtbopt.xyz --gfn 2 --spinpol --tblite --uhf 2 --ohess vtight --parallel 40 --molden --ceasefiles --namespace data2507/gas/TPA-CN-N4-2PY/TPA-CN-N4-2PY_gas_T1_preOpt
 * total energy  :  -100.6167834 Eh     change       -0.3929384E-07 Eh
 * total energy  :  -100.6233255 Eh     change       -0.6542100E-02 Eh
 * total energy  :  -100.6256539 Eh     change       -0.2328361E-02 Eh
 * total energy  :  -100.6261719 Eh     change       -0.5180380E-03 Eh
 * total energy  :  -100.6266906 Eh     change       -0.5186550E-03 Eh
 * total energy  :  -100.6271228 Eh     change       -0.4322742E-03 Eh
 * total energy  :  -100.6274607 Eh     change       -0.3378551E-03 Eh
 * total energy  :  -100.6276527 Eh     change       -0.1920136E-03 Eh
 * total energy  :  -100.6278256 Eh     change       -0.1729131E-03 Eh
 * total energy  :  -100.6279594 Eh     change       -0.1337598E-03 Eh
 * total energy  :  -100.6287986 Eh     change       -0.4651337E-06 Eh
 * total energy  :  -100.6287990 Eh     change       -0.4180447E-06 Eh
 * total energy  :  -100.6287993 Eh     change       -0.2919284E-06 Eh
 * total energy  :  -100.6287997 Eh     change       -0.3229486E-06 Eh
 * total energy  :  -100.6287996 Eh     change        0.7153091E-08 Eh
 * total energy  :  -100.6287995 Eh     change        0.1862011E-06 Eh
 * total energy  :  -100.6287990 Eh     change        0.4325170E-06 Eh
 * total energy  :  -100.6287998 Eh     change       -0.7557041E-06 Eh
 * total energy  :  -100.6287998 Eh     change       -0.2204493E-07 Eh
   *** GEOMETRY OPTIMIZATION CONVERGED AFTER 60 ITERATIONS ***

 final structure:
================
73
 xtb: 6.7.1 (edcfbbe)
C           -5.68274306437146       -4.66200635614767        0.52245578733008
C           -4.27679975178764       -4.94679261962870       -0.02510304710074
C           -4.37402047018532       -5.42922217471994       -1.47970771161539
C           -3.65841115467044       -6.07110395050273        0.81009204043565
C           -3.45862116677925       -3.66733118412277        0.01815419106691
C           -2.27322128583705       -3.54507464155752        0.73691543226938
C           -1.55563565196090       -2.36602124767054        0.75274646376949
C           -2.00135116064316       -1.25247687284160        0.04034809155401
N           -1.27235987964977       -0.06363983414119        0.04311558978976
C            0.11359612626128       -0.09640158623390        0.05832341901344
C            0.85940383264492        0.89201681868562        0.74037966844333
C            2.21880235707994        0.87433525610380        0.73731887439954
C            2.96738361744308       -0.13513024754154        0.05050579935694
C            4.37398816405295       -0.15205822164573        0.03123813309643
C            5.09432914650271       -1.34716778119758       -0.23291470899875
C            6.45476780567682       -1.43993425828735       -0.19262639095783
N            7.12598059613021       -2.63637206467579       -0.44957201860790
C            7.24153506741455       -0.26019916105917        0.06708714039667
N            8.62241193752218       -0.35590760571092        0.09269904797234
C            6.58646919453186        0.92159423431963        0.33217888109047
C            5.19227982711760        1.02749814555367        0.31781769826983
C            4.69210132005539        2.31697360719020        0.45806625056770
N            4.38631210767876        3.42981536853901        0.56074108113261
C            2.18617854278797       -1.13884822389142       -0.61291049946448
C            0.82668718939360       -1.11572667006564       -0.61294792246448
C           -1.93999040675088        1.16237344712560        0.03095518661819
C           -3.13693640625143        1.33341043826932        0.72592721380384
C           -3.78574999091878        2.55204794503826        0.71903616578073
C           -3.27272110752289        3.64657090687201        0.02962738961626
C           -3.95171394509728        5.00524722607209        0.00376088887053
C           -5.25563744044530        5.02907002101854        0.80599375334806
C           -4.27815507830327        5.37520251073417       -1.45041142383619
C           -2.99988725720633        6.04956495618930        0.60431584910991
C           -2.07421374682003        3.46263254403311       -0.66098647391718
C           -1.41691757281267        2.25267457945919       -0.66752143465803
C           -3.18950020586919       -1.36381019373354       -0.68583598837045
C           -3.89499949867627       -2.54633477012299       -0.68937214473318
H           -6.27884985854192       -5.57206733657066        0.51498281330141
H           -5.62079371295863       -4.29832357114929        1.54608848479713
H           -6.19711542757751       -3.91397149153766       -0.07429725432565
H           -4.86481308481269       -4.69284857768997       -2.10989531228300
H           -3.37989346239343       -5.61358107719218       -1.88170894427854
H           -4.94389990541854       -6.35459058807053       -1.53006471272395
H           -3.58975720944889       -5.78819444726041        1.85795562424550
H           -2.66773236356998       -6.33115996356137        0.44452083712078
H           -4.28442249700367       -6.95859160301900        0.74257959360456
H           -1.89108418494380       -4.37445422378084        1.30908644566591
H           -0.64701501198243       -2.29332042401437        1.33224373214867
H            0.32971697453752        1.64974031478157        1.29970360427737
H            2.74896973760827        1.61326950357427        1.31399621216074
H            4.53656321125350       -2.25609974539741       -0.40474894509333
H            6.51405871766437       -3.43987337887943       -0.47410226229714
H            7.93300551259421       -2.79339156049546        0.13811919459445
H            9.01950563206611       -1.02687111402905       -0.54816054205924
H            9.10425715875038        0.53077357434705        0.10056539860476
H            7.16671043065416        1.81410714168200        0.52755677900078
H            2.68746496009296       -1.89914697732532       -1.19105270984428
H            0.27115298628748       -1.85993713097542       -1.16669487478591
H           -3.55000922806921        0.50614251760836        1.28486120442102
H           -4.70446606525166        2.63607818017936        1.27606389362327
H           -5.97578546321856        4.31940450253648        0.40498411311194
H           -5.69661650946205        6.02226668098744        0.75018156346526
H           -5.07493430520524        4.80144817603064        1.85396587781907
H           -3.37799964461382        5.43910579581161       -2.05504651201949
H           -4.93331963691812        4.62651779889882       -1.89132058587047
H           -4.78160735641485        6.33891753837117       -1.48703705825524
H           -2.07628880796949        6.11752954847829        0.03668148789599
H           -3.47228724715259        7.02960314595722        0.60592611895593
H           -2.75014818366183        5.78480374812702        1.62962498795765
H           -1.63888840329065        4.27971093469646       -1.21536677574972
H           -0.49714659487772        2.13691441703164       -1.22127019722750
H           -3.54490551037848       -0.51778779178478       -1.25582987025430
H           -4.80535738702099       -2.59382242171198       -1.26755369278681

 projected vibrational frequencies (cm⁻¹)
eigval :       -0.00    -0.00    -0.00    -0.00     0.00     0.00
eigval :       14.70    16.34    20.82    24.36    25.75    29.43
eigval :       39.98    54.40    65.56    72.62    88.69    99.85
eigval :      106.18   117.58   140.76   150.28   166.23   169.81
eigval :      171.66   178.53   185.34   204.32   220.66   221.88
eigval :      235.28   236.33   256.42   267.59   269.50   281.81
eigval :      288.74   310.71   314.51   314.84   315.89   321.01
eigval :      334.75   354.80   356.34   364.38   378.70   383.33
eigval :      385.70   389.78   391.40   392.61   396.81   417.52
eigval :      425.83   432.75   435.58   454.79   458.88   469.97
eigval :      472.08   485.92   524.99   530.40   551.28   561.01
eigval :      578.59   586.50   598.30   606.47   606.68   609.71
eigval :      621.00   650.12   655.70   683.80   685.04   688.55
eigval :      702.77   715.13   752.41   760.15   788.42   812.02
eigval :      812.97   815.91   819.34   832.27   853.87   864.52
eigval :      867.12   875.31   879.17   900.46   905.18   910.99
eigval :      913.27   915.40   926.25   927.87   930.90   943.05
eigval :      960.09   960.30   962.57   962.73   963.18   963.30
eigval :      982.04  1009.29  1021.08  1035.02  1035.09  1035.21
eigval :     1035.38  1039.22  1058.90  1139.42  1143.08  1143.84
eigval :     1153.07  1154.22  1168.68  1182.64  1198.16  1204.27
eigval :     1208.63  1226.62  1226.71  1227.83  1233.18  1233.50
eigval :     1236.14  1251.75  1276.43  1277.16  1280.85  1282.83
eigval :     1291.03  1308.30  1319.72  1321.68  1328.31  1331.33
eigval :     1340.11  1350.41  1381.08  1399.24  1400.47  1405.17
eigval :     1405.51  1405.89  1411.34  1420.08  1428.59  1428.75
eigval :     1433.97  1452.03  1471.54  1474.65  1480.36  1490.63
eigval :     1491.19  1491.53  1493.72  1494.11  1501.04  1501.38
eigval :     1503.75  1504.97  1505.38  1514.36  1514.48  1518.73
eigval :     1519.26  1519.50  1540.31  1548.52  1572.43  1579.16
eigval :     1580.07  1592.54  2238.77  3023.10  3023.20  3024.63
eigval :     3024.70  3027.41  3027.86  3031.04  3031.16  3032.07
eigval :     3032.34  3036.08  3036.51  3039.38  3039.52  3047.45
eigval :     3049.68  3050.78  3053.31  3061.36  3065.84  3076.67
eigval :     3078.34  3078.36  3080.38  3084.48  3085.59  3091.60
eigval :     3096.09  3097.04  3114.68  3115.15  3128.61  3416.44
eigval :     3428.36  3465.82  3481.65

   temp. (K)  partition function   enthalpy   heat capacity  entropy
                                   cal/mol     cal/K/mol   cal/K/mol   J/K/mol
 298.15  VIB  0.138E+17            21421.990    132.079    131.399
         ROT  0.606E+08              888.752      2.981     38.593
         INT  0.838E+24            22310.742    135.060    169.992
         TR   0.105E+29             1481.254      4.968     44.427
         TOT                       23791.9960   140.0280   214.4188   897.1282

       T/K    H(0)-H(T)+PV         H(T)/Eh          T*S/Eh         G(T)/Eh
   ------------------------------------------------------------------------
    298.15    0.379150E-01    0.636384E+00    0.101877E+00    0.534507E+00
   ------------------------------------------------------------------------

         :::::::::::::::::::::::::::::::::::::::::::::::::::::
         ::                  THERMODYNAMIC                  ::
         :::::::::::::::::::::::::::::::::::::::::::::::::::::
         :: total free energy        -100.094292883918 Eh   ::
         ::.................................................::
         :: total energy             -100.628799837283 Eh   ::
         :: zero point energy           0.598469279879 Eh   ::
         :: G(RRHO) w/o ZPVE           -0.063962326514 Eh   ::
         :: G(RRHO) contrib.            0.534506953365 Eh   ::
         :::::::::::::::::::::::::::::::::::::::::::::::::::::

           -------------------------------------------------
          | TOTAL ENERGY             -100.628799837283 Eh   |
          | TOTAL ENTHALPY            -99.992415598390 Eh   |
          | TOTAL FREE ENERGY        -100.094292883918 Eh   |
          | GRADIENT NORM               0.000047810472 Eh/α |
           -------------------------------------------------

 * finished run on 2025/09/04 at 18:43:52.469
