   * xtb version 6.7.1 (edcfbbe) compiled by 'albert@albert-system' on 2024-07-22

   ID    Z sym.   atoms
    1    6 C      1-8, 10-16, 18, 20-22, 24-37
    2    7 N      9, 17, 19, 23
    3    1 H      38-73

          program call               : xtb data2507/gas/TPA-CN-N4-2PY/TPA-CN-N4-2PY.xyz --gfn 2 --ohess vtight --parallel 40 --molden --ceasefiles --namespace data2507/gas/TPA-CN-N4-2PY/TPA-CN-N4-2PY_gas_S0_preOpt
          :  Hamiltonian                  GFN2-xTB          :
 * total energy  :  -100.6933177 Eh     change       -0.3450239E-08 Eh
 * total energy  :  -100.7045419 Eh     change       -0.1122425E-01 Eh
 * total energy  :  -100.7086659 Eh     change       -0.4123936E-02 Eh
 * total energy  :  -100.7084808 Eh     change        0.1850950E-03 Eh
 * total energy  :  -100.7114553 Eh     change       -0.2974475E-02 Eh
 * total energy  :  -100.7122960 Eh     change       -0.8407298E-03 Eh
 * total energy  :  -100.7128278 Eh     change       -0.5318445E-03 Eh
 * total energy  :  -100.7131423 Eh     change       -0.3144569E-03 Eh
 * total energy  :  -100.7133094 Eh     change       -0.1671247E-03 Eh
 * total energy  :  -100.7135315 Eh     change       -0.2220907E-03 Eh
 * total energy  :  -100.7151356 Eh     change       -0.2950838E-05 Eh
 * total energy  :  -100.7151379 Eh     change       -0.2270323E-05 Eh
 * total energy  :  -100.7151391 Eh     change       -0.1199124E-05 Eh
 * total energy  :  -100.7151400 Eh     change       -0.9547007E-06 Eh
 * total energy  :  -100.7151408 Eh     change       -0.7841929E-06 Eh
 * total energy  :  -100.7151412 Eh     change       -0.3776293E-06 Eh
 * total energy  :  -100.7151414 Eh     change       -0.2330873E-06 Eh
 * total energy  :  -100.7151416 Eh     change       -0.1419681E-06 Eh
 * total energy  :  -100.7151417 Eh     change       -0.9432947E-07 Eh
   *** GEOMETRY OPTIMIZATION CONVERGED AFTER 61 ITERATIONS ***

 final structure:
================
73
 xtb: 6.7.1 (edcfbbe)
C           -4.33829687329541       -5.23470545438104       -0.92554652886305
C           -3.07353932947499       -5.16806592394134       -0.06531621723883
C           -2.06738625865328       -6.18871632724957       -0.61589620461621
C           -3.45471392179837       -5.53978424218337        1.37474428755664
C           -2.43438860014468       -3.78861269957334       -0.06951311054801
C           -1.26918321926594       -3.56760932894437        0.66222512584698
C           -0.65216569361743       -2.33508959668794        0.69328044053856
C           -1.17987154230263       -1.26265148972986       -0.02396542269391
N           -0.56032483521544       -0.00843943485159        0.00031817713386
C            0.83035061331536        0.08914475152543        0.00728387569830
C            1.46842070048640        1.11792468129954        0.70274212172595
C            2.84186507966676        1.22561383332365        0.69182032570704
C            3.62730114700728        0.30522325983441       -0.00041706326243
C            5.08956484148595        0.41475931342685       -0.01651854175124
C            5.88316700979306       -0.70912391875404        0.18433197567355
C            7.26832611476853       -0.64376852872908        0.19284299186669
N            8.04082207122432       -1.78350302020249        0.37106824444955
C            7.90470749800367        0.59211051171502       -0.05340095107028
N            9.29786222966124        0.66399493151289       -0.02462301884629
C            7.12605874457072        1.71717680651593       -0.24527130003663
C            5.73028425788597        1.64506112154319       -0.22203012369484
C            5.00710914725764        2.82561311983793       -0.48527776830532
N            4.47069390510377        3.81195871641970       -0.72790233321145
C            2.98812370110371       -0.73333477086832       -0.67606389106951
C            1.61419215932494       -0.83794129891691       -0.68231188302075
C           -1.34554948471733        1.15232356325075        0.00738812834334
C           -2.53733983388922        1.20031357371387        0.72748873176476
C           -3.30660391358011        2.34479002956776        0.72787879207264
C           -2.92578278479128        3.48653717448302        0.02574627877450
C           -3.80755391533996        4.72423478666366        0.06933911641892
C           -3.24332883163336        5.87934781993881       -0.76205738203277
C           -3.93189103738951        5.19849175037084        1.52429267390424
C           -5.19620712329915        4.37166644602896       -0.48249540093512
C           -1.73397479419037        3.42689471852145       -0.68698088951847
C           -0.95761754606350        2.28369446636433       -0.70376361429651
C           -2.34308413524438       -1.47150873670973       -0.75909727179292
C           -2.95563098347000       -2.71026566589707       -0.77467084174265
H           -4.75052474031048       -6.24115293752419       -0.88677364317500
H           -5.09720437070925       -4.54705864542566       -0.55963726402514
H           -4.11732812825959       -5.00226159322173       -1.96473755659114
H           -1.77541518933167       -5.91913905911224       -1.62885864160883
H           -1.17112763901973       -6.23166417374971       -0.00331022549076
H           -2.51299662830601       -7.18114670315535       -0.63746045637323
H           -4.15365566986114       -4.81005170727133        1.77832371181416
H           -2.58172887384679       -5.56806539994300        2.02088092715543
H           -3.92714528094648       -6.51970811325235        1.39709626402824
H           -0.82898882788747       -4.37108274390131        1.23377277810123
H            0.24438667759026       -2.19303280375328        1.27933173987381
H            0.87623856876730        1.83201132162397        1.25530757257913
H            3.31442183912416        2.02034668661216        1.24945605929337
H            5.40634219554461       -1.66113159978303        0.37174076355206
H            7.52893736490650       -2.57932484962249        0.72173447282446
H            8.90930833507423       -1.62915588524098        0.86142145715209
H            9.75861621560177       -0.12159795221984       -0.46168383765781
H            9.65972433760277        1.54599978034218       -0.35808300068620
H            7.60064965079670        2.67161872159187       -0.42695416742658
H            3.57766545701301       -1.44636416936568       -1.23443893858329
H            1.13457556834158       -1.63403916456427       -1.23293506027962
H           -2.85486773115919        0.33419014242523        1.29008073638489
H           -4.22165623990590        2.34185111454496        1.30110646382849
H           -2.26719887612392        6.18603621934102       -0.39395493473294
H           -3.91206220779298        6.73528665174240       -0.69421114643198
H           -3.15820383539366        5.60198255710383       -1.81017332408061
H           -4.38450501190014        4.43611360244014        2.15235581649875
H           -2.94888690595586        5.43284653275849        1.92748186634903
H           -4.54884201406296        6.09327869894865        1.57608291897007
H           -5.67463791179747        3.59833275102662        0.11207352078424
H           -5.83684784816253        5.25115284019114       -0.47620244333314
H           -5.11317646685185        4.01230760350509       -1.50620416720284
H           -1.38827058613825        4.27591059712033       -1.25321000986224
H           -0.03966540740558        2.26728975185927       -1.27296863347855
H           -2.76750059083134       -0.65453571945547       -1.32441799745590
H           -3.85284179168980       -2.81980029085544       -1.36170314963629

          :  Hamiltonian                  GFN2-xTB          :
         :: gradient norm              0.000086432443 Eh/a0 ::
         :: HOMO-LUMO gap              2.381675488800 eV    ::
         :: SCC energy              -102.503185807149 Eh    ::
         :: -> dispersion             -0.087470878053 Eh    ::
         :: repulsion energy           1.788044155255 Eh    ::

    * Orbital Energies and Occupations

         #    Occupation            Energy/Eh            Energy/eV
      -------------------------------------------------------------
         1        2.0000           -0.6650455             -18.0968
       ...           ...                  ...                  ...
        82        2.0000           -0.4135389             -11.2530
        83        2.0000           -0.4103966             -11.1675
        84        2.0000           -0.4075851             -11.0910
        85        2.0000           -0.4051008             -11.0234
        86        2.0000           -0.4005301             -10.8990
        87        2.0000           -0.3992628             -10.8645
        88        2.0000           -0.3966221             -10.7926
        89        2.0000           -0.3953440             -10.7579
        90        2.0000           -0.3933117             -10.7026
        91        2.0000           -0.3888110             -10.5801
        92        2.0000           -0.3841727             -10.4539
        93        2.0000           -0.3575233              -9.7287
        94        2.0000           -0.3372746              -9.1777 (HOMO)
        95                         -0.2497498              -6.7960 (LUMO)
        96                         -0.2310211              -6.2864
        97                         -0.2197468              -5.9796
        98                         -0.2180923              -5.9346
        99                         -0.2131693              -5.8006
       100                         -0.2104212              -5.7259
       101                         -0.2045050              -5.5649
       102                         -0.1845249              -5.0212
       103                         -0.1791114              -4.8739
       104                         -0.1475185              -4.0142
       105                         -0.0929646              -2.5297
       ...                                ...                  ...
       184                          1.1859826              32.2722
      -------------------------------------------------------------
                  HL-Gap            0.0875248 Eh            2.3817 eV

     #   Z          covCN         q      C6AA      α(0)
     1   6 C        3.761    -0.107    22.593     6.776
     2   6 C        3.903     0.026    20.085     6.370
     3   6 C        3.762    -0.105    22.552     6.770
     4   6 C        3.762    -0.105    22.553     6.770
     5   6 C        2.972    -0.000    28.030     8.684
     6   6 C        2.927    -0.036    28.899     8.816
     7   6 C        2.921    -0.051    29.255     8.870
     8   6 C        2.924     0.061    26.628     8.462
     9   7 N        2.752    -0.074    22.684     7.074
    10   6 C        2.924     0.065    26.546     8.449
    11   6 C        2.921    -0.048    29.184     8.859
    12   6 C        2.923    -0.031    28.769     8.796
    13   6 C        2.976    -0.000    28.028     8.684
    14   6 C        2.978     0.007    27.868     8.659
    15   6 C        2.928    -0.067    29.673     8.933
    16   6 C        2.900     0.061    26.622     8.460
    17   7 N        2.639    -0.286    27.374     7.770
    18   6 C        2.900     0.055    26.769     8.483
    19   7 N        2.638    -0.295    27.611     7.804
    20   6 C        2.933    -0.056    29.386     8.890
    21   6 C        2.975    -0.005    28.134     8.700
    22   6 C        1.914     0.113    28.320     8.594
    23   7 N        0.911    -0.264    26.837     7.492
    24   6 C        2.924    -0.036    28.886     8.814
    25   6 C        2.921    -0.050    29.246     8.868
    26   6 C        2.925     0.060    26.653     8.466
    27   6 C        2.921    -0.050    29.247     8.869
    28   6 C        2.927    -0.036    28.897     8.816
    29   6 C        2.973     0.001    28.002     8.680
    30   6 C        3.903     0.026    20.085     6.370
    31   6 C        3.761    -0.108    22.606     6.778
    32   6 C        3.762    -0.105    22.556     6.770
    33   6 C        3.762    -0.105    22.552     6.770
    34   6 C        2.925    -0.039    28.971     8.827
    35   6 C        2.922    -0.050    29.230     8.866
    36   6 C        2.922    -0.050    29.253     8.870
    37   6 C        2.925    -0.040    28.994     8.830
    38   1 H        0.925     0.035     2.513     2.479
    39   1 H        0.925     0.036     2.508     2.477
    40   1 H        0.925     0.035     2.510     2.477
    41   1 H        0.925     0.033     2.543     2.494
    42   1 H        0.925     0.036     2.509     2.477
    43   1 H        0.925     0.036     2.504     2.474
    44   1 H        0.925     0.033     2.540     2.492
    45   1 H        0.925     0.036     2.507     2.476
    46   1 H        0.925     0.036     2.503     2.474
    47   1 H        0.926     0.028     2.608     2.526
    48   1 H        0.926     0.028     2.615     2.529
    49   1 H        0.926     0.035     2.517     2.481
    50   1 H        0.926     0.035     2.513     2.479
    51   1 H        0.926     0.030     2.587     2.515
    52   1 H        0.860     0.159     1.340     1.814
    53   1 H        0.860     0.166     1.295     1.782
    54   1 H        0.860     0.162     1.323     1.802
    55   1 H        0.860     0.157     1.355     1.823
    56   1 H        0.925     0.031     2.567     2.505
    57   1 H        0.926     0.030     2.588     2.516
    58   1 H        0.926     0.031     2.571     2.507
    59   1 H        0.926     0.028     2.615     2.529
    60   1 H        0.926     0.029     2.601     2.522
    61   1 H        0.925     0.038     2.482     2.464
    62   1 H        0.925     0.035     2.514     2.479
    63   1 H        0.925     0.036     2.506     2.476
    64   1 H        0.925     0.035     2.512     2.478
    65   1 H        0.925     0.034     2.529     2.487
    66   1 H        0.925     0.036     2.502     2.474
    67   1 H        0.925     0.035     2.511     2.478
    68   1 H        0.925     0.036     2.503     2.474
    69   1 H        0.925     0.033     2.544     2.494
    70   1 H        0.926     0.040     2.447     2.446
    71   1 H        0.926     0.033     2.542     2.493
    72   1 H        0.926     0.030     2.586     2.515
    73   1 H        0.926     0.036     2.498     2.472

molecular dipole:
                 x           y           z       tot (Debye)
 q only:        0.870      -1.494       0.322
   full:        1.175      -1.895       0.404       5.760

 projected vibrational frequencies (cm⁻¹)
eigval :       -0.00    -0.00    -0.00    -0.00     0.00     0.00
eigval :       16.39    16.98    20.29    24.71    25.30    29.12
eigval :       48.83    54.35    63.43    71.42    88.47    98.00
eigval :      105.87   109.65   135.76   148.39   163.49   170.11
eigval :      171.65   179.58   188.45   211.51   222.41   223.15
eigval :      228.60   237.95   253.64   269.80   271.38   283.44
eigval :      285.81   311.83   314.73   315.46   318.79   340.99
eigval :      347.25   357.44   371.14   372.20   383.59   383.86
eigval :      389.93   392.58   396.70   403.95   415.33   417.76
eigval :      434.03   435.36   448.65   456.42   460.37   468.14
eigval :      498.09   526.15   529.24   537.90   557.86   566.84
eigval :      593.83   599.82   607.49   608.05   610.85   623.64
eigval :      654.30   673.99   686.02   690.70   691.55   710.55
eigval :      718.36   726.22   761.39   766.61   812.32   815.83
eigval :      817.28   844.46   850.34   862.20   869.51   870.26
eigval :      872.86   876.50   882.91   914.37   916.16   917.95
eigval :      923.90   926.57   927.94   930.01   934.30   960.24
eigval :      960.33   962.80   962.94   962.99   963.11   987.52
eigval :     1013.73  1026.55  1035.20  1035.66  1035.69  1035.87
eigval :     1039.32  1049.44  1062.89  1144.18  1145.34  1146.10
eigval :     1154.12  1155.22  1175.42  1191.11  1202.23  1211.40
eigval :     1215.14  1227.77  1227.78  1228.07  1234.48  1234.59
eigval :     1250.61  1263.85  1272.66  1279.69  1283.13  1286.23
eigval :     1292.80  1314.55  1324.16  1326.40  1328.05  1335.38
eigval :     1337.66  1387.18  1398.95  1402.89  1405.42  1405.59
eigval :     1407.05  1412.60  1417.99  1424.59  1429.29  1429.35
eigval :     1485.87  1488.79  1490.32  1492.25  1492.26  1495.11
eigval :     1495.19  1502.98  1503.28  1503.38  1506.90  1507.14
eigval :     1509.59  1514.35  1514.60  1520.00  1520.18  1529.71
eigval :     1546.18  1556.11  1565.99  1569.81  1591.44  1599.80
eigval :     1603.87  1607.33  2358.59  3021.38  3021.40  3022.64
eigval :     3022.67  3027.16  3027.68  3029.74  3030.10  3031.09
eigval :     3031.66  3036.03  3036.72  3038.47  3039.25  3045.84
eigval :     3046.31  3049.23  3049.65  3071.62  3074.49  3074.59
eigval :     3075.02  3075.35  3081.81  3083.46  3085.14  3086.88
eigval :     3087.84  3088.09  3096.06  3112.82  3117.07  3427.66
eigval :     3437.50  3473.59  3485.50

   temp. (K)  partition function   enthalpy   heat capacity  entropy
                                   cal/mol     cal/K/mol   cal/K/mol   J/K/mol
 298.15  VIB  0.930E+16            21179.530    130.630    130.224
         ROT  0.602E+08              888.752      2.981     38.578
         INT  0.559E+24            22068.282    133.611    168.802
         TR   0.105E+29             1481.254      4.968     44.427
         TOT                       23549.5360   138.5787   213.2284   892.1478

       T/K    H(0)-H(T)+PV         H(T)/Eh          T*S/Eh         G(T)/Eh
   ------------------------------------------------------------------------
    298.15    0.375286E-01    0.639364E+00    0.101312E+00    0.538053E+00
   ------------------------------------------------------------------------

         :::::::::::::::::::::::::::::::::::::::::::::::::::::
         ::                  THERMODYNAMIC                  ::
         :::::::::::::::::::::::::::::::::::::::::::::::::::::
         :: total free energy        -100.177089011683 Eh   ::
         ::.................................................::
         :: total energy             -100.715141651874 Eh   ::
         :: zero point energy           0.601835776832 Eh   ::
         :: G(RRHO) w/o ZPVE           -0.063783136641 Eh   ::
         :: G(RRHO) contrib.            0.538052640191 Eh   ::
         :::::::::::::::::::::::::::::::::::::::::::::::::::::

           -------------------------------------------------
          | TOTAL ENERGY             -100.715141651874 Eh   |
          | TOTAL ENTHALPY           -100.075777300608 Eh   |
          | TOTAL FREE ENERGY        -100.177089011683 Eh   |
          | GRADIENT NORM               0.000086583726 Eh/α |
          | HOMO-LUMO GAP               2.381671132548 eV   |
           -------------------------------------------------

 * finished run on 2025/09/04 at 18:40:18.134
