   * xtb version 6.7.1 (edcfbbe) compiled by 'albert@albert-system' on 2024-07-22

   ID    Z sym.   atoms
    1    6 C      1-6, 8-13, 15-19, 21-24, 26-31, 33-40, 42-46, 48-53, 55-64
    2    8 O      7, 32, 54
    3    7 N      14, 20, 25, 41, 47
    4    1 H      65-99

          program call               : xtb data2507/gas/DBQ-3PXZ/DBQ-3PXZ.xyz --gfn 2 --ohess vtight --parallel 40 --molden --ceasefiles --namespace data2507/gas/DBQ-3PXZ/DBQ-3PXZ_gas_S0_preOpt
          :  Hamiltonian                  GFN2-xTB          :
 * total energy  :  -164.6385068 Eh     change       -0.4845845E-08 Eh
 * total energy  :  -164.6563133 Eh     change       -0.1780656E-01 Eh
 * total energy  :  -164.6630173 Eh     change       -0.6703964E-02 Eh
 * total energy  :  -164.6653663 Eh     change       -0.2349011E-02 Eh
 * total energy  :  -164.6676939 Eh     change       -0.2327593E-02 Eh
 * total energy  :  -164.6691384 Eh     change       -0.1444477E-02 Eh
 * total energy  :  -164.6700733 Eh     change       -0.9348677E-03 Eh
 * total energy  :  -164.6707155 Eh     change       -0.6422034E-03 Eh
 * total energy  :  -164.6712396 Eh     change       -0.5241141E-03 Eh
 * total energy  :  -164.6717821 Eh     change       -0.5424709E-03 Eh
 * total energy  :  -164.6743524 Eh     change       -0.3575499E-06 Eh
 * total energy  :  -164.6743527 Eh     change       -0.3184615E-06 Eh
 * total energy  :  -164.6743530 Eh     change       -0.3174581E-06 Eh
 * total energy  :  -164.6743534 Eh     change       -0.3484094E-06 Eh
 * total energy  :  -164.6743537 Eh     change       -0.3759378E-06 Eh
 * total energy  :  -164.6743541 Eh     change       -0.3651732E-06 Eh
 * total energy  :  -164.6743544 Eh     change       -0.3160637E-06 Eh
 * total energy  :  -164.6743547 Eh     change       -0.2569160E-06 Eh
 * total energy  :  -164.6743547 Eh     change       -0.1469942E-08 Eh
   *** GEOMETRY OPTIMIZATION CONVERGED AFTER 94 ITERATIONS ***

 final structure:
================
99
 xtb: 6.7.1 (edcfbbe)
C            7.27078461180340       -0.20040351071507        1.21024300460895
C            5.93252744802481        0.12073617758228        1.30452470139597
C            4.96322961653098       -0.81869551576632        0.98746476604897
C            5.32013722816176       -2.09212584022027        0.56307144912700
C            6.68074976257102       -2.42109802361760        0.50873165431207
C            7.64287220673147       -1.47881593661007        0.82012969437961
O            7.11970391476067       -3.67549931303857        0.16316609344412
C            6.16747615933721       -4.63459039851787       -0.08384738902909
C            6.61993706875292       -5.90682383113255       -0.37788446751852
C            5.71888777001560       -6.92021277597562       -0.67209989177069
C            4.36657419275734       -6.64655422854660       -0.68340660417632
C            3.90630103633726       -5.37258327577212       -0.38577219813742
C            4.79424788316216       -4.35463401209971       -0.06374595263775
N            4.36787107250477       -3.06058894225817        0.23756196145284
C            3.00224855468221       -2.70974965583676        0.19533487977318
C            2.09743875325910       -3.25158475030096        1.10300515797603
C            0.77878187625732       -2.84310755636021        1.08931517127099
C            0.34605181820352       -1.87711705961738        0.18389940850057
C           -1.03133067024496       -1.37986551685207        0.25381384524069
N           -1.98640563761824       -2.25497886948326        0.45875306447739
C           -3.26282826172449       -1.83370601753040        0.42783481534189
C           -4.31704447031144       -2.74039621859209        0.65715937206924
C           -5.61070136618187       -2.32319950169709        0.53592836608456
C           -5.91389907216734       -0.98765217330291        0.18343129114802
N           -7.26286619643831       -0.61179977102114        0.04078981498150
C           -8.14009961187138       -0.72382076257225        1.12317916897823
C           -7.70402620276412       -1.07333603444007        2.39531530292315
C           -8.59926569046401       -1.17890173706955        3.44881826110318
C           -9.94093783900653       -0.92163245776078        3.25284463549070
C          -10.38612521724593       -0.53294420839942        1.99814683245478
C           -9.49737776378804       -0.42621768592902        0.94445288660458
O          -10.00508351478997       -0.00519326981789       -0.25816597343681
C           -9.12454521180732        0.14295484514205       -1.30040427396113
C           -9.64962147266434        0.58903646822669       -2.49929386861344
C           -8.83493091035354        0.72901396586785       -3.61247708066035
C           -7.49709699101077        0.40379620041314       -3.51896734634319
C           -6.96471744623028       -0.03929853938902       -2.31788231184296
C           -7.76040781102449       -0.15738253335413       -1.18536015287341
C           -4.90401131533119       -0.07688781450949       -0.02241467541121
C           -3.56534795867601       -0.48066413270280        0.10773574944970
N           -2.57407362460228        0.42471204430778       -0.01268684592831
C           -1.33494653585533        0.01531357328317        0.10331911345629
C           -0.27604458247233        1.02958389841757        0.07567285188454
C           -0.34190383994986        2.07162655426475       -0.84613991284812
C            0.69443448816613        2.97707592031505       -0.95670245527383
C            1.80861744729180        2.86203551548007       -0.13125896962209
N            2.90975300582500        3.73168185274871       -0.27652992122330
C            4.14060107020269        3.22309218651382       -0.69712556682266
C            4.29244403629179        1.90672746699361       -1.11329243896536
C            5.52786995548542        1.43173304163937       -1.52646276642223
C            6.62648092138305        2.26591753895319       -1.53748738368301
C            6.48361963423144        3.59233492142433       -1.15642368275265
C            5.25311132143236        4.07281418787940       -0.74956681592679
O            5.17706778530897        5.40342496906721       -0.41896677688297
C            3.94353497579084        5.90198738375736       -0.07612577473574
C            3.86830675772137        7.25332182271632        0.20312445149371
C            2.66338667295446        7.82268535396448        0.58969976964514
C            1.54160704580112        7.02799945915573        0.70747448784474
C            1.61004167601160        5.67189555200345        0.42504158660529
C            2.80263048454825        5.09266565563279        0.01213127670487
C            1.84636802727960        1.86388163573180        0.83950389959549
C            0.81411964112744        0.95670906632402        0.94314243394359
C            1.24317967503163       -1.38314232828122       -0.76361394682227
C            2.55815103100272       -1.79533114245629       -0.75688112718735
H            8.02777015127304        0.53041694759328        1.44579449778547
H            5.63140724217405        1.10658489451350        1.62315964610701
H            3.91883026539267       -0.56093270052688        1.06906491167726
H            8.67986774091407       -1.76719107323096        0.75534911780462
H            7.68369459779107       -6.08314097440374       -0.37926889321231
H            6.08180813355081       -7.91004097886195       -0.89952199484538
H            3.65468222307467       -7.42005791100088       -0.92733950622275
H            2.84788133574287       -5.16598447244500       -0.41447407808467
H            2.43935967978556       -3.97524637750961        1.82804268106518
H            0.07230334947453       -3.24368689794571        1.79991407843828
H           -4.07120727769411       -3.76119476444321        0.90423154896257
H           -6.42721470417439       -3.01392727611999        0.68743939204347
H           -6.65505118644121       -1.25766737829152        2.56728591449956
H           -8.23355830081443       -1.45947102285305        4.42452262582333
H          -10.64212539234206       -1.00660926968284        4.06783869486040
H          -11.42359270428148       -0.30273010816756        1.81590310196924
H          -10.70325095155196        0.81418707174379       -2.54127059158316
H           -9.25292274956027        1.07933626026465       -4.54286794317270
H           -6.85274182219087        0.48828445828068       -4.38045639743203
H           -5.92085443186841       -0.30523422465078       -2.26701701604502
H           -5.11526054492885        0.95220387832432       -0.26848377325582
H           -1.20276186241315        2.14041868527560       -1.49319162062735
H            0.65782963357094        3.76435981927654       -1.69501814128144
H            3.43719166856472        1.24914800589128       -1.11271362170565
H            5.62371946781405        0.40290072465775       -1.83697912901474
H            7.59114884266513        1.89774097956526       -1.84807480525945
H            7.31836755290384        4.27471671907801       -1.17250732097526
H            4.76711708147248        7.84311202736410        0.11972718925842
H            2.61470902001967        8.87839940358634        0.80484674684893
H            0.60155716765522        7.45326573483328        1.02375718153540
H            0.73066569057387        5.05706260442007        0.53668660137003
H            2.69715105688255        1.80355368204535        1.50197825721944
H            0.84565946874333        0.19417760863847        1.70728639157700
H            0.90476202729316       -0.68402482989611       -1.51402285233872
H            3.25755211883076       -1.40695116158468       -1.48239854211208

          :  Hamiltonian                  GFN2-xTB          :
         :: gradient norm              0.000029246416 Eh/a0 ::
         :: HOMO-LUMO gap              1.078237042276 eV    ::
         :: SCC energy              -167.526439523862 Eh    ::
         :: -> dispersion             -0.152641243038 Eh    ::
         :: repulsion energy           2.852084842878 Eh    ::

    * Orbital Energies and Occupations

         #    Occupation            Energy/Eh            Energy/eV
      -------------------------------------------------------------
         1        2.0000           -0.7297422             -19.8573
       ...           ...                  ...                  ...
       139        2.0000           -0.4147835             -11.2868
       140        2.0000           -0.4123431             -11.2204
       141        2.0000           -0.4119385             -11.2094
       142        2.0000           -0.4103661             -11.1666
       143        2.0000           -0.4094970             -11.1430
       144        2.0000           -0.4008949             -10.9089
       145        2.0000           -0.3918889             -10.6638
       146        2.0000           -0.3902583             -10.6195
       147        2.0000           -0.3870308             -10.5316
       148        2.0000           -0.3598728              -9.7926
       149        2.0000           -0.3458047              -9.4098
       150        2.0000           -0.3425113              -9.3202
       151        2.0000           -0.3411014              -9.2818 (HOMO)
       152                         -0.3014769              -8.2036 (LUMO)
       153                         -0.2747908              -7.4774
       154                         -0.2458222              -6.6892
       155                         -0.2408642              -6.5542
       156                         -0.2400190              -6.5312
       157                         -0.2379273              -6.4743
       158                         -0.2374605              -6.4616
       159                         -0.2352474              -6.4014
       160                         -0.2345972              -6.3837
       161                         -0.2314036              -6.2968
       162                         -0.2289303              -6.2295
       ...                                ...                  ...
       291                          0.6869511              18.6929
      -------------------------------------------------------------
                  HL-Gap            0.0396245 Eh            1.0782 eV

     #   Z          covCN         q      C6AA      α(0)
     1   6 C        2.919    -0.040    28.984     8.828
     2   6 C        2.919    -0.036    28.889     8.814
     3   6 C        2.924    -0.059    29.459     8.901
     4   6 C        2.924     0.042    27.054     8.530
     5   6 C        2.883     0.124    25.270     8.241
     6   6 C        2.920    -0.056    29.396     8.891
     7   8 O        1.708    -0.256    18.239     5.766
     8   6 C        2.883     0.124    25.275     8.242
     9   6 C        2.920    -0.056    29.398     8.891
    10   6 C        2.919    -0.041    29.011     8.833
    11   6 C        2.919    -0.039    28.961     8.825
    12   6 C        2.923    -0.061    29.510     8.909
    13   6 C        2.922     0.043    27.044     8.528
    14   7 N        2.752    -0.072    22.638     7.067
    15   6 C        2.922     0.068    26.483     8.439
    16   6 C        2.920    -0.040    28.992     8.830
    17   6 C        2.925    -0.027    28.664     8.780
    18   6 C        2.980     0.005    27.909     8.666
    19   6 C        2.953     0.084    26.120     8.383
    20   7 N        1.849    -0.232    26.922     7.690
    21   6 C        2.966     0.077    26.287     8.410
    22   6 C        2.916    -0.040    28.989     8.829
    23   6 C        2.919    -0.039    28.963     8.825
    24   6 C        2.918     0.067    26.496     8.441
    25   7 N        2.752    -0.067    22.545     7.052
    26   6 C        2.923     0.042    27.052     8.529
    27   6 C        2.924    -0.059    29.462     8.901
    28   6 C        2.919    -0.038    28.957     8.824
    29   6 C        2.919    -0.039    28.978     8.828
    30   6 C        2.920    -0.056    29.390     8.890
    31   6 C        2.884     0.125    25.248     8.238
    32   8 O        1.709    -0.253    18.195     5.759
    33   6 C        2.885     0.125    25.250     8.238
    34   6 C        2.920    -0.056    29.382     8.889
    35   6 C        2.919    -0.039    28.980     8.828
    36   6 C        2.919    -0.038    28.944     8.822
    37   6 C        2.924    -0.059    29.474     8.903
    38   6 C        2.921     0.042    27.054     8.530
    39   6 C        2.920    -0.056    29.381     8.889
    40   6 C        2.965     0.079    26.241     8.402
    41   7 N        1.850    -0.234    26.979     7.698
    42   6 C        2.953     0.087    26.063     8.373
    43   6 C        2.980     0.005    27.907     8.665
    44   6 C        2.925    -0.026    28.656     8.779
    45   6 C        2.920    -0.040    28.989     8.829
    46   6 C        2.922     0.068    26.476     8.438
    47   7 N        2.752    -0.072    22.639     7.067
    48   6 C        2.924     0.042    27.054     8.530
    49   6 C        2.924    -0.059    29.460     8.901
    50   6 C        2.919    -0.036    28.889     8.814
    51   6 C        2.919    -0.040    28.984     8.828
    52   6 C        2.920    -0.056    29.395     8.891
    53   6 C        2.883     0.124    25.269     8.241
    54   8 O        1.708    -0.256    18.239     5.766
    55   6 C        2.883     0.124    25.275     8.242
    56   6 C        2.920    -0.056    29.398     8.891
    57   6 C        2.919    -0.041    29.010     8.832
    58   6 C        2.919    -0.039    28.960     8.825
    59   6 C        2.923    -0.061    29.509     8.908
    60   6 C        2.922     0.043    27.044     8.528
    61   6 C        2.921    -0.039    28.976     8.827
    62   6 C        2.922    -0.030    28.743     8.792
    63   6 C        2.922    -0.030    28.751     8.793
    64   6 C        2.921    -0.039    28.978     8.828
    65   1 H        0.926     0.038     2.471     2.458
    66   1 H        0.926     0.031     2.575     2.509
    67   1 H        0.926     0.030     2.582     2.513
    68   1 H        0.926     0.051     2.311     2.377
    69   1 H        0.926     0.050     2.320     2.382
    70   1 H        0.926     0.038     2.482     2.463
    71   1 H        0.926     0.036     2.506     2.476
    72   1 H        0.926     0.035     2.516     2.481
    73   1 H        0.926     0.046     2.365     2.405
    74   1 H        0.926     0.053     2.280     2.361
    75   1 H        0.926     0.058     2.222     2.331
    76   1 H        0.926     0.049     2.335     2.390
    77   1 H        0.926     0.035     2.522     2.483
    78   1 H        0.926     0.037     2.491     2.468
    79   1 H        0.926     0.039     2.459     2.452
    80   1 H        0.926     0.051     2.302     2.373
    81   1 H        0.926     0.052     2.301     2.372
    82   1 H        0.926     0.039     2.459     2.452
    83   1 H        0.926     0.037     2.488     2.466
    84   1 H        0.926     0.036     2.504     2.474
    85   1 H        0.926     0.060     2.198     2.318
    86   1 H        0.926     0.054     2.275     2.359
    87   1 H        0.926     0.047     2.361     2.403
    88   1 H        0.926     0.030     2.582     2.513
    89   1 H        0.926     0.031     2.575     2.510
    90   1 H        0.926     0.038     2.471     2.458
    91   1 H        0.926     0.051     2.310     2.377
    92   1 H        0.926     0.050     2.320     2.382
    93   1 H        0.926     0.038     2.480     2.463
    94   1 H        0.926     0.036     2.504     2.475
    95   1 H        0.926     0.035     2.517     2.481
    96   1 H        0.926     0.043     2.410     2.428
    97   1 H        0.926     0.034     2.525     2.485
    98   1 H        0.926     0.034     2.532     2.488
    99   1 H        0.926     0.043     2.413     2.429

molecular dipole:
                 x           y           z       tot (Debye)
 q only:       -0.480      -0.282       0.076
   full:       -0.561      -0.355       0.093       1.705

 projected vibrational frequencies (cm⁻¹)
eigval :       -0.00    -0.00    -0.00    -0.00     0.00     0.00
eigval :        9.12    10.71    11.50    12.79    16.21    26.69
eigval :       27.04    27.81    35.76    40.84    48.28    49.86
eigval :       60.92    63.87    68.98    76.78    77.23    89.85
eigval :       99.40   112.96   116.53   120.54   126.61   138.76
eigval :      154.88   170.07   186.82   196.07   198.23   210.05
eigval :      224.42   246.11   247.55   251.00   253.99   254.63
eigval :      261.93   266.38   273.84   281.06   295.23   303.45
eigval :      326.67   352.42   360.77   370.71   375.30   380.28
eigval :      380.76   387.37   390.51   396.58   398.64   407.04
eigval :      414.79   419.13   425.84   428.66   429.41   429.78
eigval :      431.60   441.13   444.99   445.52   452.61   461.05
eigval :      492.38   507.33   509.81   510.86   510.88   517.40
eigval :      522.26   522.48   523.81   538.32   549.77   551.36
eigval :      556.88   571.33   577.04   585.01   589.08   594.39
eigval :      602.44   607.13   616.43   619.61   628.04   630.45
eigval :      656.69   659.53   660.22   660.79   660.90   661.79
eigval :      663.56   671.77   677.30   683.89   700.60   711.43
eigval :      717.70   732.10   763.29   776.87   778.17   778.58
eigval :      778.97   778.98   779.38   791.50   801.28   802.99
eigval :      818.37   819.23   826.33   840.53   854.17   854.70
eigval :      855.75   855.85   860.59   863.11   863.95   864.34
eigval :      866.17   866.30   874.17   874.42   886.24   895.36
eigval :      896.30   897.30   897.52   897.54   900.87   907.61
eigval :      913.22   913.45   914.16   914.24   914.42   916.08
eigval :      916.73   917.54   917.95   918.80   923.24   924.44
eigval :      927.22   930.31   931.48   975.03   987.85  1010.66
eigval :     1032.36  1089.99  1090.04  1090.11  1090.83  1091.55
eigval :     1091.86  1096.43  1107.93  1108.16  1108.85  1115.14
eigval :     1120.60  1121.66  1130.90  1131.60  1145.09  1164.62
eigval :     1171.38  1172.17  1175.59  1176.22  1176.29  1182.50
eigval :     1183.51  1184.01  1190.03  1192.24  1198.95  1200.83
eigval :     1201.01  1202.57  1217.80  1223.01  1224.03  1240.87
eigval :     1243.26  1243.64  1247.09  1261.81  1261.92  1262.78
eigval :     1263.16  1263.92  1266.87  1281.98  1294.02  1309.76
eigval :     1309.85  1310.69  1311.82  1314.00  1315.14  1318.96
eigval :     1332.68  1339.77  1340.88  1342.67  1351.22  1357.28
eigval :     1358.06  1385.69  1400.54  1402.32  1409.57  1422.35
eigval :     1425.03  1425.15  1438.71  1443.54  1443.80  1445.10
eigval :     1472.17  1484.55  1486.91  1487.33  1488.19  1491.51
eigval :     1502.34  1506.95  1507.29  1511.18  1528.65  1556.88
eigval :     1557.40  1567.72  1567.83  1567.89  1580.25  1581.34
eigval :     1581.42  1586.76  1588.45  1589.53  1591.53  1592.63
eigval :     1595.18  1602.98  1604.20  1604.24  3081.11  3082.00
eigval :     3086.83  3087.82  3087.98  3088.84  3088.99  3089.28
eigval :     3089.56  3089.62  3089.91  3093.40  3093.60  3098.58
eigval :     3098.61  3098.65  3098.73  3100.17  3100.51  3102.05
eigval :     3102.26  3102.72  3104.15  3104.86  3105.41  3105.47
eigval :     3105.79  3106.21  3108.14  3112.81  3112.89  3113.50
eigval :     3113.60  3113.82  3114.06

   temp. (K)  partition function   enthalpy   heat capacity  entropy
                                   cal/mol     cal/K/mol   cal/K/mol   J/K/mol
 298.15  VIB  0.254E+24            29194.408    185.084    181.521
         ROT  0.239E+09              888.752      2.981     41.315
         INT  0.605E+32            30083.161    188.065    222.836
         TR   0.230E+29             1481.254      4.968     45.991
         TOT                       31564.4147   193.0331   268.8268  1124.7713

       T/K    H(0)-H(T)+PV         H(T)/Eh          T*S/Eh         G(T)/Eh
   ------------------------------------------------------------------------
    298.15    0.503011E-01    0.791443E+00    0.127728E+00    0.663715E+00
   ------------------------------------------------------------------------

         :::::::::::::::::::::::::::::::::::::::::::::::::::::
         ::                  THERMODYNAMIC                  ::
         :::::::::::::::::::::::::::::::::::::::::::::::::::::
         :: total free energy        -164.010640054718 Eh   ::
         ::.................................................::
         :: total energy             -164.674354680983 Eh   ::
         :: zero point energy           0.741141812057 Eh   ::
         :: G(RRHO) w/o ZPVE           -0.077427185792 Eh   ::
         :: G(RRHO) contrib.            0.663714626265 Eh   ::
         :::::::::::::::::::::::::::::::::::::::::::::::::::::

           -------------------------------------------------
          | TOTAL ENERGY             -164.674354680983 Eh   |
          | TOTAL ENTHALPY           -163.882911772327 Eh   |
          | TOTAL FREE ENERGY        -164.010640054718 Eh   |
          | GRADIENT NORM               0.000029249446 Eh/α |
          | HOMO-LUMO GAP               1.078238053157 eV   |
           -------------------------------------------------

 * finished run on 2025/08/30 at 12:48:35.632
