   * xtb version 6.7.1 (edcfbbe) compiled by 'albert@albert-system' on 2024-07-22

   ID    Z sym.   atoms
    1    6 C      1-6, 8-13, 15-19, 21-24, 26-31, 33-40, 42-46, 48-53, 55-64
    2    8 O      7, 32, 54
    3    7 N      14, 20, 25, 41, 47
    4    1 H      65-99

          program call               : xtb data2507/gas/DBQ-3PXZ/DBQ-3PXZ_gas_S0_crest.xyz --gfn 2 --ohess vtight --parallel 40 --molden --ceasefiles --namespace data2507/gas/DBQ-3PXZ/DBQ-3PXZ_gas_S0_finalOpt
          :  Hamiltonian                  GFN2-xTB          :
 * total energy  :  -164.6756362 Eh     change       -0.3043482E-08 Eh
 * total energy  :  -164.6756394 Eh     change       -0.3240247E-05 Eh
 * total energy  :  -164.6756437 Eh     change       -0.4322357E-05 Eh
 * total energy  :  -164.6756524 Eh     change       -0.8710354E-05 Eh
 * total energy  :  -164.6756688 Eh     change       -0.1635033E-04 Eh
 * total energy  :  -164.6756893 Eh     change       -0.2055168E-04 Eh
 * total energy  :  -164.6757045 Eh     change       -0.1514256E-04 Eh
 * total energy  :  -164.6757152 Eh     change       -0.1071420E-04 Eh
 * total energy  :  -164.6757257 Eh     change       -0.1046687E-04 Eh
 * total energy  :  -164.6757385 Eh     change       -0.1279565E-04 Eh
 * total energy  :  -164.6759259 Eh     change       -0.7524924E-06 Eh
 * total energy  :  -164.6759266 Eh     change       -0.6387681E-06 Eh
 * total energy  :  -164.6759270 Eh     change       -0.4618748E-06 Eh
 * total energy  :  -164.6759274 Eh     change       -0.3501218E-06 Eh
 * total energy  :  -164.6759277 Eh     change       -0.3781284E-06 Eh
 * total energy  :  -164.6759282 Eh     change       -0.4323971E-06 Eh
 * total energy  :  -164.6759287 Eh     change       -0.5625670E-06 Eh
 * total energy  :  -164.6759294 Eh     change       -0.6655314E-06 Eh
 * total energy  :  -164.6759294 Eh     change       -0.6969600E-08 Eh
   *** GEOMETRY OPTIMIZATION CONVERGED AFTER 68 ITERATIONS ***

 final structure:
================
99
 xtb: 6.7.1 (edcfbbe)
C            6.45334128788608        1.34814784138353        1.81272142768131
C            5.08525833004401        1.36946607333099        1.98719940810407
C            4.32725042175359        0.23792209206379        1.72588308795262
C            4.92103573794152       -0.93651417482567        1.28381676101359
C            6.30719878166434       -0.93765057913821        1.08273459463121
C            7.06049244988125        0.18961692199338        1.35378755051579
O            6.98268255319697       -2.02860112251680        0.59930578088838
C            6.24277955639216       -3.13965642320121        0.28468452206138
C            6.92670739697866       -4.22399100138363       -0.23256759389146
C            6.25325898119334       -5.39858947022362       -0.53445649639093
C            4.89666687778710       -5.48545157484347       -0.29607500207760
C            4.20513563526984       -4.39861886906204        0.21695126097984
C            4.85869445686823       -3.20347277976034        0.48966829381524
N            4.18459909409654       -2.09722235934937        1.01256068802019
C            2.77489519783259       -2.04090227888964        0.98063837851053
C            2.04940847308748       -1.78512722634272        2.14021972394121
C            0.68214174382478       -1.58533137614841        2.07913960350027
C            0.02299383665714       -1.62853883965432        0.85741314793627
C           -1.36993978295429       -1.17136984618484        0.70361800426995
N           -2.37493841483568       -1.86069049659235        1.16783574597773
C           -3.62041990904466       -1.40907088145528        0.90897332542984
C           -4.73911999051415       -2.11370394063740        1.39426731937791
C           -5.99881902222858       -1.68549153576668        1.08874441474366
C           -6.20156054883605       -0.53986285992596        0.28646128692350
N           -7.51870588042049       -0.13017644115000        0.00613447842807
C           -7.99508372279806        1.11470964057158        0.43244601511266
C           -7.20585946830923        2.01771941296728        1.13326826785915
C           -7.71783137802763        3.23733005279486        1.54909481998459
C           -9.02900161704815        3.57298773803389        1.28008265333865
C           -9.83890509448639        2.67103130229724        0.60700527793518
C           -9.33434088038770        1.45172612112593        0.19385178475241
O          -10.21127604137915        0.60129170325860       -0.43202425239341
C           -9.72281293307843       -0.60447921200335       -0.86639719411825
C          -10.60485342337480       -1.43653532768805       -1.53063111407324
C          -10.17587685222585       -2.65857501956182       -2.02681747406887
C           -8.85549570976572       -3.02935119107160       -1.87294656971393
C           -7.96703638789891       -2.19845910045157       -1.20745200477323
C           -8.38985553517685       -0.98863096893044       -0.67072836481021
C           -5.12525664385634        0.16864304475920       -0.19585616732516
C           -3.82111996962834       -0.24303514583676        0.12062652349850
N           -2.76627779654172        0.48919604258843       -0.30623590869560
C           -1.57192385785868        0.06204718764790       -0.00838529754249
C           -0.36270778209902        0.83366358689197       -0.34985490019003
C            0.11388125596267        0.92149132610595       -1.65130910047129
C            1.37293006975245        1.43823452487063       -1.89867885461140
C            2.16926960915578        1.88300776700600       -0.84778642163986
N            3.50705853893230        2.27198166662526       -1.07284660020823
C            4.45555775189622        1.31425209125283       -1.45597699169903
C            4.10419796825597        0.02654635187512       -1.83757199497032
C            5.06786344018001       -0.89806999205047       -2.21135775026273
C            6.40311405711387       -0.55218149627712       -2.21252509371046
C            6.77325960139408        0.72387576789852       -1.81753439001217
C            5.81633808570774        1.64567703054445       -1.43508208194106
O            6.27198802506097        2.87273000091868       -1.02675175427283
C            5.33755970728925        3.78389251982016       -0.60571811802295
C            5.80691771267094        5.00860064481688       -0.16868936110646
C            4.91988251596144        5.99674159083211        0.23252249335307
C            3.56205238053689        5.75669594152295        0.17363760224493
C            3.08657175330009        4.52796483378838       -0.25845134847209
C            3.96309867015489        3.51563245968941       -0.62836594856385
C            1.64368874521179        1.90124232728174        0.44207862554860
C            0.39727926327673        1.36846188985658        0.68794815990234
C            0.73678417540863       -1.98023147902364       -0.28602004680768
C            2.09553947278058       -2.19910769737660       -0.22498777477706
H            7.04772272883205        2.22470204134989        2.01557536291078
H            4.59601957519661        2.27019998746344        2.32841354420881
H            3.25776765803362        0.27136221943073        1.85528336328542
H            8.12443528261351        0.14194085684410        1.18716106803573
H            7.98991538130950       -4.13087694231574       -0.38619871698127
H            6.79521915542599       -6.23831361877591       -0.94003710557538
H            4.36288899710154       -6.40021120082787       -0.50340458775077
H            3.14756465401973       -4.48154011773929        0.41473214513165
H            2.56615270824270       -1.72204202164950        3.08639464349749
H            0.12604839331120       -1.36210547020506        2.97739269457709
H           -4.56870866650533       -2.98562502861716        2.00594065376211
H           -6.86415440112081       -2.21130447789769        1.46480449722702
H           -6.18368385540213        1.76552902129304        1.36648076552064
H           -7.07848130520596        3.91949710803453        2.08787029618279
H           -9.43064913461702        4.52248962949126        1.59661859200417
H          -10.87340176310438        2.89127555370609        0.39747048799084
H          -11.62407336001350       -1.10656254404802       -1.65252766692217
H          -10.87203398706979       -3.30302952944199       -2.53979671182319
H           -8.50087495789023       -3.96660882282531       -2.27325905360394
H           -6.93336916137089       -2.49216116665112       -1.11134981863031
H           -5.25700107699510        1.04350209296157       -0.81341295238359
H           -0.49109379860602        0.55407076592098       -2.46673952159797
H            1.75415043692162        1.48004103513684       -2.90821018532586
H            3.06534065339418       -0.26024980843360       -1.82989263966045
H            4.76538083444047       -1.89374906895571       -2.50157292549679
H            7.15658659471982       -1.26690278014105       -2.50279499202198
H            7.80819135788201        1.02392144917671       -1.78766301041613
H            6.87272554528637        5.17157755673397       -0.15563230992979
H            5.29583945920078        6.94811207213724        0.57444357732282
H            2.85866383920477        6.52351624851147        0.45982191592892
H            2.02292804541896        4.35529997170919       -0.31588529526968
H            2.23150538854272        2.30739876297192        1.25074107797978
H            0.01242708421843        1.34608062349122        1.69718567857543
H            0.22148623138649       -2.06224059897121       -1.23200549317699
H            2.64522114050932       -2.46392842742884       -1.11497017676966

          :  Hamiltonian                  GFN2-xTB          :
         :: gradient norm              0.000057489271 Eh/a0 ::
         :: HOMO-LUMO gap              1.123239087824 eV    ::
         :: SCC energy              -167.528811344494 Eh    ::
         :: -> dispersion             -0.165791421789 Eh    ::
         :: repulsion energy           2.852881929659 Eh    ::

    * Orbital Energies and Occupations

         #    Occupation            Energy/Eh            Energy/eV
      -------------------------------------------------------------
         1        2.0000           -0.7295323             -19.8516
       ...           ...                  ...                  ...
       139        2.0000           -0.4143189             -11.2742
       140        2.0000           -0.4135968             -11.2545
       141        2.0000           -0.4127353             -11.2311
       142        2.0000           -0.4120290             -11.2119
       143        2.0000           -0.4085700             -11.1178
       144        2.0000           -0.4049041             -11.0180
       145        2.0000           -0.3917899             -10.6611
       146        2.0000           -0.3890536             -10.5867
       147        2.0000           -0.3865797             -10.5194
       148        2.0000           -0.3606399              -9.8135
       149        2.0000           -0.3457569              -9.4085
       150        2.0000           -0.3416909              -9.2979
       151        2.0000           -0.3409717              -9.2783 (HOMO)
       152                         -0.2996935              -8.1551 (LUMO)
       153                         -0.2635318              -7.1711
       154                         -0.2453321              -6.6758
       155                         -0.2424335              -6.5970
       156                         -0.2409732              -6.5572
       157                         -0.2399658              -6.5298
       158                         -0.2373650              -6.4590
       159                         -0.2368636              -6.4454
       160                         -0.2344290              -6.3791
       161                         -0.2313772              -6.2961
       162                         -0.2278489              -6.2001
       ...                                ...                  ...
       291                          0.6813086              18.5394
      -------------------------------------------------------------
                  HL-Gap            0.0412782 Eh            1.1232 eV

     #   Z          covCN         q      C6AA      α(0)
     1   6 C        2.919    -0.037    28.929     8.820
     2   6 C        2.919    -0.038    28.949     8.823
     3   6 C        2.925    -0.063    29.566     8.917
     4   6 C        2.923     0.042    27.069     8.532
     5   6 C        2.886     0.125    25.257     8.239
     6   6 C        2.921    -0.055    29.362     8.886
     7   8 O        1.709    -0.253    18.187     5.758
     8   6 C        2.885     0.125    25.246     8.238
     9   6 C        2.920    -0.056    29.400     8.892
    10   6 C        2.919    -0.041    29.008     8.832
    11   6 C        2.919    -0.039    28.980     8.828
    12   6 C        2.924    -0.059    29.473     8.903
    13   6 C        2.923     0.043    27.036     8.527
    14   7 N        2.750    -0.074    22.673     7.072
    15   6 C        2.922     0.066    26.520     8.445
    16   6 C        2.922    -0.041    29.021     8.834
    17   6 C        2.922    -0.028    28.702     8.786
    18   6 C        2.979     0.003    27.953     8.673
    19   6 C        2.964     0.088    26.034     8.369
    20   7 N        1.844    -0.226    26.794     7.671
    21   6 C        2.974     0.076    26.298     8.412
    22   6 C        2.916    -0.039    28.971     8.826
    23   6 C        2.919    -0.038    28.956     8.824
    24   6 C        2.918     0.068    26.481     8.439
    25   7 N        2.752    -0.068    22.557     7.054
    26   6 C        2.921     0.042    27.057     8.530
    27   6 C        2.924    -0.059    29.476     8.903
    28   6 C        2.919    -0.038    28.940     8.822
    29   6 C        2.919    -0.039    28.979     8.828
    30   6 C        2.920    -0.056    29.382     8.889
    31   6 C        2.885     0.125    25.251     8.238
    32   8 O        1.709    -0.253    18.197     5.759
    33   6 C        2.884     0.125    25.247     8.238
    34   6 C        2.920    -0.056    29.391     8.890
    35   6 C        2.919    -0.039    28.980     8.828
    36   6 C        2.919    -0.039    28.958     8.824
    37   6 C        2.924    -0.059    29.468     8.902
    38   6 C        2.923     0.042    27.055     8.530
    39   6 C        2.921    -0.055    29.365     8.886
    40   6 C        2.972     0.078    26.249     8.404
    41   7 N        1.844    -0.229    26.847     7.679
    42   6 C        2.963     0.091    25.979     8.360
    43   6 C        2.979     0.003    27.953     8.673
    44   6 C        2.922    -0.028    28.699     8.785
    45   6 C        2.922    -0.041    29.021     8.834
    46   6 C        2.922     0.066    26.518     8.445
    47   7 N        2.750    -0.074    22.676     7.072
    48   6 C        2.923     0.042    27.068     8.532
    49   6 C        2.925    -0.063    29.566     8.917
    50   6 C        2.919    -0.038    28.950     8.823
    51   6 C        2.919    -0.037    28.929     8.820
    52   6 C        2.921    -0.055    29.362     8.886
    53   6 C        2.886     0.125    25.257     8.239
    54   8 O        1.709    -0.253    18.186     5.758
    55   6 C        2.885     0.126    25.246     8.237
    56   6 C        2.920    -0.056    29.400     8.892
    57   6 C        2.919    -0.041    29.007     8.832
    58   6 C        2.919    -0.039    28.980     8.828
    59   6 C        2.924    -0.059    29.470     8.903
    60   6 C        2.923     0.043    27.037     8.527
    61   6 C        2.922    -0.041    29.014     8.833
    62   6 C        2.927    -0.031    28.776     8.797
    63   6 C        2.926    -0.031    28.780     8.798
    64   6 C        2.922    -0.041    29.016     8.833
    65   1 H        0.926     0.040     2.445     2.445
    66   1 H        0.926     0.028     2.612     2.527
    67   1 H        0.926     0.033     2.541     2.493
    68   1 H        0.926     0.052     2.294     2.369
    69   1 H        0.926     0.050     2.322     2.383
    70   1 H        0.926     0.038     2.478     2.462
    71   1 H        0.926     0.036     2.506     2.476
    72   1 H        0.926     0.035     2.519     2.482
    73   1 H        0.926     0.047     2.354     2.399
    74   1 H        0.926     0.043     2.413     2.429
    75   1 H        0.926     0.060     2.200     2.319
    76   1 H        0.926     0.050     2.322     2.383
    77   1 H        0.926     0.037     2.495     2.470
    78   1 H        0.926     0.037     2.483     2.464
    79   1 H        0.926     0.039     2.458     2.452
    80   1 H        0.926     0.052     2.301     2.372
    81   1 H        0.926     0.051     2.302     2.373
    82   1 H        0.926     0.039     2.460     2.452
    83   1 H        0.926     0.037     2.490     2.468
    84   1 H        0.926     0.034     2.527     2.486
    85   1 H        0.926     0.062     2.174     2.306
    86   1 H        0.926     0.043     2.412     2.428
    87   1 H        0.926     0.047     2.351     2.398
    88   1 H        0.926     0.033     2.538     2.491
    89   1 H        0.926     0.028     2.611     2.527
    90   1 H        0.926     0.040     2.446     2.445
    91   1 H        0.926     0.052     2.294     2.368
    92   1 H        0.926     0.050     2.322     2.383
    93   1 H        0.926     0.038     2.478     2.461
    94   1 H        0.926     0.036     2.505     2.475
    95   1 H        0.926     0.035     2.518     2.482
    96   1 H        0.926     0.046     2.370     2.407
    97   1 H        0.926     0.034     2.531     2.488
    98   1 H        0.926     0.034     2.531     2.488
    99   1 H        0.926     0.046     2.370     2.407

molecular dipole:
                 x           y           z       tot (Debye)
 q only:       -0.468      -0.212       0.147
   full:       -0.545      -0.270       0.185       1.617

 projected vibrational frequencies (cm⁻¹)
eigval :       -0.00    -0.00    -0.00     0.00     0.00     0.00
eigval :        8.72    11.46    17.00    20.30    23.35    27.13
eigval :       34.74    40.41    43.35    46.91    56.00    60.09
eigval :       65.90    71.42    74.02    80.31    92.26    97.65
eigval :      109.41   114.85   116.96   124.29   130.47   140.55
eigval :      150.74   171.20   192.14   195.64   202.09   208.28
eigval :      222.81   242.73   247.63   248.84   254.11   258.20
eigval :      263.76   269.16   277.15   281.15   297.61   311.02
eigval :      328.24   349.75   361.91   369.53   375.43   378.65
eigval :      383.32   388.70   393.74   396.47   397.73   408.68
eigval :      416.07   420.78   427.76   429.72   430.82   431.16
eigval :      434.99   443.74   449.22   454.33   455.18   458.79
eigval :      496.41   504.51   509.86   511.29   512.13   517.94
eigval :      524.04   525.18   525.86   532.60   550.34   553.55
eigval :      556.35   577.15   578.62   582.53   590.61   597.17
eigval :      601.58   607.91   614.64   621.38   628.22   632.52
eigval :      655.94   660.20   660.24   661.33   662.32   663.12
eigval :      663.52   671.56   683.51   687.58   700.28   707.68
eigval :      715.71   734.68   768.79   778.33   778.78   779.38
eigval :      779.99   781.22   781.68   791.09   802.30   804.05
eigval :      818.66   820.47   827.07   838.01   854.77   855.79
eigval :      856.07   856.32   859.96   863.16   863.56   866.21
eigval :      868.07   868.95   878.13   878.24   888.07   895.22
eigval :      897.59   898.23   898.59   899.25   901.55   905.59
eigval :      913.12   914.35   914.48   915.15   915.63   916.32
eigval :      917.05   917.21   917.66   917.72   927.51   928.03
eigval :      928.94   936.87   939.06   973.53   988.36  1009.84
eigval :     1033.31  1088.47  1089.79  1089.89  1090.62  1092.54
eigval :     1095.12  1095.77  1108.84  1108.98  1109.03  1114.90
eigval :     1121.57  1122.98  1129.25  1131.70  1144.44  1164.40
eigval :     1170.87  1171.44  1175.55  1176.08  1176.42  1183.05
eigval :     1183.69  1184.57  1192.47  1193.50  1198.27  1202.53
eigval :     1205.25  1205.33  1216.18  1218.15  1224.52  1229.93
eigval :     1244.43  1244.58  1244.65  1257.44  1262.20  1262.57
eigval :     1263.32  1267.15  1268.14  1273.74  1293.08  1304.54
eigval :     1307.22  1309.80  1311.06  1312.35  1312.78  1316.90
eigval :     1326.14  1337.97  1339.44  1339.86  1351.39  1356.40
eigval :     1356.90  1396.04  1399.54  1400.37  1401.03  1422.49
eigval :     1424.51  1424.95  1438.49  1443.63  1443.99  1445.51
eigval :     1472.57  1484.06  1487.24  1488.77  1490.58  1494.81
eigval :     1502.73  1506.25  1506.94  1536.27  1547.84  1558.53
eigval :     1558.81  1568.01  1569.04  1569.14  1580.43  1581.52
eigval :     1581.57  1589.89  1590.34  1591.22  1594.63  1595.10
eigval :     1599.21  1603.83  1604.65  1604.95  3077.48  3077.64
eigval :     3079.15  3080.11  3084.23  3084.50  3087.43  3087.70
eigval :     3087.77  3089.53  3090.44  3094.75  3095.08  3096.52
eigval :     3096.53  3098.54  3100.43  3101.23  3101.77  3102.26
eigval :     3102.29  3103.67  3103.79  3103.85  3105.08  3105.37
eigval :     3108.88  3112.38  3112.42  3113.50  3113.85  3114.08
eigval :     3115.64  3116.06  3117.10

   temp. (K)  partition function   enthalpy   heat capacity  entropy
                                   cal/mol     cal/K/mol   cal/K/mol   J/K/mol
 298.15  VIB  0.120E+23            28964.079    186.093    178.691
         ROT  0.191E+09              888.752      2.981     40.870
         INT  0.229E+31            29852.831    189.074    219.561
         TR   0.230E+29             1481.254      4.968     45.991
         TOT                       31334.0850   194.0424   265.5518  1111.0687

       T/K    H(0)-H(T)+PV         H(T)/Eh          T*S/Eh         G(T)/Eh
   ------------------------------------------------------------------------
    298.15    0.499340E-01    0.791761E+00    0.126172E+00    0.665589E+00
   ------------------------------------------------------------------------

         :::::::::::::::::::::::::::::::::::::::::::::::::::::
         ::                  THERMODYNAMIC                  ::
         :::::::::::::::::::::::::::::::::::::::::::::::::::::
         :: total free energy        -164.010340429777 Eh   ::
         ::.................................................::
         :: total energy             -164.675929414832 Eh   ::
         :: zero point energy           0.741827167241 Eh   ::
         :: G(RRHO) w/o ZPVE           -0.076238182186 Eh   ::
         :: G(RRHO) contrib.            0.665588985055 Eh   ::
         :::::::::::::::::::::::::::::::::::::::::::::::::::::

           -------------------------------------------------
          | TOTAL ENERGY             -164.675929414832 Eh   |
          | TOTAL ENTHALPY           -163.884168204700 Eh   |
          | TOTAL FREE ENERGY        -164.010340429777 Eh   |
          | GRADIENT NORM               0.000057484777 Eh/α |
          | HOMO-LUMO GAP               1.123236905169 eV   |
           -------------------------------------------------

 * finished run on 2025/08/30 at 12:55:29.925
