   * xtb version 6.7.1 (edcfbbe) compiled by 'albert@albert-system' on 2024-07-22

   ID    Z sym.   atoms
    1    6 C      1-6, 8-13, 15-19, 21-24, 26-31, 33-40, 42-46, 48-53, 55-64
    2    8 O      7, 32, 54
    3    7 N      14, 20, 25, 41, 47
    4    1 H      65-99

          program call               : xtb data2507/gas/DBQ-3PXZ/DBQ-3PXZ_gas_T1_crest.xyz --gfn 2 --spinpol --tblite --uhf 2 --ohess vtight --parallel 40 --molden --ceasefiles --namespace data2507/gas/DBQ-3PXZ/DBQ-3PXZ_gas_T1_finalOpt
 * total energy  :  -164.6262182 Eh     change       -0.3362902E-07 Eh
 * total energy  :  -164.6262469 Eh     change       -0.2874404E-04 Eh
 * total energy  :  -164.6262550 Eh     change       -0.8046778E-05 Eh
 * total energy  :  -164.6262580 Eh     change       -0.3051801E-05 Eh
 * total energy  :  -164.6262619 Eh     change       -0.3857456E-05 Eh
 * total energy  :  -164.6262649 Eh     change       -0.2966157E-05 Eh
 * total energy  :  -164.6262684 Eh     change       -0.3531957E-05 Eh
 * total energy  :  -164.6262707 Eh     change       -0.2260189E-05 Eh
 * total energy  :  -164.6262732 Eh     change       -0.2541042E-05 Eh
 * total energy  :  -164.6262754 Eh     change       -0.2167958E-05 Eh
 * total energy  :  -164.6263138 Eh     change       -0.2530515E-06 Eh
 * total energy  :  -164.6263137 Eh     change        0.1192313E-06 Eh
 * total energy  :  -164.6263139 Eh     change       -0.2307723E-06 Eh
 * total energy  :  -164.6263143 Eh     change       -0.3867443E-06 Eh
 * total energy  :  -164.6263148 Eh     change       -0.5084924E-06 Eh
 * total energy  :  -164.6263154 Eh     change       -0.5731893E-06 Eh
 * total energy  :  -164.6263159 Eh     change       -0.5635750E-06 Eh
 * total energy  :  -164.6263165 Eh     change       -0.5109811E-06 Eh
 * total energy  :  -164.6263165 Eh     change       -0.1577448E-07 Eh
   *** GEOMETRY OPTIMIZATION CONVERGED AFTER 44 ITERATIONS ***

 final structure:
================
99
 xtb: 6.7.1 (edcfbbe)
C            7.28014079109964       -0.37945979625782        1.29753113561112
C            5.94509992616948       -0.03860775579039        1.38502028620130
C            4.96431154147279       -0.95173001452729        1.03273325556322
C            5.30603676466832       -2.22066057713296        0.57958750215402
C            6.66325878003260       -2.56970536602232        0.52854636603404
C            7.63710081910981       -1.65171900583344        0.87601209903836
O            7.08414417700817       -3.81893939539541        0.14851831429471
C            6.12104375307004       -4.74555366494782       -0.16513416054911
C            6.55415387215041       -6.01005259780142       -0.51795155999087
C            5.63789895055614       -6.98832931447999       -0.87519605202652
C            4.28983297216698       -6.68874055917721       -0.88953123035136
C            3.84855639844551       -5.42381988770245       -0.53472650890701
C            4.75207471029262       -4.43970463898195       -0.15194878394754
N            4.34486568940149       -3.15975959159510        0.21265920412801
C            2.98232888736440       -2.78035751370743        0.16161388633966
C            2.05955671086889       -3.31314466244751        1.05525195376935
C            0.75033614442579       -2.87558626646615        1.03715340752077
C            0.34491031944725       -1.88605332116666        0.14163911064474
C           -1.01645134786186       -1.35883619190958        0.19510522156887
N           -2.02510656616015       -2.21497171595402        0.34418771698732
C           -3.29468176029048       -1.79906230035052        0.29827269450956
C           -4.36715479613099       -2.67387697642665        0.45973214167233
C           -5.67378862411038       -2.22671852357396        0.35099743329770
C           -5.93206993289490       -0.88912510146572        0.08630099005730
N           -7.27164308821573       -0.43850109284004       -0.03195095615666
C           -8.11238765334820       -0.43057093515559        1.07370578518669
C           -7.67196810217932       -0.79638456115070        2.34163574288925
C           -8.53746060100484       -0.77868809794417        3.42251790825868
C           -9.85364358967186       -0.38951237000825        3.25963083306060
C          -10.30365223431718        0.00009177926985        2.00734340988017
C           -9.44435410856567       -0.01323500164857        0.92383562693433
O           -9.94835743235031        0.40596779813146       -0.28002431086676
C           -9.09999390508969        0.40766795636693       -1.35686388727783
C           -9.61616657491326        0.83674465154674       -2.56597622774950
C           -8.82005832722729        0.84429290868235       -3.70121054830195
C           -7.51076075868941        0.40923646793998       -3.62073124857337
C           -6.98674537226175       -0.02091194671919       -2.41309802006881
C           -7.76481160738932       -0.01525648540036       -1.25980832398378
C           -4.88394663410096        0.01851980850112       -0.06171860502510
C           -3.56487096119104       -0.40501603394571        0.04251121274646
N           -2.53549865751719        0.44778647095651       -0.04701481354443
C           -1.28037344861496        0.01904424187012        0.06642100477750
C           -0.20139122622971        1.00388542875871        0.06153287852043
C           -0.21933334803716        2.06371407559392       -0.84519391131621
C            0.84200312514449        2.94355234152065       -0.91855457008393
C            1.93331029406936        2.78780694471577       -0.07074821591519
N            3.06386396295204        3.63245562511216       -0.18032857501992
C            4.28015402902299        3.10095990444249       -0.60262924073303
C            4.39661382343154        1.79254462477318       -1.05722306546524
C            5.62247384035225        1.29237194293476       -1.46594547144886
C            6.74818322677642        2.09104801593709       -1.43391171893202
C            6.64324915110367        3.40786014368654       -1.01104647847486
C            5.42192475363621        3.91508347100476       -0.60756801941785
O            5.38288583534680        5.23323447162808       -0.22919241355106
C            4.16706770994529        5.75181286565585        0.14162058714627
C            4.13283056566546        7.08807354248473        0.49399085775344
C            2.94412256456761        7.67172328207139        0.90699507910771
C            1.79614491355743        6.90722885762138        0.97687843652514
C            1.82278966886840        5.56762401880879        0.62264249176532
C            3.00062111457143        4.97386007888320        0.18519362553113
C            1.92455179406827        1.77762690821215        0.88770505373978
C            0.86724149324752        0.89819367726235        0.95621152815777
C            1.26246613917551       -1.40810312303603       -0.79793415275218
C            2.56738717880097       -1.84747718556983       -0.78529260577097
H            8.04553719942230        0.33250529589587        1.56180342168991
H            5.65733842140335        0.94359164034993        1.72638572577450
H            3.92315394342448       -0.68018949624845        1.10728796519942
H            8.67016022798454       -1.95432128136203        0.81381696221211
H            7.61413577126422       -6.20759959519634       -0.51294311351613
H            5.98473623090321       -7.97246148057190       -1.14773102946211
H            3.56817462594752       -7.43652541069178       -1.18006299304564
H            2.79502732026036       -5.19403018994867       -0.56207333056079
H            2.37945736874837       -4.05428147362335        1.77304001623271
H            0.03216286516615       -3.27232481635975        1.73822973465532
H           -4.15508782030808       -3.71388820788057        0.64918599006564
H           -6.49570046624297       -2.91733701189434        0.46526128813021
H           -6.64351802667054       -1.09117641978600        2.47761297122978
H           -8.17257249555510       -1.07004438155858        4.39533997779637
H          -10.53066422643416       -0.37863780346741        4.09907795838316
H          -11.32052345112870        0.32231989714707        1.84993815820821
H          -10.64531729333086        1.15680126933418       -2.59818740675578
H           -9.22969946097426        1.18170534987120       -4.64011045726733
H           -6.88596669312380        0.39828186501507       -4.50047099318192
H           -5.96743196829638       -0.36858454869531       -2.36047452210661
H           -5.08625854013810        1.06314718808469       -0.23821445879899
H           -1.06206295455992        2.16782873025863       -1.51123352337691
H            0.84135825958654        3.74323442304564       -1.64476495967042
H            3.52028854091574        1.16452136983541       -1.08832086919359
H            5.69155148264067        0.27135475452319       -1.80771827677574
H            7.70508103799368        1.70136448666614       -1.74224176058485
H            7.50015958612427        4.06204231868650       -0.99088174022590
H            5.04941151971449        7.65379750559796        0.44441767163939
H            2.92647662052783        8.71519606385557        1.17892495880464
H            0.86851914883552        7.34580591749073        1.31085636082555
H            0.92479667906333        4.97418836298909        0.69293613454789
H            2.75690156795133        1.68967001643555        1.57065985970560
H            0.86099240901478        0.12475994418611        1.70953295567061
H            0.94439112906088       -0.69345414779220       -1.54214992698014
H            3.28067329649623       -1.47026732012413       -1.50356162413582

 projected vibrational frequencies (cm⁻¹)
eigval :       -0.00     0.00     0.00     0.00     0.00     0.00
eigval :        9.32     9.98    10.63    11.86    16.16    25.78
eigval :       27.65    28.65    35.47    42.34    48.24    50.91
eigval :       57.62    61.81    68.16    75.97    76.16    90.28
eigval :      100.45   111.58   112.73   118.11   124.83   135.67
eigval :      155.15   168.48   185.31   193.05   197.13   206.28
eigval :      218.05   245.30   246.26   248.92   251.80   253.19
eigval :      259.73   263.81   273.53   280.08   291.18   301.13
eigval :      313.29   350.15   362.24   369.77   374.05   376.39
eigval :      380.33   385.81   390.36   394.51   397.69   406.46
eigval :      414.24   419.11   425.98   427.61   428.55   429.19
eigval :      430.56   436.66   446.42   447.98   452.13   461.62
eigval :      491.23   505.98   507.57   508.57   508.58   511.74
eigval :      523.03   523.25   523.87   535.06   546.87   548.77
eigval :      551.98   567.50   574.44   579.98   587.83   591.36
eigval :      596.84   603.33   614.46   615.92   619.71   624.66
eigval :      638.61   656.23   661.39   661.98   662.84   663.19
eigval :      663.69   665.69   670.22   680.61   685.37   692.85
eigval :      694.59   709.73   728.87   776.14   777.06   777.82
eigval :      777.89   778.63   778.70   787.09   796.12   799.54
eigval :      801.31   808.05   813.64   816.56   832.22   850.69
eigval :      854.30   854.83   855.00   860.91   863.84   864.01
eigval :      864.24   864.28   866.46   870.46   871.18   877.68
eigval :      895.88   896.97   897.31   897.97   898.08   898.17
eigval :      898.68   913.12   913.17   914.19   914.50   915.13
eigval :      915.58   915.89   916.26   916.78   917.23   921.35
eigval :      921.44   927.39   928.26   959.14   992.31  1010.56
eigval :     1025.84  1087.26  1088.35  1088.57  1088.60  1090.38
eigval :     1090.62  1101.52  1109.12  1109.36  1110.47  1117.34
eigval :     1120.30  1121.97  1128.86  1130.22  1132.66  1165.01
eigval :     1170.70  1171.91  1175.18  1175.97  1176.14  1180.75
eigval :     1181.25  1182.30  1188.75  1192.38  1200.77  1202.31
eigval :     1202.56  1203.79  1217.07  1223.57  1225.07  1234.70
eigval :     1240.22  1241.85  1242.22  1256.67  1259.21  1260.05
eigval :     1261.47  1262.57  1264.36  1272.43  1281.42  1295.58
eigval :     1307.58  1311.27  1312.78  1313.21  1314.39  1314.64
eigval :     1317.61  1319.57  1332.07  1336.93  1339.02  1343.35
eigval :     1349.97  1354.01  1359.14  1397.34  1403.65  1405.28
eigval :     1414.75  1422.67  1423.98  1424.20  1443.40  1443.64
eigval :     1443.75  1461.80  1467.98  1475.93  1477.69  1479.42
eigval :     1484.53  1487.56  1490.39  1497.64  1513.26  1524.94
eigval :     1546.50  1547.86  1562.33  1564.95  1565.11  1572.15
eigval :     1576.43  1576.54  1582.90  1583.10  1584.93  1585.23
eigval :     1587.53  1594.35  1596.60  1598.63  3079.70  3080.42
eigval :     3083.79  3083.90  3087.82  3090.38  3090.60  3090.67
eigval :     3090.71  3090.97  3091.06  3092.50  3092.61  3100.03
eigval :     3100.09  3100.32  3100.40  3100.58  3100.66  3100.83
eigval :     3100.96  3101.99  3104.26  3106.55  3107.19  3107.32
eigval :     3108.31  3109.00  3110.80  3113.23  3113.27  3113.33
eigval :     3113.62  3113.68  3114.15

   temp. (K)  partition function   enthalpy   heat capacity  entropy
                                   cal/mol     cal/K/mol   cal/K/mol   J/K/mol
 298.15  VIB  0.419E+24            29382.199    186.180    182.913
         ROT  0.238E+09              888.752      2.981     41.308
         INT  0.995E+32            30270.952    189.161    224.221
         TR   0.230E+29             1481.254      4.968     45.991
         TOT                       31752.2056   194.1292   270.2120  1130.5670

       T/K    H(0)-H(T)+PV         H(T)/Eh          T*S/Eh         G(T)/Eh
   ------------------------------------------------------------------------
    298.15    0.506004E-01    0.788982E+00    0.128386E+00    0.660596E+00
   ------------------------------------------------------------------------

         :::::::::::::::::::::::::::::::::::::::::::::::::::::
         ::                  THERMODYNAMIC                  ::
         :::::::::::::::::::::::::::::::::::::::::::::::::::::
         :: total free energy        -163.965720854044 Eh   ::
         ::.................................................::
         :: total energy             -164.626316420044 Eh   ::
         :: zero point energy           0.738381646311 Eh   ::
         :: G(RRHO) w/o ZPVE           -0.077786080311 Eh   ::
         :: G(RRHO) contrib.            0.660595566000 Eh   ::
         :::::::::::::::::::::::::::::::::::::::::::::::::::::

           -------------------------------------------------
          | TOTAL ENERGY             -164.626316420044 Eh   |
          | TOTAL ENTHALPY           -163.837334413307 Eh   |
          | TOTAL FREE ENERGY        -163.965720854044 Eh   |
          | GRADIENT NORM               0.000108697271 Eh/α |
           -------------------------------------------------

 * finished run on 2025/08/30 at 13:06:41.241
