   * xtb version 6.7.1 (edcfbbe) compiled by 'albert@albert-system' on 2024-07-22

   ID    Z sym.   atoms
    1    6 C      1-6, 8-13, 15-19, 21-24, 26-31, 33-40, 42-46, 48-53, 55-64
    2    8 O      7, 32, 54
    3    7 N      14, 20, 25, 41, 47
    4    1 H      65-99

          program call               : xtb data2507/gas/DBQ-3PXZ/DBQ-3PXZ_gas_S0_finalOpt.xtbopt.xyz --gfn 2 --spinpol --tblite --uhf 2 --ohess vtight --parallel 40 --molden --ceasefiles --namespace data2507/gas/DBQ-3PXZ/DBQ-3PXZ_gas_T1_preOpt
 * total energy  :  -164.6207147 Eh     change       -0.6670328E-07 Eh
 * total energy  :  -164.6240385 Eh     change       -0.3323799E-02 Eh
 * total energy  :  -164.6250102 Eh     change       -0.9717859E-03 Eh
 * total energy  :  -164.6251467 Eh     change       -0.1364694E-03 Eh
 * total energy  :  -164.6252284 Eh     change       -0.8170944E-04 Eh
 * total energy  :  -164.6252566 Eh     change       -0.2817615E-04 Eh
 * total energy  :  -164.6252956 Eh     change       -0.3897543E-04 Eh
 * total energy  :  -164.6253291 Eh     change       -0.3357038E-04 Eh
 * total energy  :  -164.6253602 Eh     change       -0.3104260E-04 Eh
 * total energy  :  -164.6253891 Eh     change       -0.2894734E-04 Eh
 * total energy  :  -164.6255557 Eh     change       -0.6346296E-06 Eh
 * total energy  :  -164.6255563 Eh     change       -0.6076139E-06 Eh
 * total energy  :  -164.6255569 Eh     change       -0.5679173E-06 Eh
 * total energy  :  -164.6255574 Eh     change       -0.5290700E-06 Eh
 * total energy  :  -164.6255583 Eh     change       -0.8463740E-06 Eh
 * total energy  :  -164.6255587 Eh     change       -0.4332854E-06 Eh
 * total energy  :  -164.6255591 Eh     change       -0.4069676E-06 Eh
 * total energy  :  -164.6255596 Eh     change       -0.4580275E-06 Eh
 * total energy  :  -164.6255596 Eh     change       -0.1014720E-07 Eh
   *** GEOMETRY OPTIMIZATION CONVERGED AFTER 68 ITERATIONS ***

 final structure:
================
99
 xtb: 6.7.1 (edcfbbe)
C            6.46882122647296        1.33678136989832        1.77218466561965
C            5.10249555966898        1.35619332481384        1.96761426799179
C            4.34462231393230        0.21894632052795        1.73635404218141
C            4.93755211949909       -0.95970567940102        1.30198553373138
C            6.32204948544863       -0.96116627998015        1.08405159522552
C            7.07513554980330        0.17332853900585        1.32574614581649
O            6.99231410938528       -2.05976027263195        0.61360521505572
C            6.24927689831027       -3.17313063971022        0.31766013909168
C            6.92583555170880       -4.26372560118501       -0.19718528087835
C            6.24533492840498       -5.43730117504279       -0.48513671955722
C            4.88877668284402       -5.51722667760448       -0.23852680239779
C            4.20452601299380       -4.42570217870893        0.27215260335051
C            4.86616785360486       -3.23214948494675        0.53630526268794
N            4.20118963045710       -2.12290262641815        1.05779898560714
C            2.78802656557866       -2.06099444495495        1.02900183731212
C            2.05837313531957       -1.83281349736822        2.19187295183770
C            0.69316099718956       -1.62119310015656        2.12893104014379
C            0.04079522097316       -1.61599942270936        0.90084525811328
C           -1.34504561253320       -1.15119035335138        0.73845288173460
N           -2.38275616157536       -1.82329320758741        1.22652459050789
C           -3.63263507381572       -1.41258566611202        0.97724160407285
C           -4.74337828868931       -2.08392797271812        1.48338411904984
C           -6.02968258115979       -1.66151552156689        1.18482434939236
C           -6.22695294560010       -0.56470341620327        0.35997579359254
N           -7.54557640096018       -0.14193890061881        0.04669026945051
C           -8.03739012006648        1.05762221683100        0.54475687728992
C           -7.28134389356698        1.88300459937986        1.37101417056424
C           -7.80310321687032        3.07393800940430        1.84771592991195
C           -9.08849576855338        3.45864654409808        1.51595654469970
C           -9.86331137762154        2.63845030822992        0.71006880916629
C           -9.34923854767617        1.44736206358638        0.23095734232881
O          -10.17650060719107        0.67556325044699       -0.54326408041909
C           -9.67516695223019       -0.50614688894816       -1.02397714964032
C          -10.51437704016208       -1.27567550834752       -1.80885086470996
C          -10.06515620406076       -2.47312250667237       -2.34450030684963
C           -8.76940301525092       -2.88783326744388       -2.10049126675380
C           -7.92403480247821       -2.12326980751651       -1.31410631097495
C           -8.36483755311414       -0.92999937753968       -0.75062241748216
C           -5.13942182105197        0.13452426046644       -0.16209536871049
C           -3.83989799396263       -0.25441556511183        0.14088474848588
N           -2.77577007661837        0.42782659231468       -0.30681415462120
C           -1.54671276917625        0.01889992226258       -0.01202849947055
C           -0.35130700014773        0.79697919212161       -0.37456039950008
C            0.09540638796856        0.92853251157620       -1.68449561579010
C            1.34533427126151        1.46092870648550       -1.94425561175872
C            2.15912723667065        1.88526738676368       -0.89827005231114
N            3.49536602927008        2.28697152479716       -1.13213209901673
C            4.44979826408808        1.33184177880848       -1.49555155337414
C            4.10478754816264        0.03763342787343       -1.86335701026322
C            5.07524771710600       -0.88702000962189       -2.21616014678829
C            6.40993943189597       -0.53499738214498       -2.21147724315585
C            6.77313470107442        0.74812422098074       -1.83430755200692
C            5.80935327095087        1.67137266651061       -1.47189273717819
O            6.25327874572178        2.90741948329506       -1.08107676354421
C            5.31168606860612        3.81459626109620       -0.66916507875748
C            5.76932366193132        5.04611135954670       -0.23767752909088
C            4.87208683898117        6.02648256472111        0.15869393449602
C            3.51571494617028        5.77223765728501        0.10372622912969
C            3.05155334232573        4.53805023381928       -0.32259391254245
C            3.93881513005330        3.53413559777575       -0.69271926919697
C            1.66292307796482        1.86831417229010        0.40204186238905
C            0.42703248030321        1.31828757330164        0.65890472707815
C            0.76157468345336       -1.94756011295515       -0.24660332668769
C            2.11718473058340       -2.18096896764982       -0.18465424174120
H            7.06224770324963        2.21914663019589        1.95131903890803
H            4.61627029355842        2.26074581161826        2.30275435107233
H            3.27735810210330        0.24658091110672        1.88365702935467
H            8.13714741448661        0.12654327446432        1.14711665583848
H            7.98800541469899       -4.17555518513032       -0.36045705380263
H            6.78094270496247       -6.28223923892390       -0.88816780701644
H            4.35086292633479       -6.43108999508117       -0.43835065337591
H            3.14735617424048       -4.50010612179299        0.47467187582127
H            2.57171756576265       -1.79701945363112        3.14153890022342
H            0.13355939296521       -1.42000309571738        3.03015289061935
H           -4.57786705814961       -2.94218166585899        2.11468159523417
H           -6.88125716588480       -2.18719064423544        1.58986835064128
H           -6.28062267677018        1.58568998732621        1.64072879168701
H           -7.19523636837715        3.69879106478787        2.48368486446104
H           -9.49592043841385        4.38699938785340        1.88387772873878
H          -10.87388721069906        2.90358038075159        0.44343676198509
H          -11.51506204660906       -0.91788274285508       -1.99123625554950
H          -10.72664613625682       -3.06883467765422       -2.95337184960015
H           -8.40507742131238       -3.81148783416116       -2.52306000471613
H           -6.91131092683974       -2.44790658011494       -1.13501714360800
H           -5.29292653896525        0.99028902397355       -0.80048945546964
H           -0.52351779603536        0.57747582874765       -2.49661633654614
H            1.70818014471001        1.52787500231207       -2.95940101972494
H            3.06598534631318       -0.24931201979577       -1.86190347487837
H            4.78019394647331       -1.88790097717612       -2.49568714807625
H            7.16821369552767       -1.25106019826467       -2.48552162967498
H            7.80661501264792        1.05299974075360       -1.80372786397947
H            6.83341257469701        5.21979226734270       -0.22444874470374
H            5.23819961138028        6.98335312084693        0.49572507337785
H            2.80591799458523        6.53322085353848        0.38925443749046
H            1.99016783397342        4.35135044343718       -0.37526654588179
H            2.26521762251190        2.26180985720897        1.20653789315873
H            0.06380685888830        1.26620563928976        1.67463703883502
H            0.25161024186897       -1.99779185089705       -1.19723643845278
H            2.67172761025548       -2.42845122876518       -1.07686154770882

 projected vibrational frequencies (cm⁻¹)
eigval :       -0.00    -0.00    -0.00    -0.00     0.00     0.00
eigval :        9.12     9.42    16.66    17.76    22.15    27.13
eigval :       31.18    39.65    41.65    44.06    53.52    59.41
eigval :       64.20    68.32    73.17    76.04    90.34    98.49
eigval :      108.93   111.11   114.63   119.87   129.71   138.54
eigval :      150.56   168.34   189.78   193.75   200.94   207.49
eigval :      220.99   242.10   245.73   247.43   251.42   256.33
eigval :      260.99   267.75   274.03   280.16   292.75   299.53
eigval :      318.33   347.48   361.63   369.77   374.58   376.07
eigval :      380.88   387.97   393.13   394.22   397.57   407.04
eigval :      415.49   420.73   427.23   428.80   429.93   430.75
eigval :      434.04   439.58   447.49   452.84   456.50   464.98
eigval :      494.37   502.41   506.18   509.38   510.03   511.86
eigval :      523.64   525.19   526.43   530.71   547.15   549.91
eigval :      554.70   574.46   575.28   578.03   585.73   593.14
eigval :      595.88   604.26   613.97   617.50   620.72   623.48
eigval :      642.08   654.71   661.34   661.88   663.66   664.58
eigval :      664.78   665.70   669.78   680.40   684.51   693.34
eigval :      697.18   709.12   732.08   776.63   776.94   777.59
eigval :      779.41   780.48   780.68   787.06   795.92   800.85
eigval :      802.73   810.75   816.96   818.81   830.75   850.26
eigval :      855.10   856.18   856.32   858.98   862.32   863.51
eigval :      863.97   867.52   868.45   873.24   875.90   876.84
eigval :      894.68   896.90   897.12   898.14   898.48   899.07
eigval :      899.41   913.21   914.34   914.74   915.15   915.28
eigval :      915.78   916.11   916.83   916.97   917.07   924.81
eigval :      926.06   934.61   936.57   956.09   992.45  1011.07
eigval :     1026.54  1086.80  1087.85  1088.44  1088.53  1093.72
eigval :     1094.40  1105.08  1109.76  1109.88  1110.44  1117.60
eigval :     1120.96  1123.23  1127.77  1128.90  1130.71  1164.27
eigval :     1170.84  1171.10  1174.70  1175.58  1175.86  1180.80
eigval :     1182.09  1182.96  1190.17  1193.30  1199.61  1203.58
eigval :     1206.05  1206.08  1214.78  1224.23  1225.31  1229.20
eigval :     1240.11  1243.22  1243.29  1256.99  1258.52  1261.02
eigval :     1261.88  1265.18  1265.57  1275.91  1286.06  1299.89
eigval :     1302.26  1306.22  1312.59  1313.12  1313.39  1313.86
eigval :     1314.59  1319.33  1331.59  1335.90  1336.87  1342.96
eigval :     1349.02  1352.60  1358.97  1397.37  1400.39  1400.98
eigval :     1412.59  1422.54  1424.03  1424.28  1443.51  1443.94
eigval :     1444.17  1465.13  1467.59  1478.31  1480.20  1481.18
eigval :     1485.20  1493.44  1494.99  1497.43  1516.89  1527.07
eigval :     1552.98  1554.05  1562.05  1567.30  1567.41  1571.79
eigval :     1577.69  1577.83  1582.30  1583.91  1586.51  1586.81
eigval :     1589.64  1594.28  1597.54  1600.00  3078.71  3078.80
eigval :     3082.07  3082.79  3083.91  3084.32  3087.62  3089.76
eigval :     3089.84  3090.92  3091.11  3093.86  3094.24  3097.87
eigval :     3098.11  3099.09  3099.61  3100.34  3100.55  3101.00
eigval :     3102.51  3102.66  3104.34  3105.17  3105.26  3109.17
eigval :     3111.13  3112.93  3112.94  3113.22  3113.50  3114.60
eigval :     3116.64  3116.87  3117.35

   temp. (K)  partition function   enthalpy   heat capacity  entropy
                                   cal/mol     cal/K/mol   cal/K/mol   J/K/mol
 298.15  VIB  0.328E+23            29188.184    186.927    180.422
         ROT  0.192E+09              888.752      2.981     40.884
         INT  0.630E+31            30076.936    189.908    221.306
         TR   0.230E+29             1481.254      4.968     45.991
         TOT                       31558.1900   194.8758   267.2968  1118.3699

       T/K    H(0)-H(T)+PV         H(T)/Eh          T*S/Eh         G(T)/Eh
   ------------------------------------------------------------------------
    298.15    0.502912E-01    0.789317E+00    0.127001E+00    0.662316E+00
   ------------------------------------------------------------------------

         :::::::::::::::::::::::::::::::::::::::::::::::::::::
         ::                  THERMODYNAMIC                  ::
         :::::::::::::::::::::::::::::::::::::::::::::::::::::
         :: total free energy        -163.963243695508 Eh   ::
         ::.................................................::
         :: total energy             -164.625559564592 Eh   ::
         :: zero point energy           0.739026035991 Eh   ::
         :: G(RRHO) w/o ZPVE           -0.076710166907 Eh   ::
         :: G(RRHO) contrib.            0.662315869084 Eh   ::
         :::::::::::::::::::::::::::::::::::::::::::::::::::::

           -------------------------------------------------
          | TOTAL ENERGY             -164.625559564592 Eh   |
          | TOTAL ENTHALPY           -163.836242351689 Eh   |
          | TOTAL FREE ENERGY        -163.963243695508 Eh   |
          | GRADIENT NORM               0.000076230572 Eh/α |
           -------------------------------------------------

 * finished run on 2025/08/30 at 12:55:56.342
