   * xtb version 6.7.1 (edcfbbe) compiled by 'albert@albert-system' on 2024-07-22

   ID    Z sym.   atoms
    1    6 C      1-9, 11-22, 24-27
    2    7 N      10
    3    9 F      23
    4    1 H      28-47

          program call               : xtb data2507/gas/BACF/BACF_gas_S0_finalOpt.xtbopt.xyz --gfn 2 --spinpol --tblite --uhf 2 --ohess vtight --parallel 40 --molden --ceasefiles --namespace data2507/gas/BACF/BACF_gas_T1_preOpt
 * total energy  :   -71.3232079 Eh     change        0.2049411E-07 Eh
 * total energy  :   -71.3295501 Eh     change       -0.6342203E-02 Eh
 * total energy  :   -71.3311144 Eh     change       -0.1564276E-02 Eh
 * total energy  :   -71.3312093 Eh     change       -0.9491273E-04 Eh
 * total energy  :   -71.3312441 Eh     change       -0.3479410E-04 Eh
 * total energy  :   -71.3312571 Eh     change       -0.1302338E-04 Eh
 * total energy  :   -71.3312677 Eh     change       -0.1059812E-04 Eh
 * total energy  :   -71.3312805 Eh     change       -0.1282195E-04 Eh
 * total energy  :   -71.3312875 Eh     change       -0.6947051E-05 Eh
 * total energy  :   -71.3312931 Eh     change       -0.5579602E-05 Eh
 * total energy  :   -71.3312980 Eh     change        0.1751194E-06 Eh
 * total energy  :   -71.3312986 Eh     change       -0.6501100E-06 Eh
 * total energy  :   -71.3312988 Eh     change       -0.2102915E-06 Eh
 * total energy  :   -71.3312988 Eh     change        0.4069335E-08 Eh
 * total energy  :   -71.3312991 Eh     change       -0.2226806E-06 Eh
 * total energy  :   -71.3312993 Eh     change       -0.2791882E-06 Eh
 * total energy  :   -71.3312995 Eh     change       -0.1813369E-06 Eh
 * total energy  :   -71.3312996 Eh     change       -0.1010223E-06 Eh
 * total energy  :   -71.3312996 Eh     change       -0.3017192E-08 Eh
   *** GEOMETRY OPTIMIZATION CONVERGED AFTER 22 ITERATIONS ***

 final structure:
================
47
 xtb: 6.7.1 (edcfbbe)
C           -1.14853722473719       -2.71374058578565        1.13308947863485
C           -0.51433902836011       -1.92042392050836       -0.04133294863538
C           -0.93305516877489       -2.47117237757683       -1.42925037416721
C            0.97972373280274       -2.14533275550712        0.02044764936898
C            1.47304027384701       -3.44225426940453        0.04909440149966
C            2.83008762511234       -3.70585288868943        0.06312691505668
C            3.73204833463882       -2.64929101924272        0.04212834348316
C            3.27328940764169       -1.35391612481485        0.01811002807117
C            1.89464370230498       -1.08284439585086        0.01253938282690
N            1.44318564619179        0.21493177133886        0.00593632391768
C            2.41422508505231        1.25987251666210       -0.00791943796384
C            2.84195354276114        1.78683519434020       -1.21879402795040
C            3.79057824429694        2.79443705482558       -1.22965611665189
C            4.31008241055242        3.27370288365584       -0.03850625577553
C            3.88131268071729        2.74570679762897        1.16808205668641
C            2.93326377995992        1.73793580814500        1.18807186541051
C            0.11433945549791        0.56459423386065        0.03464273962923
C           -0.23439910971981        1.90101274749446        0.07916420189057
C           -1.56440702612828        2.28663986712580        0.09827892778235
C           -2.60348927550577        1.32713189317443        0.06100060016239
C           -3.93165307519863        1.74253332970278        0.06498976597563
C           -4.96566027756162        0.79047894364803        0.02239487371734
F           -6.24480198797925        1.23212245203507        0.02829140733781
C           -4.70058842124972       -0.54567441899942       -0.02436280634576
C           -3.36018903777085       -0.97462950901769       -0.02700455934329
C           -2.27663865268702       -0.06902038453871        0.01667928111698
C           -0.91460828632852       -0.46625519581186        0.02012508193417
H           -1.89843053633071       -2.12152743708486        1.64783558765517
H           -0.38216418897118       -2.97172564608415        1.86142526138138
H           -1.60920092135672       -3.63518013911261        0.78600050073936
H           -0.78226503798412       -3.54638590264329       -1.47741726063236
H           -1.97009464042455       -2.24680824060417       -1.65428357409920
H           -0.31655031920821       -2.00625744548685       -2.19727719972066
H            0.78069269061418       -4.26992270150903        0.06485701269224
H            3.18401780233523       -4.72477787853247        0.08700135768885
H            4.79441017149097       -2.84089898777697        0.04632895782365
H            3.97756415937542       -0.53668970313103        0.00361602914098
H            2.42763964501725        1.40589296040739       -2.14022331750949
H            4.12378007148987        3.20524957787531       -2.17065805309826
H            5.04945167819312        4.06008077650837       -0.05049473022724
H            4.28486277290801        3.11890644370775        2.09716885311104
H            2.58931015438134        1.31836066410014        2.12160056287581
H            0.53069893872207        2.66096344359610        0.09975247965634
H           -1.82044102471272        3.33335561980886        0.13578849586193
H           -4.17727944054828        2.79147340035486        0.09993880195891
H           -5.50082771620211       -1.26722031090533       -0.05734559228293
H           -3.20270279344097       -2.03614507066875       -0.05980976542355

 projected vibrational frequencies (cm⁻¹)
eigval :       -0.00    -0.00    -0.00    -0.00    -0.00     0.00
eigval :       14.42    29.02    40.38    60.92    66.74    94.31
eigval :      108.88   126.93   147.86   159.63   190.51   196.87
eigval :      218.00   227.10   240.02   264.23   282.23   303.12
eigval :      311.83   336.19   346.36   372.19   382.24   392.24
eigval :      395.56   415.11   449.60   465.26   479.59   500.52
eigval :      509.71   512.97   523.86   538.36   556.62   582.01
eigval :      590.51   596.99   608.39   633.30   670.72   685.63
eigval :      691.03   691.76   726.13   736.75   757.64   769.31
eigval :      772.20   781.16   796.10   827.21   840.21   849.84
eigval :      861.39   874.02   899.43   912.77   914.59   916.36
eigval :      918.36   927.10   932.93   947.58   968.97   971.65
eigval :      992.73  1024.85  1050.86  1075.51  1078.24  1101.70
eigval :     1113.36  1113.64  1116.59  1137.01  1150.76  1155.84
eigval :     1179.77  1179.90  1184.24  1193.27  1198.81  1224.35
eigval :     1228.78  1248.97  1269.69  1272.66  1297.45  1302.75
eigval :     1309.89  1327.45  1336.68  1345.78  1360.88  1374.56
eigval :     1400.62  1414.20  1423.42  1431.15  1432.75  1452.52
eigval :     1460.12  1465.37  1472.38  1485.26  1497.17  1498.77
eigval :     1503.25  1513.49  1533.94  1556.96  1578.57  1581.90
eigval :     1588.26  3020.91  3025.27  3032.79  3038.35  3060.10
eigval :     3066.27  3084.02  3084.33  3086.48  3090.60  3092.25
eigval :     3093.29  3097.73  3100.03  3103.01  3104.04  3104.74
eigval :     3107.27  3110.48  3157.03

   temp. (K)  partition function   enthalpy   heat capacity  entropy
                                   cal/mol     cal/K/mol   cal/K/mol   J/K/mol
 298.15  VIB  0.285E+09            12424.094     82.908     74.547
         ROT  0.128E+08              888.752      2.981     35.502
         INT  0.365E+16            13312.846     85.889    110.049
         TR   0.643E+28             1481.254      4.968     43.462
         TOT                       14794.1002    90.8575   153.5110   642.2902

       T/K    H(0)-H(T)+PV         H(T)/Eh          T*S/Eh         G(T)/Eh
   ------------------------------------------------------------------------
    298.15    0.235759E-01    0.389922E+00    0.729381E-01    0.316984E+00
   ------------------------------------------------------------------------

         :::::::::::::::::::::::::::::::::::::::::::::::::::::
         ::                  THERMODYNAMIC                  ::
         :::::::::::::::::::::::::::::::::::::::::::::::::::::
         :: total free energy         -71.014315398691 Eh   ::
         ::.................................................::
         :: total energy              -71.331299589331 Eh   ::
         :: zero point energy           0.366346341416 Eh   ::
         :: G(RRHO) w/o ZPVE           -0.049362150775 Eh   ::
         :: G(RRHO) contrib.            0.316984190641 Eh   ::
         :::::::::::::::::::::::::::::::::::::::::::::::::::::

           -------------------------------------------------
          | TOTAL ENERGY              -71.331299589331 Eh   |
          | TOTAL ENTHALPY            -70.941377348549 Eh   |
          | TOTAL FREE ENERGY         -71.014315398691 Eh   |
          | GRADIENT NORM               0.000038298454 Eh/α |
           -------------------------------------------------

 * finished run on 2025/07/18 at 12:41:15.013
