   * xtb version 6.7.1 (edcfbbe) compiled by 'albert@albert-system' on 2024-07-22

   ID    Z sym.   atoms
    1    6 C      1-9, 11-22, 24-27
    2    7 N      10
    3    9 F      23
    4    1 H      28-47

          program call               : xtb data2507/gas/BACF/BACF_gas_S0_crest.xyz --gfn 2 --ohess vtight --parallel 40 --molden --ceasefiles --namespace data2507/gas/BACF/BACF_gas_S0_finalOpt
          :  Hamiltonian                  GFN2-xTB          :
 * total energy  :   -71.4154543 Eh     change       -0.6181438E-09 Eh
 * total energy  :   -71.4154549 Eh     change       -0.5584023E-06 Eh
 * total energy  :   -71.4154553 Eh     change       -0.3797770E-06 Eh
 * total energy  :   -71.4154554 Eh     change       -0.1504149E-06 Eh
 * total energy  :   -71.4154557 Eh     change       -0.3410232E-06 Eh
 * total energy  :   -71.4154563 Eh     change       -0.5126722E-06 Eh
 * total energy  :   -71.4154566 Eh     change       -0.3724575E-06 Eh
 * total energy  :   -71.4154568 Eh     change       -0.1873119E-06 Eh
 * total energy  :   -71.4154570 Eh     change       -0.1581674E-06 Eh
 * total energy  :   -71.4154572 Eh     change       -0.2372385E-06 Eh
 * total energy  :   -71.4154575 Eh     change       -0.2789886E-06 Eh
 * total energy  :   -71.4154577 Eh     change       -0.2106172E-06 Eh
 * total energy  :   -71.4154578 Eh     change       -0.1362310E-06 Eh
 * total energy  :   -71.4154580 Eh     change       -0.1130296E-06 Eh
 * total energy  :   -71.4154581 Eh     change       -0.9681084E-07 Eh
   *** GEOMETRY OPTIMIZATION CONVERGED AFTER 15 ITERATIONS ***

 final structure:
================
47
 xtb: 6.7.1 (edcfbbe)
C           -1.15319960441627       -2.70841377074777        1.12228884083096
C           -0.51522046794685       -1.93322798095745       -0.06009021192778
C           -0.93831346171600       -2.48729542311442       -1.43972798696075
C            0.98725481346431       -2.14883842923959        0.01240040323718
C            1.47953644646779       -3.44669545964738        0.04188483362267
C            2.83620572430455       -3.71147866121897        0.07118267894800
C            3.73270836051597       -2.65769322989338        0.06848161866510
C            3.26855319989933       -1.35918693769870        0.04254856634613
C            1.89709262072449       -1.09250870771115        0.01575231463757
N            1.43949223772199        0.21364359205900       -0.00718536791433
C            2.40137010354252        1.26416192019641       -0.01317914764705
C            2.82817886616188        1.80355818862227       -1.21981286552992
C            3.77301034459925        2.81450453655280       -1.22528479328386
C            4.29386853753898        3.28576330854178       -0.03165116801265
C            3.86958988245035        2.74601726382374        1.17147553793319
C            2.92442652602130        1.73583991299247        1.18452592520916
C            0.09071671573645        0.51986379719538        0.01608028648087
C           -0.25982775404569        1.89046283298751        0.05982838211030
C           -1.55948274512469        2.28232530033125        0.07702882830048
C           -2.59326211690281        1.32739989677412        0.05199698662586
C           -3.93629574958209        1.75120734538422        0.06223214869364
C           -4.93616274226889        0.82634343348445        0.03470055381620
F           -6.22967963829508        1.22375832320238        0.04338654349674
C           -4.65370424602636       -0.54188124108238       -0.00224981404110
C           -3.35369551542471       -0.96355226152220       -0.01024278936000
C           -2.26192736935033       -0.05806422182973        0.01508084996055
C           -0.89344589495190       -0.45878832294441        0.00196821797507
H           -1.80113349203555       -2.06599093910989        1.71181853537813
H           -0.37553643461975       -3.07669725396029        1.78846340628936
H           -1.72870429935814       -3.56444297889886        0.77747420273624
H           -0.78698644899468       -3.56288749580796       -1.48316045495597
H           -1.97450653854578       -2.26899449689023       -1.67472749441765
H           -0.32012369213411       -2.02843943415288       -2.21025427463752
H            0.78638045918958       -4.27442221682105        0.04362696232317
H            3.18878872560497       -4.73133665229939        0.09250040766259
H            4.79618413138019       -2.84380049444965        0.08736521649615
H            3.97271000642573       -0.54139139497969        0.04107982835371
H            2.41495242101668        1.42711420158435       -2.14388732240611
H            4.10397260917040        3.23394614158725       -2.16359577993035
H            5.03166791089366        4.07393566463558       -0.03880623697800
H            4.27573410017398        3.11239487657538        2.10247346527736
H            2.58608261255772        1.30582000096499        2.11571576740956
H            0.52440597510566        2.63093691191191        0.07990078600470
H           -1.81427685129801        3.33113502278625        0.10915358672640
H           -4.16390448341755        2.80558739906568        0.09106778687363
H           -5.46961468899832       -1.24751956714494       -0.02303007889024
H           -3.18194465911410       -2.02383411613679       -0.03340027502695

          :  Hamiltonian                  GFN2-xTB          :
         :: gradient norm              0.000038248515 Eh/a0 ::
         :: HOMO-LUMO gap              2.314476524935 eV    ::
         :: SCC energy               -72.655499453547 Eh    ::
         :: -> dispersion             -0.062656319881 Eh    ::
         :: repulsion energy           1.240041401953 Eh    ::

    * Orbital Energies and Occupations

         #    Occupation            Energy/Eh            Energy/eV
      -------------------------------------------------------------
         1        2.0000           -0.8030602             -21.8524
       ...           ...                  ...                  ...
        54        2.0000           -0.4415548             -12.0153
        55        2.0000           -0.4381840             -11.9236
        56        2.0000           -0.4330928             -11.7851
        57        2.0000           -0.4247616             -11.5584
        58        2.0000           -0.4213043             -11.4643
        59        2.0000           -0.4187160             -11.3938
        60        2.0000           -0.4169464             -11.3457
        61        2.0000           -0.4100876             -11.1591
        62        2.0000           -0.4048990             -11.0179
        63        2.0000           -0.4009028             -10.9091
        64        2.0000           -0.3947443             -10.7415
        65        2.0000           -0.3851783             -10.4812
        66        2.0000           -0.3455766              -9.4036 (HOMO)
        67                         -0.2605212              -7.0891 (LUMO)
        68                         -0.2405133              -6.5447
        69                         -0.2393689              -6.5136
        70                         -0.2301613              -6.2630
        71                         -0.2186528              -5.9498
        72                         -0.2033415              -5.5332
        73                         -0.1886272              -5.1328
        74                         -0.1399518              -3.8083
        75                         -0.1103934              -3.0040
        76                         -0.0838037              -2.2804
        77                         -0.0597846              -1.6268
       ...                                ...                  ...
       128                          0.6933879              18.8680
      -------------------------------------------------------------
                  HL-Gap            0.0850554 Eh            2.3145 eV

     #   Z          covCN         q      C6AA      α(0)
     1   6 C        3.756    -0.108    22.626     6.782
     2   6 C        3.905     0.022    20.154     6.381
     3   6 C        3.764    -0.104    22.534     6.766
     4   6 C        2.986    -0.014    28.359     8.735
     5   6 C        2.928    -0.038    28.944     8.823
     6   6 C        2.917    -0.045    29.108     8.847
     7   6 C        2.920    -0.033    28.828     8.805
     8   6 C        2.924    -0.059    29.456     8.900
     9   6 C        2.931     0.057    26.714     8.476
    10   7 N        2.757    -0.070    22.594     7.060
    11   6 C        2.929     0.070    26.433     8.432
    12   6 C        2.922    -0.037    28.927     8.820
    13   6 C        2.920    -0.027    28.686     8.783
    14   6 C        2.920    -0.030    28.748     8.793
    15   6 C        2.920    -0.028    28.689     8.783
    16   6 C        2.922    -0.037    28.925     8.820
    17   6 C        2.922     0.059    26.685     8.471
    18   6 C        2.921    -0.053    29.314     8.879
    19   6 C        2.919    -0.038    28.953     8.824
    20   6 C        2.994     0.003    27.942     8.671
    21   6 C        2.921    -0.058    29.444     8.898
    22   6 C        2.781     0.162    24.485     8.105
    23   9 F        0.786    -0.237    11.622     4.027
    24   6 C        2.913    -0.053    29.313     8.878
    25   6 C        2.922    -0.044    29.095     8.846
    26   6 C        2.978     0.003    27.943     8.671
    27   6 C        2.969    -0.025    28.618     8.775
    28   1 H        0.925     0.041     2.432     2.439
    29   1 H        0.925     0.039     2.466     2.456
    30   1 H        0.925     0.037     2.494     2.470
    31   1 H        0.925     0.039     2.462     2.454
    32   1 H        0.925     0.043     2.414     2.430
    33   1 H        0.925     0.031     2.574     2.509
    34   1 H        0.926     0.033     2.539     2.492
    35   1 H        0.926     0.026     2.637     2.540
    36   1 H        0.926     0.027     2.627     2.535
    37   1 H        0.926     0.024     2.676     2.558
    38   1 H        0.926     0.041     2.431     2.438
    39   1 H        0.926     0.039     2.461     2.453
    40   1 H        0.926     0.038     2.473     2.459
    41   1 H        0.926     0.039     2.462     2.454
    42   1 H        0.926     0.042     2.425     2.435
    43   1 H        0.926     0.031     2.572     2.508
    44   1 H        0.926     0.035     2.516     2.481
    45   1 H        0.926     0.051     2.312     2.378
    46   1 H        0.926     0.049     2.328     2.386
    47   1 H        0.926     0.056     2.240     2.341

molecular dipole:
                 x           y           z       tot (Debye)
 q only:        1.479      -0.007      -0.017
   full:        1.522       0.058      -0.026       3.872

 projected vibrational frequencies (cm⁻¹)
eigval :       -0.00    -0.00    -0.00     0.00     0.00     0.00
eigval :       15.20    27.08    41.05    60.91    69.16   101.02
eigval :      115.41   135.02   153.83   166.13   184.03   201.67
eigval :      221.94   233.46   240.25   263.20   285.73   313.69
eigval :      343.48   348.27   362.02   373.73   384.48   395.65
eigval :      404.28   423.93   453.60   469.99   480.49   502.40
eigval :      518.87   523.09   535.94   564.61   583.19   589.21
eigval :      592.23   613.14   633.17   637.48   673.39   693.74
eigval :      697.07   721.55   738.55   761.74   779.04   797.92
eigval :      810.46   833.21   835.94   866.69   871.76   876.62
eigval :      900.75   909.70   915.23   916.43   923.26   923.53
eigval :      929.42   930.20   933.71   967.97   973.40   974.55
eigval :      996.08  1032.69  1066.30  1078.34  1083.23  1111.77
eigval :     1113.16  1139.96  1146.91  1149.19  1162.38  1179.51
eigval :     1180.54  1185.12  1186.94  1204.07  1231.25  1239.41
eigval :     1244.20  1258.73  1270.84  1272.90  1308.38  1310.23
eigval :     1317.42  1335.65  1339.58  1379.80  1399.70  1408.14
eigval :     1410.00  1425.34  1432.78  1440.17  1466.94  1475.41
eigval :     1489.85  1493.11  1500.75  1505.19  1511.40  1519.84
eigval :     1555.17  1582.79  1588.73  1594.33  1595.89  1605.94
eigval :     1617.43  3019.94  3023.45  3029.69  3038.56  3051.31
eigval :     3068.66  3078.90  3080.38  3082.12  3082.51  3084.73
eigval :     3089.76  3093.99  3094.86  3099.73  3100.27  3100.65
eigval :     3102.49  3104.64  3157.78

   temp. (K)  partition function   enthalpy   heat capacity  entropy
                                   cal/mol     cal/K/mol   cal/K/mol   J/K/mol
 298.15  VIB  0.179E+09            12141.202     81.217     72.719
         ROT  0.128E+08              888.752      2.981     35.496
         INT  0.229E+16            13029.954     84.198    108.215
         TR   0.643E+28             1481.254      4.968     43.462
         TOT                       14511.2082    89.1664   151.6770   634.6167

       T/K    H(0)-H(T)+PV         H(T)/Eh          T*S/Eh         G(T)/Eh
   ------------------------------------------------------------------------
    298.15    0.231251E-01    0.393204E+00    0.720667E-01    0.321137E+00
   ------------------------------------------------------------------------

         :::::::::::::::::::::::::::::::::::::::::::::::::::::
         ::                  THERMODYNAMIC                  ::
         :::::::::::::::::::::::::::::::::::::::::::::::::::::
         :: total free energy         -71.094320946191 Eh   ::
         ::.................................................::
         :: total energy              -71.415458051592 Eh   ::
         :: zero point energy           0.370078674741 Eh   ::
         :: G(RRHO) w/o ZPVE           -0.048941569340 Eh   ::
         :: G(RRHO) contrib.            0.321137105401 Eh   ::
         :::::::::::::::::::::::::::::::::::::::::::::::::::::

           -------------------------------------------------
          | TOTAL ENERGY              -71.415458051592 Eh   |
          | TOTAL ENTHALPY            -71.022254294542 Eh   |
          | TOTAL FREE ENERGY         -71.094320946191 Eh   |
          | GRADIENT NORM               0.000038224615 Eh/α |
          | HOMO-LUMO GAP               2.314476168125 eV   |
           -------------------------------------------------

 * finished run on 2025/07/18 at 12:41:12.700
