   * xtb version 6.7.1 (edcfbbe) compiled by 'albert@albert-system' on 2024-07-22

   ID    Z sym.   atoms
    1    6 C      1-9, 11-22, 24-27
    2    7 N      10
    3    9 F      23
    4    1 H      28-47

          program call               : xtb data2507/gas/BACF/BACF_gas_T1_crest.xyz --gfn 2 --spinpol --tblite --uhf 2 --ohess vtight --parallel 40 --molden --ceasefiles --namespace data2507/gas/BACF/BACF_gas_T1_finalOpt
 * total energy  :   -71.3312364 Eh     change       -0.1917584E-08 Eh
 * total energy  :   -71.3312775 Eh     change       -0.4108169E-04 Eh
 * total energy  :   -71.3312922 Eh     change       -0.1471254E-04 Eh
 * total energy  :   -71.3312936 Eh     change       -0.1366165E-05 Eh
 * total energy  :   -71.3312940 Eh     change       -0.4240899E-06 Eh
 * total energy  :   -71.3312942 Eh     change       -0.1538864E-06 Eh
 * total energy  :   -71.3312945 Eh     change       -0.3291138E-06 Eh
 * total energy  :   -71.3312948 Eh     change       -0.3545342E-06 Eh
 * total energy  :   -71.3312952 Eh     change       -0.3435985E-06 Eh
 * total energy  :   -71.3312955 Eh     change       -0.3365261E-06 Eh
 * total energy  :   -71.3312973 Eh     change       -0.5223443E-06 Eh
 * total energy  :   -71.3312978 Eh     change       -0.5561628E-06 Eh
 * total energy  :   -71.3312985 Eh     change       -0.6640272E-06 Eh
 * total energy  :   -71.3312993 Eh     change       -0.7516389E-06 Eh
 * total energy  :   -71.3312999 Eh     change       -0.6110981E-06 Eh
 * total energy  :   -71.3313002 Eh     change       -0.3238068E-06 Eh
 * total energy  :   -71.3313003 Eh     change       -0.1520236E-06 Eh
 * total energy  :   -71.3313005 Eh     change       -0.1136324E-06 Eh
 * total energy  :   -71.3313005 Eh     change       -0.2096243E-08 Eh
   *** GEOMETRY OPTIMIZATION CONVERGED AFTER 22 ITERATIONS ***

 final structure:
================
47
 xtb: 6.7.1 (edcfbbe)
C           -1.16449965867188       -2.72735284473442        1.09941951645879
C           -0.51539853563138       -1.91970027259486       -0.05653384349011
C           -0.91773449857783       -2.45220659133504       -1.45652031183238
C            0.97775839728589       -2.14717632190640        0.01715052884613
C            1.46914489823907       -3.44484586987171        0.04480494137871
C            2.82580295880136       -3.71035984576138        0.06104143300024
C            3.72929611049512       -2.65513295573819        0.04002461300725
C            3.27244777419022       -1.35905482963006        0.01643416826324
C            1.89424655953339       -1.08596455342027        0.01298237810606
N            1.44423719443586        0.21236772418652        0.01098011339342
C            2.41576118014124        1.25658185808816       -0.01111539052253
C            2.81332823404237        1.80039062436429       -1.22476217749614
C            3.76278135795834        2.80699520809870       -1.24552091685608
C            4.31309009012233        3.26877198023844       -0.06125361074887
C            3.91419764451346        2.72424235370373        1.14820539195213
C            2.96557990491111        1.71727429392296        1.17806478037056
C            0.11592246506649        0.56311117544619        0.05052012782259
C           -0.23078942636691        1.89892558463852        0.12109555006631
C           -1.56021318039435        2.28605100166419        0.14709972636225
C           -2.60063110834265        1.32920328599823        0.08534420246898
C           -3.92814617626233        1.74657815430699        0.09357064565787
C           -4.96348562498157        0.79744677265933        0.02630231770343
F           -6.24194874337000        1.24094176868877        0.03759027667956
C           -4.70032502657652       -0.53778714685935       -0.04943586721452
C           -3.36063033982599       -0.96877058499684       -0.05608884933940
C           -2.27582680058108       -0.06630348881932        0.01339855033733
C           -0.91449933864340       -0.46590075017499        0.01918077443752
H           -0.40819832725929       -2.99131491229772        1.83605846733048
H           -1.61783213897046       -3.64588671130356        0.73534665776932
H           -1.92346146253530       -2.14279929012435        1.60957508114884
H           -1.95377768608758       -2.23061544926483       -1.68859792549532
H           -0.29652539313112       -1.97268075578542       -2.21169041783931
H           -0.75984434575884       -3.52573782112170       -1.51852135334765
H            0.77564768583672       -4.27160967667554        0.05697581972294
H            3.17825049800630       -4.72979763984405        0.08492813276832
H            4.79137578570825       -2.84830523516796        0.04343192903448
H            3.97797685208775       -0.54295095309657        0.00069315615291
H            2.37502081230048        1.43319972584933       -2.14065326438818
H            4.07267555958116        3.23062492743045       -2.18878798544960
H            5.05316319338616        4.05432138207455       -0.08090225573239
H            4.34161030549130        3.08393257189977        2.07194191787818
H            2.64494389961380        1.28480629019134        2.11401711936761
H            0.53556622487227        2.65701742196639        0.15774432558478
H           -1.81481071131097        3.33206964865305        0.20708287292496
H           -4.17225042582394        2.79486759722750        0.15134903355767
H           -5.50155636374503       -1.25706887312145       -0.10200809257105
H           -3.20467683387190       -2.02949546675176       -0.11346410712947

 projected vibrational frequencies (cm⁻¹)
eigval :       -0.00    -0.00    -0.00     0.00     0.00     0.00
eigval :       14.55    29.15    40.39    61.01    66.82    95.87
eigval :      109.03   127.15   148.60   160.09   190.45   196.72
eigval :      217.36   227.16   240.03   264.15   282.08   303.17
eigval :      311.89   336.21   346.59   372.21   381.87   392.15
eigval :      396.25   415.29   449.53   465.32   479.68   500.32
eigval :      509.86   513.02   523.80   538.33   556.39   581.97
eigval :      590.49   596.93   608.38   633.27   670.66   685.66
eigval :      690.89   691.92   726.38   736.84   757.58   769.42
eigval :      772.38   781.45   795.94   827.18   840.43   850.00
eigval :      861.60   874.00   899.44   912.77   914.66   916.43
eigval :      918.62   927.07   932.83   947.94   968.91   971.83
eigval :      992.77  1024.64  1050.47  1075.58  1078.34  1101.77
eigval :     1113.34  1113.72  1116.75  1137.40  1151.04  1155.72
eigval :     1179.64  1179.91  1184.20  1193.25  1199.44  1224.20
eigval :     1228.60  1249.33  1269.48  1272.71  1297.53  1302.52
eigval :     1310.05  1327.24  1336.55  1345.61  1360.64  1374.50
eigval :     1400.61  1414.37  1423.40  1431.39  1432.81  1452.35
eigval :     1459.98  1465.43  1472.46  1485.07  1496.92  1499.65
eigval :     1503.29  1513.81  1534.05  1556.94  1578.13  1582.04
eigval :     1588.08  3020.88  3025.70  3033.17  3038.47  3060.68
eigval :     3067.10  3084.18  3084.46  3086.54  3090.79  3092.03
eigval :     3093.43  3097.82  3100.26  3103.16  3103.91  3104.78
eigval :     3107.30  3110.60  3156.62

   temp. (K)  partition function   enthalpy   heat capacity  entropy
                                   cal/mol     cal/K/mol   cal/K/mol   J/K/mol
 298.15  VIB  0.275E+09            12420.095     82.912     74.490
         ROT  0.128E+08              888.752      2.981     35.502
         INT  0.352E+16            13308.848     85.893    109.992
         TR   0.643E+28             1481.254      4.968     43.462
         TOT                       14790.1015    90.8612   153.4537   642.0503

       T/K    H(0)-H(T)+PV         H(T)/Eh          T*S/Eh         G(T)/Eh
   ------------------------------------------------------------------------
    298.15    0.235695E-01    0.389935E+00    0.729108E-01    0.317024E+00
   ------------------------------------------------------------------------

         :::::::::::::::::::::::::::::::::::::::::::::::::::::
         ::                  THERMODYNAMIC                  ::
         :::::::::::::::::::::::::::::::::::::::::::::::::::::
         :: total free energy         -71.014275962554 Eh   ::
         ::.................................................::
         :: total energy              -71.331300457595 Eh   ::
         :: zero point energy           0.366365771228 Eh   ::
         :: G(RRHO) w/o ZPVE           -0.049341276187 Eh   ::
         :: G(RRHO) contrib.            0.317024495041 Eh   ::
         :::::::::::::::::::::::::::::::::::::::::::::::::::::

           -------------------------------------------------
          | TOTAL ENERGY              -71.331300457595 Eh   |
          | TOTAL ENTHALPY            -70.941365159341 Eh   |
          | TOTAL FREE ENERGY         -71.014275962554 Eh   |
          | GRADIENT NORM               0.000026119638 Eh/α |
           -------------------------------------------------

 * finished run on 2025/07/18 at 12:42:48.340
