   * xtb version 6.7.1 (edcfbbe) compiled by 'albert@albert-system' on 2024-07-22

   ID    Z sym.   atoms
    1    6 C      1-9, 11-22, 24-27
    2    7 N      10
    3    9 F      23
    4    1 H      28-47

          program call               : xtb data2507/gas/BACF/BACF.xyz --gfn 2 --ohess vtight --parallel 40 --molden --ceasefiles --namespace data2507/gas/BACF/BACF_gas_S0_preOpt
          :  Hamiltonian                  GFN2-xTB          :
 * total energy  :   -71.3958435 Eh     change       -0.8753887E-09 Eh
 * total energy  :   -71.4091704 Eh     change       -0.1332695E-01 Eh
 * total energy  :   -71.4135945 Eh     change       -0.4424085E-02 Eh
 * total energy  :   -71.4141314 Eh     change       -0.5369438E-03 Eh
 * total energy  :   -71.4142807 Eh     change       -0.1492219E-03 Eh
 * total energy  :   -71.4143339 Eh     change       -0.5326752E-04 Eh
 * total energy  :   -71.4144151 Eh     change       -0.8121457E-04 Eh
 * total energy  :   -71.4144838 Eh     change       -0.6866919E-04 Eh
 * total energy  :   -71.4146539 Eh     change       -0.1700835E-03 Eh
 * total energy  :   -71.4147377 Eh     change       -0.8381605E-04 Eh
 * total energy  :   -71.4149294 Eh     change       -0.4780141E-04 Eh
 * total energy  :   -71.4149348 Eh     change       -0.5348276E-05 Eh
 * total energy  :   -71.4149383 Eh     change       -0.3501654E-05 Eh
 * total energy  :   -71.4149356 Eh     change        0.2662658E-05 Eh
 * total energy  :   -71.4149395 Eh     change       -0.3930249E-05 Eh
 * total energy  :   -71.4149393 Eh     change        0.2391031E-06 Eh
 * total energy  :   -71.4149400 Eh     change       -0.6712105E-06 Eh
 * total energy  :   -71.4149401 Eh     change       -0.1357234E-06 Eh
 * total energy  :   -71.4149401 Eh     change       -0.1259532E-07 Eh
   *** GEOMETRY OPTIMIZATION CONVERGED AFTER 24 ITERATIONS ***

 final structure:
================
47
 xtb: 6.7.1 (edcfbbe)
C           -1.77376530928029       -2.05555445634805        1.29745080378324
C           -1.12289064346390       -1.51398140434786       -0.00002058209250
C           -1.77324535097958       -2.05527338908468       -1.29787256123187
C            0.30358795235301       -2.03653985327472        0.00013312681274
C            0.51566089932331       -3.40826508620554        0.00022722391368
C            1.78882366388609       -3.94771108955427        0.00024959182947
C            2.88370977925610       -3.10195438388888        0.00018954559784
C            2.69833965553698       -1.73502199499442        0.00011792007520
C            1.41169622233075       -1.19028729370272        0.00008572327638
N            1.23391397682332        0.18297260136959        0.00002481280524
C            2.39291131212611        1.01098339501468       -0.00004053240934
C            2.96274870414651        1.40623273323169       -1.20370019347234
C            4.09822011891912        2.19684783257734       -1.20000399864825
C            4.66624991667117        2.59215277756753       -0.00018014390445
C            4.09833120587369        2.19689969912338        1.19971373597574
C            2.96286189255566        1.40628371605638        1.20354960065867
C           -0.02208861753399        0.76181519259415        0.00008545371066
C           -0.08498601543313        2.17588709803866        0.00015805823404
C           -1.27752250772605        2.82489719677891        0.00019181507433
C           -2.48533621431650        2.10156026175420        0.00013737506416
C           -3.71378322967182        2.79037812652769        0.00013401135167
C           -4.88116949301717        2.08803984750229        0.00005661332366
F           -6.06649565345979        2.74089946199721        0.00004365906676
C           -4.88437668443441        0.69033202955470        0.00000721668350
C           -3.69808564204438        0.01149207005926        0.00004012099349
C           -2.44442093860658        0.67750455419235        0.00009308771048
C           -1.18610918799850        0.00660413998044        0.00007829921353
H           -2.19814430522827       -3.04450332029654        1.14351126628346
H           -2.54969527762912       -1.39889466292496        1.67616205909377
H           -1.01170211370406       -2.13468401583562        2.07147589427578
H           -2.19638748845770       -3.04486373674452       -1.14476434960061
H           -2.55002003779859       -1.39934611755525       -1.67607013286286
H           -1.01121827828444       -2.13288757672606       -2.07207027751253
H           -0.33387470666687       -4.07316307355855        0.00027395486274
H            1.92352937712827       -5.01855924534138        0.00030723506874
H            3.88591333718156       -3.50398717434563        0.00020648821895
H            3.55653250496127       -1.08061554517736        0.00008709759830
H            2.51097691197365        1.09026610720082       -2.13240951358025
H            4.54088951244275        2.50385254822888       -2.13580250926553
H            5.55289066198643        3.20817876607915       -0.00023404495881
H            4.54108583329328        2.50394615431021        2.13545821427395
H            2.51117516395448        1.09035765743847        2.13231425332413
H            0.83406764062428        2.74084505090187        0.00019028612663
H           -1.31269227489267        3.90413620326231        0.00025189375993
H           -3.72198839886673        3.86939247091591        0.00019420493283
H           -5.82738461095319        0.16612705605666       -0.00004585759143
H           -3.74673426290016       -1.06279132840804        0.00001405415709

          :  Hamiltonian                  GFN2-xTB          :
         :: gradient norm              0.000155778061 Eh/a0 ::
         :: HOMO-LUMO gap              2.303596416183 eV    ::
         :: SCC energy               -72.654940504110 Eh    ::
         :: -> dispersion             -0.062661369481 Eh    ::
         :: repulsion energy           1.240000400090 Eh    ::

    * Orbital Energies and Occupations

         #    Occupation            Energy/Eh            Energy/eV
      -------------------------------------------------------------
         1        2.0000           -0.8032295             -21.8570
       ...           ...                  ...                  ...
        54        2.0000           -0.4416970             -12.0192
        55        2.0000           -0.4389672             -11.9449
        56        2.0000           -0.4330385             -11.7836
        57        2.0000           -0.4248719             -11.5614
        58        2.0000           -0.4212984             -11.4641
        59        2.0000           -0.4182049             -11.3799
        60        2.0000           -0.4169060             -11.3446
        61        2.0000           -0.4088580             -11.1256
        62        2.0000           -0.4045552             -11.0085
        63        2.0000           -0.4011053             -10.9146
        64        2.0000           -0.3949064             -10.7460
        65        2.0000           -0.3853523             -10.4860
        66        2.0000           -0.3455412              -9.4027 (HOMO)
        67                         -0.2608856              -7.0991 (LUMO)
        68                         -0.2404856              -6.5439
        69                         -0.2393614              -6.5134
        70                         -0.2301970              -6.2640
        71                         -0.2181933              -5.9373
        72                         -0.2033942              -5.5346
        73                         -0.1887506              -5.1362
        74                         -0.1400733              -3.8116
        75                         -0.1103826              -3.0037
        76                         -0.0832067              -2.2642
        77                         -0.0599779              -1.6321
       ...                                ...                  ...
       128                          0.6934861              18.8707
      -------------------------------------------------------------
                  HL-Gap            0.0846556 Eh            2.3036 eV

     #   Z          covCN         q      C6AA      α(0)
     1   6 C        3.760    -0.106    22.581     6.774
     2   6 C        3.905     0.021    20.157     6.382
     3   6 C        3.760    -0.106    22.581     6.774
     4   6 C        2.988    -0.014    28.355     8.735
     5   6 C        2.928    -0.037    28.929     8.821
     6   6 C        2.917    -0.044    29.102     8.846
     7   6 C        2.920    -0.033    28.834     8.806
     8   6 C        2.924    -0.059    29.456     8.900
     9   6 C        2.931     0.057    26.726     8.478
    10   7 N        2.756    -0.070    22.594     7.060
    11   6 C        2.929     0.070    26.433     8.432
    12   6 C        2.922    -0.037    28.926     8.820
    13   6 C        2.920    -0.027    28.687     8.783
    14   6 C        2.920    -0.030    28.748     8.792
    15   6 C        2.920    -0.027    28.687     8.783
    16   6 C        2.922    -0.037    28.926     8.820
    17   6 C        2.922     0.059    26.677     8.470
    18   6 C        2.920    -0.053    29.311     8.878
    19   6 C        2.919    -0.038    28.951     8.823
    20   6 C        2.994     0.003    27.944     8.671
    21   6 C        2.920    -0.058    29.441     8.898
    22   6 C        2.781     0.162    24.487     8.105
    23   9 F        0.786    -0.237    11.622     4.027
    24   6 C        2.913    -0.053    29.314     8.878
    25   6 C        2.922    -0.045    29.114     8.848
    26   6 C        2.978     0.003    27.955     8.673
    27   6 C        2.970    -0.025    28.616     8.775
    28   1 H        0.925     0.037     2.492     2.468
    29   1 H        0.925     0.044     2.402     2.424
    30   1 H        0.925     0.034     2.534     2.489
    31   1 H        0.925     0.037     2.492     2.468
    32   1 H        0.925     0.044     2.402     2.424
    33   1 H        0.925     0.034     2.534     2.489
    34   1 H        0.926     0.034     2.534     2.489
    35   1 H        0.926     0.027     2.635     2.538
    36   1 H        0.926     0.027     2.629     2.536
    37   1 H        0.926     0.024     2.679     2.560
    38   1 H        0.926     0.042     2.428     2.437
    39   1 H        0.926     0.039     2.462     2.454
    40   1 H        0.926     0.038     2.473     2.459
    41   1 H        0.926     0.039     2.462     2.454
    42   1 H        0.926     0.042     2.428     2.437
    43   1 H        0.926     0.031     2.571     2.508
    44   1 H        0.926     0.035     2.515     2.480
    45   1 H        0.926     0.051     2.311     2.377
    46   1 H        0.926     0.050     2.325     2.385
    47   1 H        0.926     0.057     2.229     2.335

molecular dipole:
                 x           y           z       tot (Debye)
 q only:        1.439      -0.296       0.000
   full:        1.499      -0.246      -0.000       3.862

 projected vibrational frequencies (cm⁻¹)
eigval :       -0.00    -0.00     0.00     0.00     0.00     0.00
eigval :      -96.30    21.65    28.30    42.02    60.46    69.38
eigval :       86.83   106.47   151.28   156.04   170.62   201.38
eigval :      221.07   234.67   240.23   266.38   286.07   312.19
eigval :      335.92   348.04   364.02   374.20   390.09   394.85
eigval :      403.55   428.12   454.24   470.17   480.44   503.18
eigval :      518.83   523.37   539.13   567.19   582.73   588.65
eigval :      591.91   613.49   633.05   638.20   673.49   695.70
eigval :      696.66   721.47   737.89   761.45   778.24   798.21
eigval :      811.39   833.51   837.53   864.99   873.23   876.67
eigval :      900.68   909.81   911.00   915.18   920.95   923.47
eigval :      929.48   933.73   937.41   967.55   972.62   975.46
eigval :      996.08  1032.40  1065.85  1078.29  1084.50  1111.24
eigval :     1113.06  1139.13  1148.81  1149.45  1161.86  1179.65
eigval :     1180.54  1185.07  1186.62  1203.90  1230.69  1238.58
eigval :     1244.90  1259.82  1271.83  1272.82  1308.32  1310.74
eigval :     1317.57  1334.34  1339.04  1379.96  1400.56  1408.25
eigval :     1409.86  1430.48  1432.75  1440.38  1466.98  1475.48
eigval :     1489.44  1492.69  1498.13  1504.19  1512.52  1521.32
eigval :     1555.63  1582.82  1588.72  1594.29  1595.79  1605.63
eigval :     1617.03  3019.17  3020.97  3031.77  3035.88  3067.61
eigval :     3068.17  3078.98  3080.38  3082.00  3082.51  3088.26
eigval :     3089.86  3094.04  3098.21  3099.76  3100.37  3102.43
eigval :     3102.93  3104.14  3143.80

   temp. (K)  partition function   enthalpy   heat capacity  entropy
                                   cal/mol     cal/K/mol   cal/K/mol   J/K/mol
 298.15  VIB  0.759E+08            11758.013     79.330     70.187
         ROT  0.128E+08              888.752      2.981     35.496
         INT  0.968E+15            12646.765     82.311    105.683
         TR   0.643E+28             1481.254      4.968     43.462
         TOT                       14128.0190    87.2794   149.1444   624.0203

       T/K    H(0)-H(T)+PV         H(T)/Eh          T*S/Eh         G(T)/Eh
   ------------------------------------------------------------------------
    298.15    0.225144E-01    0.392251E+00    0.708633E-01    0.321387E+00
   ------------------------------------------------------------------------

         :::::::::::::::::::::::::::::::::::::::::::::::::::::
         ::                  THERMODYNAMIC                  ::
         :::::::::::::::::::::::::::::::::::::::::::::::::::::
         :: total free energy         -71.093552729467 Eh   ::
         ::.................................................::
         :: total energy              -71.414940104019 Eh   ::
         :: zero point energy           0.369736279013 Eh   ::
         :: G(RRHO) w/o ZPVE           -0.048348904461 Eh   ::
         :: G(RRHO) contrib.            0.321387374551 Eh   ::
         :::::::::::::::::::::::::::::::::::::::::::::::::::::

           -------------------------------------------------
          | TOTAL ENERGY              -71.414940104019 Eh   |
          | TOTAL ENTHALPY            -71.022689393658 Eh   |
          | TOTAL FREE ENERGY         -71.093552729467 Eh   |
          | GRADIENT NORM               0.000155768754 Eh/α |
          | HOMO-LUMO GAP               2.303596018684 eV   |
           -------------------------------------------------

 * finished run on 2025/07/18 at 12:39:50.923
