   * xtb version 6.7.1 (edcfbbe) compiled by 'albert@albert-system' on 2024-07-22

   ID    Z sym.   atoms
    1    6 C      1-8, 10-16, 18, 20-22, 24-37
    2    7 N      9, 17, 19, 23
    3    1 H      38-73

          program call               : xtb data2507/toluene/TPA-CN-N4-2PY/TPA-CN-N4-2PY.xyz --gfn 2 --gbsa toluene --ohess vtight --parallel 40 --molden --ceasefiles --namespace data2507/toluene/TPA-CN-N4-2PY/TPA-CN-N4-2PY_toluene_S0_preOpt
      * Solvation model:               GBSA
        Solvent                        toluene
        Solvent mass                       9.2140E+01 g/mol
          :  Hamiltonian                  GFN2-xTB          :
 * total energy  :  -100.7383339 Eh     change       -0.2015852E-08 Eh
 * total energy  :  -100.7490758 Eh     change       -0.1074193E-01 Eh
 * total energy  :  -100.7527888 Eh     change       -0.3712940E-02 Eh
 * total energy  :  -100.7523764 Eh     change        0.4123500E-03 Eh
 * total energy  :  -100.7552509 Eh     change       -0.2874479E-02 Eh
 * total energy  :  -100.7559883 Eh     change       -0.7374147E-03 Eh
 * total energy  :  -100.7564267 Eh     change       -0.4384096E-03 Eh
 * total energy  :  -100.7566946 Eh     change       -0.2678666E-03 Eh
 * total energy  :  -100.7568359 Eh     change       -0.1413349E-03 Eh
 * total energy  :  -100.7570330 Eh     change       -0.1971194E-03 Eh
 * total energy  :  -100.7585192 Eh     change        0.4151748E-06 Eh
 * total energy  :  -100.7585187 Eh     change        0.4944031E-06 Eh
 * total energy  :  -100.7585181 Eh     change        0.5853517E-06 Eh
 * total energy  :  -100.7585201 Eh     change       -0.2037658E-05 Eh
 * total energy  :  -100.7585204 Eh     change       -0.2836574E-06 Eh
 * total energy  :  -100.7585202 Eh     change        0.2161152E-06 Eh
 * total energy  :  -100.7585206 Eh     change       -0.3784001E-06 Eh
 * total energy  :  -100.7585211 Eh     change       -0.5218281E-06 Eh
 * total energy  :  -100.7585211 Eh     change       -0.6433622E-07 Eh
   *** GEOMETRY OPTIMIZATION CONVERGED AFTER 72 ITERATIONS ***

 final structure:
================
73
 xtb: 6.7.1 (edcfbbe)
C           -4.34155339830285       -5.22027377490976       -0.94613257163492
C           -3.08002433440891       -5.15970737243638       -0.07951319695703
C           -2.07229509525168       -6.18039319224704       -0.62935316304896
C           -3.46900648746855       -5.53663275004605        1.35795772903167
C           -2.43720918142703       -3.78104708896375       -0.07628676810763
C           -1.28073724625682       -3.56119033391468        0.67023890301839
C           -0.66023913731347       -2.32989292929698        0.70667599855746
C           -1.17421085896461       -1.25845777498323       -0.02156908023878
N           -0.55012446149534       -0.00313606306796        0.00618653499056
C            0.83881563001500        0.09364573603826        0.00741079456879
C            1.48092934893952        1.13283141240046        0.68534830903998
C            2.85478159751900        1.23872248987576        0.66986276305972
C            3.63913076488166        0.30577982327384       -0.00698832786418
C            5.10223515570584        0.41237747908566       -0.02382124423163
C            5.89318473753943       -0.70511400521477        0.21705146733467
C            7.27984270736902       -0.64367641423227        0.23261278536681
N            8.04217513715912       -1.77827582094379        0.45329235931501
C            7.92126985450521        0.58402538847994       -0.05238169114506
N            9.31369962054992        0.65726425816863       -0.01793884925433
C            7.14516725543820        1.70281143638259       -0.28641465253281
C            5.74710740151135        1.63483301253484       -0.26732468643258
C            5.03067735532751        2.80543943839149       -0.57415989934630
N            4.50005675559033        3.78660076158995       -0.85650867974195
C            2.99685899655455       -0.74322792336437       -0.66443784561185
C            1.62272512552250       -0.84504625533927       -0.66832277537188
C           -1.33946652960576        1.15678508206095        0.01681939850212
C           -2.51805985054338        1.20701051697596        0.75832387031948
C           -3.29476506592413        2.34686933614737        0.75888949980498
C           -2.93564139284129        3.48257979789523        0.03497131471602
C           -3.82466841305171        4.71610996940549        0.07936923100830
C           -3.29037138347070        5.85973333033658       -0.78831323279915
C           -3.91257259739295        5.21576815944017        1.52935837785254
C           -5.22660026593771        4.34639702172544       -0.42798147698240
C           -1.75603684681615        3.42071810132248       -0.69841346710022
C           -0.97207926958409        2.28201046533073       -0.71487033890171
C           -2.32867253413338       -1.46484860997698       -0.77058689854849
C           -2.94582744444911       -2.70194001277485       -0.79025507264247
H           -4.75669879766911       -6.22571206601978       -0.91147307309464
H           -5.10020086401573       -4.53118198249073       -0.58177457282545
H           -4.11549721980260       -4.98633494158291       -1.98405916717796
H           -1.77688953259735       -5.90945845867802       -1.64128539134615
H           -1.17779451365692       -6.22510786754003       -0.01409337619001
H           -2.51920973054317       -7.17217928237527       -0.65412860246666
H           -4.16156251129181       -4.80229374060351        1.76501456896225
H           -2.59823295215368       -5.57916227885059        2.00645837034592
H           -3.95192361661884       -6.51160823300187        1.37187395473150
H           -0.85005919351472       -4.36418385758624        1.24946965536085
H            0.22930230096846       -2.18916350246262        1.30398919356755
H            0.89220896702920        1.85752364838215        1.22819978810478
H            3.32933402003352        2.04306849539571        1.21342750602381
H            5.41214814673822       -1.64852869000868        0.43211893086266
H            7.52893802157761       -2.56409939326936        0.82478177889002
H            8.92120409954637       -1.62086577811530        0.92372291268715
H            9.78124208279565       -0.13844080515409       -0.43008828053834
H            9.67884970759652        1.53074255682717       -0.37115965340808
H            7.62129630069484        2.65043607381780       -0.49802625933583
H            3.58461516004101       -1.46693385736203       -1.21038753822170
H            1.14262031721931       -1.64936361968580       -1.20624442429973
H           -2.82040166672508        0.34529412875897        1.33613783553559
H           -4.19844316447049        2.34530589127158        1.34972939793253
H           -2.30930228651622        6.18442749559347       -0.44880231442019
H           -3.96649732803879        6.71009111108495       -0.72290572758175
H           -3.22551157311513        5.56159164951988       -1.83237759547321
H           -4.35110568612959        4.46490686071202        2.18103224948805
H           -2.91960814429006        5.45564612757736        1.90501645643981
H           -4.52678361603786        6.11251031897402        1.57984530830580
H           -5.68450832131682        3.58105521760639        0.19256626066054
H           -5.87100881701687        5.22306536143090       -0.41815067848244
H           -5.17022379350167        3.97057623048490       -1.44784695953352
H           -1.42543327502430        4.26442373902635       -1.28188328121658
H           -0.06365722921150        2.26528053918737       -1.30041190991969
H           -2.74346849288871       -0.64759504733715       -1.34311225766000
H           -3.83623044756127       -2.80918773868332       -1.38796852269377

          :  Hamiltonian                  GFN2-xTB          :
         :: gradient norm              0.000049157053 Eh/a0 ::
         :: HOMO-LUMO gap              2.251837474004 eV    ::
         :: SCC energy              -102.541794122734 Eh    ::
         :: -> dispersion             -0.087320103248 Eh    ::
         :: -> Gsolv                  -0.044356710964 Eh    ::
         :: repulsion energy           1.783272976920 Eh    ::

    * Orbital Energies and Occupations

         #    Occupation            Energy/Eh            Energy/eV
      -------------------------------------------------------------
         1        2.0000           -0.6728511             -18.3092
       ...           ...                  ...                  ...
        82        2.0000           -0.4173356             -11.3563
        83        2.0000           -0.4162803             -11.3276
        84        2.0000           -0.4142169             -11.2714
        85        2.0000           -0.4106932             -11.1755
        86        2.0000           -0.4097630             -11.1502
        87        2.0000           -0.4059498             -11.0465
        88        2.0000           -0.4017781             -10.9329
        89        2.0000           -0.4006144             -10.9013
        90        2.0000           -0.3987045             -10.8493
        91        2.0000           -0.3930368             -10.6951
        92        2.0000           -0.3914807             -10.6527
        93        2.0000           -0.3647835              -9.9263
        94        2.0000           -0.3433440              -9.3429 (HOMO)
        95                         -0.2605906              -7.0910 (LUMO)
        96                         -0.2388550              -6.4996
        97                         -0.2249182              -6.1203
        98                         -0.2239984              -6.0953
        99                         -0.2183461              -5.9415
       100                         -0.2158056              -5.8724
       101                         -0.2116036              -5.7580
       102                         -0.2010459              -5.4707
       103                         -0.1861414              -5.0652
       104                         -0.1593728              -4.3368
       105                         -0.1002870              -2.7289
       ...                                ...                  ...
       184                          1.1638034              31.6687
      -------------------------------------------------------------
                  HL-Gap            0.0827534 Eh            2.2518 eV

     #   Z          covCN         q      C6AA      α(0)
     1   6 C        3.761    -0.107    22.600     6.777
     2   6 C        3.902     0.025    20.094     6.372
     3   6 C        3.761    -0.105    22.555     6.770
     4   6 C        3.761    -0.105    22.555     6.770
     5   6 C        2.972     0.001    27.996     8.679
     6   6 C        2.927    -0.037    28.910     8.818
     7   6 C        2.921    -0.051    29.258     8.870
     8   6 C        2.924     0.061    26.630     8.463
     9   7 N        2.751    -0.080    22.799     7.092
    10   6 C        2.922     0.067    26.497     8.441
    11   6 C        2.921    -0.049    29.220     8.865
    12   6 C        2.923    -0.032    28.806     8.801
    13   6 C        2.976    -0.004    28.110     8.697
    14   6 C        2.977     0.007    27.859     8.658
    15   6 C        2.927    -0.069    29.711     8.939
    16   6 C        2.899     0.061    26.622     8.460
    17   7 N        2.640    -0.280    27.237     7.751
    18   6 C        2.899     0.053    26.801     8.488
    19   7 N        2.638    -0.296    27.628     7.806
    20   6 C        2.933    -0.057    29.411     8.894
    21   6 C        2.974    -0.010    28.258     8.720
    22   6 C        1.914     0.120    28.159     8.570
    23   7 N        0.911    -0.306    27.872     7.636
    24   6 C        2.924    -0.037    28.912     8.818
    25   6 C        2.920    -0.051    29.268     8.872
    26   6 C        2.924     0.061    26.635     8.463
    27   6 C        2.921    -0.050    29.244     8.868
    28   6 C        2.927    -0.037    28.910     8.818
    29   6 C        2.972     0.002    27.985     8.677
    30   6 C        3.902     0.025    20.094     6.372
    31   6 C        3.761    -0.107    22.596     6.776
    32   6 C        3.761    -0.105    22.553     6.770
    33   6 C        3.761    -0.105    22.558     6.771
    34   6 C        2.925    -0.040    28.998     8.831
    35   6 C        2.921    -0.050    29.239     8.867
    36   6 C        2.922    -0.050    29.250     8.869
    37   6 C        2.925    -0.041    29.007     8.832
    38   1 H        0.925     0.038     2.479     2.462
    39   1 H        0.925     0.036     2.503     2.474
    40   1 H        0.925     0.036     2.505     2.475
    41   1 H        0.925     0.033     2.550     2.497
    42   1 H        0.925     0.037     2.495     2.470
    43   1 H        0.925     0.039     2.463     2.454
    44   1 H        0.925     0.033     2.551     2.497
    45   1 H        0.925     0.037     2.496     2.471
    46   1 H        0.925     0.039     2.464     2.455
    47   1 H        0.926     0.033     2.546     2.495
    48   1 H        0.926     0.028     2.621     2.532
    49   1 H        0.926     0.032     2.557     2.500
    50   1 H        0.926     0.026     2.642     2.542
    51   1 H        0.926     0.040     2.445     2.445
    52   1 H        0.860     0.169     1.281     1.773
    53   1 H        0.860     0.171     1.269     1.765
    54   1 H        0.860     0.166     1.295     1.783
    55   1 H        0.860     0.162     1.323     1.802
    56   1 H        0.925     0.031     2.567     2.506
    57   1 H        0.926     0.036     2.500     2.472
    58   1 H        0.926     0.035     2.518     2.481
    59   1 H        0.926     0.029     2.602     2.523
    60   1 H        0.926     0.033     2.538     2.491
    61   1 H        0.925     0.036     2.508     2.477
    62   1 H        0.925     0.038     2.476     2.461
    63   1 H        0.925     0.036     2.507     2.476
    64   1 H        0.925     0.037     2.493     2.469
    65   1 H        0.925     0.032     2.556     2.500
    66   1 H        0.925     0.039     2.459     2.452
    67   1 H        0.925     0.037     2.488     2.467
    68   1 H        0.925     0.039     2.461     2.453
    69   1 H        0.925     0.033     2.547     2.496
    70   1 H        0.926     0.039     2.457     2.451
    71   1 H        0.926     0.026     2.642     2.542
    72   1 H        0.926     0.028     2.613     2.528
    73   1 H        0.926     0.040     2.450     2.448

molecular dipole:
                 x           y           z       tot (Debye)
 q only:        0.773      -2.053       0.460
   full:        1.107      -2.323       0.536       6.681

 projected vibrational frequencies (cm⁻¹)
eigval :       -0.00    -0.00     0.00     0.00     0.00     0.00
eigval :       17.09    17.56    22.07    23.85    24.92    32.07
eigval :       48.12    53.98    62.40    67.44    88.03    94.43
eigval :      104.17   110.33   134.92   147.29   163.68   169.68
eigval :      170.34   177.34   188.41   210.57   222.78   223.70
eigval :      228.07   238.41   251.89   270.13   271.66   285.51
eigval :      287.39   307.48   311.21   313.31   317.91   340.29
eigval :      346.40   355.98   370.46   371.44   380.94   382.69
eigval :      389.11   391.92   395.72   403.31   414.40   416.61
eigval :      433.99   435.15   447.79   456.74   460.20   467.62
eigval :      499.23   525.28   527.45   536.68   556.91   565.57
eigval :      593.45   598.59   606.71   607.36   610.39   622.23
eigval :      645.65   672.59   683.02   684.98   690.70   694.93
eigval :      717.18   724.49   750.65   765.18   811.58   814.12
eigval :      816.34   843.74   848.87   859.95   868.47   869.17
eigval :      871.91   874.92   881.34   914.06   916.05   918.06
eigval :      922.89   926.91   927.74   929.71   932.73   958.63
eigval :      959.06   961.32   962.27   962.88   963.14   986.20
eigval :     1012.39  1024.98  1033.48  1034.16  1035.03  1035.09
eigval :     1038.50  1042.95  1061.63  1142.30  1142.58  1144.70
eigval :     1151.88  1153.87  1176.02  1189.31  1201.54  1209.52
eigval :     1213.95  1225.18  1225.36  1226.18  1232.26  1232.28
eigval :     1250.03  1261.74  1272.18  1277.34  1281.31  1283.79
eigval :     1290.01  1312.24  1318.94  1323.11  1325.34  1328.38
eigval :     1333.42  1384.49  1396.42  1399.53  1402.15  1402.66
eigval :     1404.60  1409.87  1414.71  1422.59  1426.12  1426.80
eigval :     1482.35  1486.10  1486.59  1488.38  1488.83  1491.50
eigval :     1492.07  1498.62  1499.69  1500.14  1503.62  1503.74
eigval :     1506.87  1509.61  1510.76  1516.50  1517.04  1524.51
eigval :     1539.38  1552.81  1564.28  1568.13  1585.44  1595.46
eigval :     1600.74  1604.95  2342.38  3018.57  3019.73  3020.42
eigval :     3020.68  3023.67  3023.77  3025.12  3025.55  3027.49
eigval :     3027.63  3030.51  3030.76  3035.08  3035.71  3043.45
eigval :     3044.34  3046.34  3046.90  3071.70  3072.23  3072.50
eigval :     3073.29  3073.94  3075.57  3076.94  3079.58  3085.83
eigval :     3086.07  3086.72  3089.80  3111.45  3111.74  3421.79
eigval :     3435.24  3467.65  3482.90

   temp. (K)  partition function   enthalpy   heat capacity  entropy
                                   cal/mol     cal/K/mol   cal/K/mol   J/K/mol
 298.15  VIB  0.922E+16            21233.284    130.884    130.544
         ROT  0.603E+08              888.752      2.981     38.582
         INT  0.556E+24            22122.036    133.865    169.127
         TR   0.105E+29             1481.254      4.968     44.427
         TOT                       23603.2899   138.8332   213.5536   893.5083

       T/K    H(0)-H(T)+PV         H(T)/Eh          T*S/Eh         G(T)/Eh
   ------------------------------------------------------------------------
    298.15    0.376142E-01    0.638400E+00    0.101466E+00    0.536933E+00
   ------------------------------------------------------------------------

         :::::::::::::::::::::::::::::::::::::::::::::::::::::
         ::                  THERMODYNAMIC                  ::
         :::::::::::::::::::::::::::::::::::::::::::::::::::::
         :: total free energy        -100.221587781830 Eh   ::
         ::.................................................::
         :: total energy             -100.758521147428 Eh   ::
         :: zero point energy           0.600785339532 Eh   ::
         :: G(RRHO) w/o ZPVE           -0.063851973934 Eh   ::
         :: G(RRHO) contrib.            0.536933365598 Eh   ::
         :::::::::::::::::::::::::::::::::::::::::::::::::::::

           -------------------------------------------------
          | TOTAL ENERGY             -100.758521147428 Eh   |
          | TOTAL ENTHALPY           -100.120121571254 Eh   |
          | TOTAL FREE ENERGY        -100.221587781830 Eh   |
          | GRADIENT NORM               0.000048999809 Eh/α |
          | HOMO-LUMO GAP               2.251835905392 eV   |
           -------------------------------------------------

 * finished run on 2025/09/04 at 18:47:52.978
