   * xtb version 6.7.1 (edcfbbe) compiled by 'albert@albert-system' on 2024-07-22

   ID    Z sym.   atoms
    1    6 C      1-8, 10-16, 18, 20-22, 24-37
    2    7 N      9, 17, 19, 23
    3    1 H      38-73

          program call               : xtb data2507/toluene/TPA-CN-N4-2PY/TPA-CN-N4-2PY_toluene_S0_finalOpt.xtbopt.xyz --gfn 2 --uhf 2 --gbsa toluene --ohess vtight --parallel 40 --molden --ceasefiles --namespace data2507/toluene/TPA-CN-N4-2PY/TPA-CN-N4-2PY_toluene_T1_preOpt
      * Solvation model:               GBSA
        Solvent                        toluene
        Solvent mass                       9.2140E+01 g/mol
          :  Hamiltonian                  GFN2-xTB          :
 * total energy  :  -100.6604467 Eh     change       -0.1564786E-08 Eh
 * total energy  :  -100.6664633 Eh     change       -0.6016554E-02 Eh
 * total energy  :  -100.6685091 Eh     change       -0.2045870E-02 Eh
 * total energy  :  -100.6691021 Eh     change       -0.5929653E-03 Eh
 * total energy  :  -100.6696596 Eh     change       -0.5575292E-03 Eh
 * total energy  :  -100.6699133 Eh     change       -0.2536275E-03 Eh
 * total energy  :  -100.6702365 Eh     change       -0.3232497E-03 Eh
 * total energy  :  -100.6704261 Eh     change       -0.1895753E-03 Eh
 * total energy  :  -100.6706142 Eh     change       -0.1880977E-03 Eh
 * total energy  :  -100.6707440 Eh     change       -0.1297815E-03 Eh
 * total energy  :  -100.6718722 Eh     change       -0.6911949E-06 Eh
 * total energy  :  -100.6718727 Eh     change       -0.4917245E-06 Eh
 * total energy  :  -100.6718731 Eh     change       -0.4151946E-06 Eh
 * total energy  :  -100.6718735 Eh     change       -0.3552198E-06 Eh
 * total energy  :  -100.6718738 Eh     change       -0.3093589E-06 Eh
 * total energy  :  -100.6718741 Eh     change       -0.2628352E-06 Eh
 * total energy  :  -100.6718743 Eh     change       -0.2192067E-06 Eh
 * total energy  :  -100.6718745 Eh     change       -0.2402702E-06 Eh
 * total energy  :  -100.6718745 Eh     change       -0.4136481E-08 Eh
   *** GEOMETRY OPTIMIZATION CONVERGED AFTER 68 ITERATIONS ***

 final structure:
================
73
 xtb: 6.7.1 (edcfbbe)
C           -5.65583152217393       -4.66501849482868        0.50151609376757
C           -4.24194980630328       -4.94747425363744       -0.02883569088273
C           -4.32190201630466       -5.44340291487267       -1.48091055504986
C           -3.62576552615476       -6.06081745250111        0.82368392085192
C           -3.43047631743883       -3.66332219839756        0.00920611025024
C           -2.24413313099571       -3.53310894419000        0.72663572231575
C           -1.53110142428760       -2.35096806638852        0.73738519245366
C           -1.98420883727526       -1.24137956487293        0.02251864280993
N           -1.26295932686288       -0.04634093115832        0.02409715908781
C            0.12197232830960       -0.07153342187525        0.02974405926824
C            0.86860356945386        0.91524795559582        0.71158011092337
C            2.22977994428204        0.89555476214402        0.70816624941616
C            2.97734526133878       -0.11244725256239        0.02214721107152
C            4.38792099796724       -0.14027773313037        0.01924169942269
C            5.09618992031146       -1.34121313621481       -0.23670741184218
C            6.45693566549824       -1.45394467348815       -0.18281292511259
N            7.11116516010629       -2.66110305628168       -0.43749529378473
C            7.25415119815456       -0.28554863999936        0.08827575097975
N            8.63259903601793       -0.39632169375895        0.13723983022142
C            6.61010507860475        0.90292043695201        0.34801132187238
C            5.21352777693247        1.02821495686622        0.31929096768426
C            4.73332048732806        2.32009102609516        0.46503461932150
N            4.44638703031166        3.44164991576447        0.57527055695211
C            2.19624536121504       -1.10570434435871       -0.65332373419786
C            0.83569093204668       -1.08363206484036       -0.65138094697941
C           -1.94149223225182        1.17319951832992        0.02474117460425
C           -3.13336544706705        1.32905924107462        0.73411473239851
C           -3.79630863842524        2.53982963516107        0.73705501400800
C           -3.30570634340830        3.64198960947845        0.04143716639092
C           -4.00549155148135        4.99050882546789        0.02144407382767
C           -5.29372060964459        5.00017552325236        0.85011166147964
C           -4.36623911329839        5.34499504526194       -1.42944521150364
C           -3.05742601878487        6.05431296114520        0.59558851555998
C           -2.11265880503165        3.47289786886755       -0.66394808914457
C           -1.43933429923392        2.27159702420667       -0.67820161962033
C           -3.17276050175211       -1.35989804885410       -0.70283940908391
C           -3.87199628943159       -2.54639618878952       -0.70306736479981
H           -5.60731780112356       -4.28958004588235        1.52185528216522
H           -6.17045750510192       -3.92858369317566       -0.10921994640916
H           -6.24431463541194       -5.58001798432708        0.49843049178386
H           -4.88438346432521       -6.37349972415416       -1.52670122432495
H           -4.81301260775098       -4.71680699169494       -2.12226709502014
H           -3.32287705405409       -5.62468976346749       -1.87274807342647
H           -3.56529760238356       -5.76615485846049        1.86897269447259
H           -2.63210608788498       -6.32335606771362        0.46774776354238
H           -4.24933549372865       -6.95048526585684        0.76172542023214
H           -1.85820723085707       -4.35840821477318        1.30185987597821
H           -0.62278834035987       -2.27144795626557        1.31679991875467
H            0.34294063034961        1.67395151839010        1.27388559110516
H            2.76186308685548        1.63573803108418        1.28324771169144
H            4.52867243968302       -2.24213197412605       -0.41728163112227
H            6.48536445697516       -3.45433207186305       -0.46728887761860
H            7.90855394743590       -2.83477383907271        0.15951531292741
H            9.03570748318557       -1.07241723857083       -0.49517913733959
H            9.12649368781482        0.48410237657596        0.15601321300326
H            7.19785720631690        1.78847257698465        0.55478897476730
H            2.69803259778436       -1.86057999392406       -1.23795314504699
H            0.28168986781226       -1.82373519636017       -1.21152988454438
H           -3.52848533557833        0.49677213811797        1.29814636431969
H           -4.70818183027365        2.61309865070431        1.30617344183419
H           -6.01287097157937        4.28057572769286        0.46548181755248
H           -5.74781341538476        5.98773497316028        0.79939094341856
H           -5.08898277617098        4.77921961382487        1.89522103427733
H           -3.47918169633220        5.41730851751483       -2.05259044529168
H           -5.01971002121721        4.58409884042694       -1.85188992062896
H           -4.88384668813944        6.30130514014985       -1.46188055872346
H           -2.14711647345489        6.13576444788052        0.00797064044379
H           -3.54672977419926        7.02601049388617        0.60170158759204
H           -2.78056044840288        5.80106279147886        1.61727035091627
H           -1.69505946920784        4.29460851020184       -1.22522106892587
H           -0.52524706433907        2.16767915958683       -1.24452993007164
H           -3.53125430965498       -0.51756292115948       -1.27620134331385
H           -4.78079474084974       -2.60078344167239       -1.28245697931759

          :  Hamiltonian                  GFN2-xTB          :
         :: gradient norm              0.000044245697 Eh/a0 ::
         :: HOMO-LUMO gap              0.758981108318 eV    ::
         :: SCC energy              -102.434790637425 Eh    ::
         :: -> dispersion             -0.087033187943 Eh    ::
         :: -> Gsolv                  -0.048994261443 Eh    ::
         :: repulsion energy           1.762916109321 Eh    ::

    * Orbital Energies and Occupations

         #    Occupation            Energy/Eh            Energy/eV
      -------------------------------------------------------------
         1        2.0000           -0.6732337             -18.3196
       ...           ...                  ...                  ...
        83        2.0000           -0.4154505             -11.3050
        84        2.0000           -0.4141729             -11.2702
        85        2.0000           -0.4103966             -11.1675
        86        2.0000           -0.4092431             -11.1361
        87        2.0000           -0.4065573             -11.0630
        88        2.0000           -0.4028361             -10.9617
        89        2.0000           -0.4003866             -10.8951
        90        2.0000           -0.3998724             -10.8811
        91        2.0000           -0.3954112             -10.7597
        92        2.0000           -0.3819823             -10.3943
        93        1.9999           -0.3609042              -9.8207
        94        1.0001           -0.3427090              -9.3256
        95        1.0000           -0.2618823              -7.1262 (HOMO)
        96        0.0000           -0.2339904              -6.3672 (LUMO)
        97                         -0.2312350              -6.2922
        98                         -0.2280001              -6.2042
        99                         -0.2236069              -6.0847
       100                         -0.2133791              -5.8063
       101                         -0.2109925              -5.7414
       102                         -0.1836330              -4.9969
       103                         -0.1782556              -4.8506
       104                         -0.1437931              -3.9128
       105                         -0.1036948              -2.8217
       106                         -0.1012231              -2.7544
       ...                                ...                  ...
       184                          1.1533138              31.3833
      -------------------------------------------------------------
                  HL-Gap            0.0278918 Eh            0.7590 eV

     #   Z          covCN         q      C6AA      α(0)
     1   6 C        3.761    -0.107    22.586     6.775
     2   6 C        3.902     0.026    20.073     6.369
     3   6 C        3.761    -0.106    22.578     6.773
     4   6 C        3.761    -0.109    22.631     6.782
     5   6 C        2.972     0.009    27.815     8.651
     6   6 C        2.924    -0.038    28.941     8.822
     7   6 C        2.920    -0.044    29.092     8.845
     8   6 C        2.927     0.058    26.700     8.474
     9   7 N        2.751    -0.028    21.784     6.932
    10   6 C        2.925     0.041    27.091     8.536
    11   6 C        2.911    -0.043    29.074     8.842
    12   6 C        2.916    -0.044    29.104     8.847
    13   6 C        2.966    -0.003    28.097     8.695
    14   6 C        2.963    -0.016    28.405     8.742
    15   6 C        2.920    -0.072    29.798     8.952
    16   6 C        2.892     0.049    26.899     8.503
    17   7 N        2.638    -0.295    27.600     7.802
    18   6 C        2.895     0.054    26.793     8.487
    19   7 N        2.638    -0.269    26.977     7.714
    20   6 C        2.939    -0.057    29.423     8.896
    21   6 C        2.962    -0.025    28.614     8.774
    22   6 C        1.923     0.101    28.583     8.634
    23   7 N        0.911    -0.372    29.608     7.870
    24   6 C        2.917    -0.047    29.158     8.855
    25   6 C        2.911    -0.045    29.121     8.849
    26   6 C        2.927     0.058    26.697     8.473
    27   6 C        2.920    -0.046    29.133     8.851
    28   6 C        2.923    -0.038    28.946     8.823
    29   6 C        2.972     0.009    27.804     8.649
    30   6 C        3.902     0.027    20.073     6.368
    31   6 C        3.761    -0.109    22.638     6.783
    32   6 C        3.761    -0.106    22.578     6.774
    33   6 C        3.761    -0.106    22.570     6.772
    34   6 C        2.926    -0.033    28.822     8.804
    35   6 C        2.919    -0.043    29.064     8.841
    36   6 C        2.919    -0.045    29.116     8.849
    37   6 C        2.926    -0.034    28.835     8.806
    38   1 H        0.925     0.034     2.524     2.484
    39   1 H        0.925     0.039     2.463     2.454
    40   1 H        0.925     0.041     2.435     2.440
    41   1 H        0.925     0.041     2.432     2.439
    42   1 H        0.925     0.039     2.468     2.457
    43   1 H        0.925     0.034     2.531     2.488
    44   1 H        0.925     0.037     2.483     2.464
    45   1 H        0.925     0.037     2.486     2.466
    46   1 H        0.925     0.040     2.454     2.450
    47   1 H        0.926     0.047     2.353     2.399
    48   1 H        0.926     0.037     2.492     2.469
    49   1 H        0.926     0.027     2.623     2.533
    50   1 H        0.926     0.026     2.642     2.542
    51   1 H        0.926     0.029     2.595     2.519
    52   1 H        0.860     0.162     1.319     1.799
    53   1 H        0.860     0.165     1.305     1.789
    54   1 H        0.860     0.176     1.236     1.742
    55   1 H        0.860     0.169     1.280     1.772
    56   1 H        0.925     0.020     2.733     2.585
    57   1 H        0.926     0.030     2.583     2.513
    58   1 H        0.926     0.032     2.562     2.503
    59   1 H        0.926     0.039     2.469     2.457
    60   1 H        0.926     0.049     2.330     2.387
    61   1 H        0.925     0.039     2.466     2.456
    62   1 H        0.925     0.040     2.449     2.447
    63   1 H        0.925     0.038     2.479     2.462
    64   1 H        0.925     0.038     2.478     2.462
    65   1 H        0.925     0.035     2.515     2.480
    66   1 H        0.925     0.041     2.429     2.437
    67   1 H        0.925     0.037     2.485     2.465
    68   1 H        0.925     0.041     2.432     2.439
    69   1 H        0.925     0.034     2.536     2.491
    70   1 H        0.926     0.039     2.456     2.451
    71   1 H        0.926     0.035     2.515     2.480
    72   1 H        0.926     0.038     2.481     2.463
    73   1 H        0.926     0.042     2.426     2.436

molecular dipole:
                 x           y           z       tot (Debye)
 q only:       -1.802      -2.626      -0.392
   full:       -1.475      -2.971      -0.403       8.492

 projected vibrational frequencies (cm⁻¹)
eigval :       -0.00    -0.00     0.00     0.00     0.00     0.00
eigval :       15.74    16.73    22.90    24.98    27.55    32.11
eigval :       43.77    56.53    67.18    72.59    88.50    98.98
eigval :      105.91   117.28   141.74   149.88   167.86   170.60
eigval :      172.23   181.55   187.28   206.34   221.07   226.45
eigval :      235.19   237.08   256.69   267.65   268.78   281.72
eigval :      288.16   312.74   314.28   315.40   317.76   321.56
eigval :      335.06   353.98   356.19   365.04   380.91   382.35
eigval :      384.30   389.18   390.26   392.62   397.72   417.10
eigval :      425.99   431.46   434.14   454.49   458.53   467.91
eigval :      470.96   487.17   524.57   530.47   551.35   561.01
eigval :      575.67   587.28   597.08   605.43   607.01   609.39
eigval :      619.33   648.78   654.18   674.80   686.34   687.07
eigval :      703.83   714.25   743.36   759.39   786.72   813.74
eigval :      814.16   816.72   822.41   833.80   851.17   861.78
eigval :      864.80   874.02   878.57   897.35   904.69   910.77
eigval :      912.28   916.51   926.57   928.25   929.70   950.22
eigval :      959.49   959.60   961.28   961.91   963.15   963.67
eigval :      984.18  1008.06  1019.12  1033.86  1034.52  1034.67
eigval :     1035.50  1039.22  1059.31  1138.90  1140.03  1141.17
eigval :     1151.31  1152.44  1174.26  1183.28  1198.99  1200.90
eigval :     1206.76  1223.56  1223.69  1229.10  1230.59  1231.29
eigval :     1235.22  1254.87  1273.02  1277.32  1279.12  1282.58
eigval :     1288.55  1304.61  1315.11  1321.30  1325.32  1328.27
eigval :     1337.94  1354.61  1390.98  1396.21  1398.55  1401.48
eigval :     1402.56  1403.12  1408.92  1416.84  1426.67  1426.98
eigval :     1435.12  1453.44  1468.13  1471.92  1475.74  1483.73
eigval :     1487.71  1488.51  1490.59  1490.85  1497.91  1498.31
eigval :     1501.09  1501.76  1502.51  1510.44  1511.49  1515.25
eigval :     1516.15  1519.21  1538.11  1544.56  1564.31  1574.38
eigval :     1584.65  1588.01  2221.88  3021.77  3021.93  3022.19
eigval :     3023.14  3025.64  3026.16  3026.34  3027.49  3029.59
eigval :     3029.99  3032.37  3032.57  3037.54  3037.58  3044.77
eigval :     3046.39  3048.63  3049.48  3053.86  3067.97  3071.90
eigval :     3079.13  3080.19  3080.48  3081.41  3082.70  3093.40
eigval :     3093.86  3094.94  3117.26  3117.70  3117.96  3409.96
eigval :     3422.48  3459.69  3475.77

   temp. (K)  partition function   enthalpy   heat capacity  entropy
                                   cal/mol     cal/K/mol   cal/K/mol   J/K/mol
 298.15  VIB  0.825E+16            21397.656    132.378    131.039
         ROT  0.607E+08              888.752      2.981     38.597
         INT  0.501E+24            22286.408    135.359    169.636
         TR   0.105E+29             1481.254      4.968     44.427
         TOT                       23767.6624   140.3268   214.0627   895.6383

       T/K    H(0)-H(T)+PV         H(T)/Eh          T*S/Eh         G(T)/Eh
   ------------------------------------------------------------------------
    298.15    0.378762E-01    0.635797E+00    0.101708E+00    0.534089E+00
   ------------------------------------------------------------------------

         :::::::::::::::::::::::::::::::::::::::::::::::::::::
         ::                  THERMODYNAMIC                  ::
         :::::::::::::::::::::::::::::::::::::::::::::::::::::
         :: total free energy        -100.137785553131 Eh   ::
         ::.................................................::
         :: total energy             -100.671874525299 Eh   ::
         :: zero point energy           0.597920884153 Eh   ::
         :: G(RRHO) w/o ZPVE           -0.063831911985 Eh   ::
         :: G(RRHO) contrib.            0.534088972168 Eh   ::
         :::::::::::::::::::::::::::::::::::::::::::::::::::::

           -------------------------------------------------
          | TOTAL ENERGY             -100.671874525299 Eh   |
          | TOTAL ENTHALPY           -100.036077460265 Eh   |
          | TOTAL FREE ENERGY        -100.137785553131 Eh   |
          | GRADIENT NORM               0.000044364897 Eh/α |
          | HOMO-LUMO GAP               0.758974816409 eV   |
           -------------------------------------------------

 * finished run on 2025/09/04 at 18:51:32.099
