   * xtb version 6.7.1 (edcfbbe) compiled by 'albert@albert-system' on 2024-07-22

   ID    Z sym.   atoms
    1    6 C      1-8, 10-16, 18, 20-22, 24-37
    2    7 N      9, 17, 19, 23
    3    1 H      38-73

          program call               : xtb data2507/toluene/TPA-CN-N4-2PY/TPA-CN-N4-2PY_toluene_S0_crest.xyz --gfn 2 --gbsa toluene --ohess vtight --parallel 40 --molden --ceasefiles --namespace data2507/toluene/TPA-CN-N4-2PY/TPA-CN-N4-2PY_toluene_S0_finalOpt
      * Solvation model:               GBSA
        Solvent                        toluene
        Solvent mass                       9.2140E+01 g/mol
          :  Hamiltonian                  GFN2-xTB          :
 * total energy  :  -100.7584355 Eh     change       -0.2075794E-08 Eh
 * total energy  :  -100.7584736 Eh     change       -0.3814910E-04 Eh
 * total energy  :  -100.7584920 Eh     change       -0.1840633E-04 Eh
 * total energy  :  -100.7584921 Eh     change       -0.3295047E-07 Eh
 * total energy  :  -100.7584967 Eh     change       -0.4684034E-05 Eh
 * total energy  :  -100.7585017 Eh     change       -0.4958940E-05 Eh
 * total energy  :  -100.7585036 Eh     change       -0.1906743E-05 Eh
 * total energy  :  -100.7585072 Eh     change       -0.3578390E-05 Eh
 * total energy  :  -100.7585104 Eh     change       -0.3213181E-05 Eh
 * total energy  :  -100.7585127 Eh     change       -0.2258492E-05 Eh
 * total energy  :  -100.7585308 Eh     change       -0.2802859E-05 Eh
 * total energy  :  -100.7585329 Eh     change       -0.2067509E-05 Eh
 * total energy  :  -100.7585349 Eh     change       -0.1961579E-05 Eh
 * total energy  :  -100.7585365 Eh     change       -0.1609549E-05 Eh
 * total energy  :  -100.7585378 Eh     change       -0.1290922E-05 Eh
 * total energy  :  -100.7585387 Eh     change       -0.9546464E-06 Eh
 * total energy  :  -100.7585393 Eh     change       -0.6086631E-06 Eh
 * total energy  :  -100.7585396 Eh     change       -0.3065931E-06 Eh
 * total energy  :  -100.7585396 Eh     change       -0.8438931E-08 Eh
   *** GEOMETRY OPTIMIZATION CONVERGED AFTER 22 ITERATIONS ***

 final structure:
================
73
 xtb: 6.7.1 (edcfbbe)
C           -5.69896366899284       -4.62446343902753        0.37996167197975
C           -4.27741355362096       -4.92541094684995       -0.11802318906555
C           -4.32991211061534       -5.41203897706409       -1.57413037575296
C           -3.70003293172012       -6.05430900048247        0.74135720716383
C           -3.44672510625727       -3.65293118008766       -0.04938148659262
C           -2.29025867158407       -3.53916257468416        0.71394275767471
C           -1.56192661498449       -2.36459409490859        0.75378610110996
C           -1.96326584460430       -1.25446617352598        0.01687306285729
N           -1.22782152103596       -0.06042675878286        0.05143095868989
C            0.16397502594063       -0.09203117812065        0.05724077380600
C            0.89844144278397        0.88249823641857        0.73749602081976
C            2.27627190472070        0.86215776427726        0.72215022090714
C            2.97194046194401       -0.13776217025321        0.04411072337706
C            4.43868037238777       -0.16382376415797        0.02314710536768
C            5.12663795973781       -1.34754363123279        0.26347775844488
C            6.51325506133448       -1.41180456362867        0.27055452634831
N            7.17115609520243       -2.61017604283606        0.48962731001651
C            7.26118342434862       -0.24770035470337       -0.02152711286716
N            8.65483336774546       -0.30095927446823        0.00421837882040
C            6.58814436155953        0.93612699801381       -0.25455650994048
C            5.18980302251047        0.99489475018493       -0.22743652650986
C            4.57937670089582        2.22363648089135       -0.53609733286048
N            4.13637744695077        3.24659534680254       -0.82134859531014
C            2.23648130697849       -1.12374994563466       -0.61318731954973
C            0.85887209905228       -1.09886794731165       -0.61787082798230
C           -1.90978375233579        1.16510643025162        0.06896357711569
C           -3.08851169460443        1.31207758370535        0.79380248555494
C           -3.76549019331465        2.51757846464542        0.80437460849268
C           -3.29434088780433        3.62291513634090        0.10512356906550
C           -4.00224042932406        4.96922681493178        0.09931645215422
C           -5.28132858118419        4.96741315701951        0.94215980480131
C           -4.38157365613761        5.33162071293920       -1.34438868920678
C           -3.05429283912876        6.03466509670180        0.67011244303636
C           -2.11257269620278        3.46252008823208       -0.61661700780371
C           -1.43218129163684        2.26310162646476       -0.64425592246238
C           -3.12030011008852       -1.35615483779330       -0.75284735230998
C           -3.84214004268828       -2.53128422013164       -0.77643967656687
H           -5.66934950060993       -4.25846831656288        1.40457789022013
H           -6.18391033226553       -3.87237978996683       -0.23627287234160
H           -6.30400156419800       -5.52845201238311        0.35366749683603
H           -4.90403116048118       -6.33398077991215       -1.64028889060661
H           -4.79516465396915       -4.67439906491149       -2.22225651043841
H           -3.32419277727773       -5.60410357963462       -1.94323886953047
H           -3.66726908089938       -5.77013650204195        1.79078874806409
H           -2.69887974421900       -6.32380832595139        0.41250615566684
H           -4.33144873288825       -6.93622557610330        0.65193440888510
H           -1.93728308405514       -4.36958925574882        1.30349477381180
H           -0.67215573735507       -2.30337344900653        1.36419665740664
H            0.37867599340607        1.65728788739177        1.28157111721457
H            2.82251025838496        1.61949428602393        1.26592792832300
H            4.56357974982729       -2.24315395897734        0.48374130865273
H            6.59110916952052       -3.34556486645834        0.86600882536528
H            8.06388996562525       -2.53224862544553        0.95414592916020
H            9.04504741873524       -1.13568074024120       -0.41127823147636
H            9.09505736270047        0.53563292548368       -0.35280976375311
H            7.14714937736424        1.83599069668044       -0.47177261609746
H            2.75573286906134       -1.89820038328589       -1.15903670180058
H            0.30728049018137       -1.85563657463773       -1.15618081432369
H           -3.47560652913160        0.47340329651545        1.35477221351105
H           -4.67250124241271        2.57922245284483        1.38332418097547
H           -5.99917791069494        4.24364918014607        0.56271301529813
H           -5.74312944418991        5.95201425580230        0.90061136985740
H           -5.06347868646124        4.74258628868111        1.98383872055244
H           -3.50201709049415        5.40893640711510       -1.97762833375390
H           -5.03749415352932        4.57075049102027       -1.76329975295119
H           -4.90222315210986        6.28681572592225       -1.36632247917005
H           -2.15213415106389        6.12475894880617        0.07117455733799
H           -3.54848802378891        7.00388395340598        0.69042910270602
H           -2.76317886374884        5.77401948800959        1.68602476790149
H           -1.70655321769579        4.28760608360574       -1.18231287744509
H           -0.52243740177535        2.17224734078700       -1.22073481625716
H           -3.44863213251534       -0.50613884685367       -1.33374944228811
H           -4.73126308290220       -2.56894668005679       -1.38774181763601

          :  Hamiltonian                  GFN2-xTB          :
         :: gradient norm              0.000136771298 Eh/a0 ::
         :: HOMO-LUMO gap              2.252549292463 eV    ::
         :: SCC energy              -102.541786888994 Eh    ::
         :: -> dispersion             -0.087330000571 Eh    ::
         :: -> Gsolv                  -0.044371007367 Eh    ::
         :: repulsion energy           1.783247247034 Eh    ::

    * Orbital Energies and Occupations

         #    Occupation            Energy/Eh            Energy/eV
      -------------------------------------------------------------
         1        2.0000           -0.6728486             -18.3091
       ...           ...                  ...                  ...
        82        2.0000           -0.4175800             -11.3629
        83        2.0000           -0.4163863             -11.3304
        84        2.0000           -0.4139823             -11.2650
        85        2.0000           -0.4108195             -11.1790
        86        2.0000           -0.4096657             -11.1476
        87        2.0000           -0.4059266             -11.0458
        88        2.0000           -0.4016614             -10.9298
        89        2.0000           -0.4009186             -10.9095
        90        2.0000           -0.3984413             -10.8421
        91        2.0000           -0.3931000             -10.6968
        92        2.0000           -0.3914574             -10.6521
        93        2.0000           -0.3648125              -9.9271
        94        2.0000           -0.3433383              -9.3427 (HOMO)
        95                         -0.2605587              -7.0902 (LUMO)
        96                         -0.2388267              -6.4988
        97                         -0.2249413              -6.1210
        98                         -0.2239771              -6.0947
        99                         -0.2184789              -5.9451
       100                         -0.2156642              -5.8685
       101                         -0.2116827              -5.7602
       102                         -0.2010843              -5.4718
       103                         -0.1861409              -5.0652
       104                         -0.1594015              -4.3375
       105                         -0.1002426              -2.7277
       ...                                ...                  ...
       184                          1.1635929              31.6630
      -------------------------------------------------------------
                  HL-Gap            0.0827797 Eh            2.2525 eV

     #   Z          covCN         q      C6AA      α(0)
     1   6 C        3.761    -0.105    22.556     6.770
     2   6 C        3.902     0.025    20.094     6.372
     3   6 C        3.761    -0.105    22.556     6.770
     4   6 C        3.761    -0.107    22.601     6.777
     5   6 C        2.972     0.001    27.990     8.678
     6   6 C        2.925    -0.041    29.014     8.833
     7   6 C        2.921    -0.051    29.262     8.871
     8   6 C        2.924     0.061    26.630     8.463
     9   7 N        2.751    -0.080    22.798     7.092
    10   6 C        2.922     0.067    26.497     8.441
    11   6 C        2.921    -0.049    29.222     8.865
    12   6 C        2.923    -0.032    28.806     8.802
    13   6 C        2.976    -0.004    28.112     8.697
    14   6 C        2.977     0.007    27.858     8.658
    15   6 C        2.927    -0.069    29.711     8.939
    16   6 C        2.899     0.062    26.621     8.460
    17   7 N        2.640    -0.280    27.235     7.751
    18   6 C        2.899     0.053    26.803     8.489
    19   7 N        2.638    -0.296    27.632     7.807
    20   6 C        2.933    -0.057    29.410     8.894
    21   6 C        2.974    -0.010    28.259     8.720
    22   6 C        1.914     0.120    28.159     8.570
    23   7 N        0.911    -0.306    27.875     7.636
    24   6 C        2.924    -0.037    28.912     8.818
    25   6 C        2.921    -0.051    29.270     8.872
    26   6 C        2.924     0.061    26.635     8.463
    27   6 C        2.922    -0.051    29.263     8.871
    28   6 C        2.925    -0.041    29.017     8.834
    29   6 C        2.972     0.001    27.990     8.678
    30   6 C        3.902     0.025    20.094     6.372
    31   6 C        3.761    -0.107    22.601     6.777
    32   6 C        3.761    -0.105    22.554     6.770
    33   6 C        3.761    -0.105    22.550     6.769
    34   6 C        2.927    -0.036    28.894     8.815
    35   6 C        2.920    -0.050    29.234     8.866
    36   6 C        2.921    -0.050    29.230     8.866
    37   6 C        2.927    -0.036    28.900     8.816
    38   1 H        0.925     0.033     2.549     2.497
    39   1 H        0.925     0.037     2.494     2.470
    40   1 H        0.925     0.039     2.463     2.454
    41   1 H        0.925     0.039     2.462     2.454
    42   1 H        0.925     0.036     2.496     2.471
    43   1 H        0.925     0.033     2.550     2.497
    44   1 H        0.925     0.036     2.503     2.474
    45   1 H        0.925     0.036     2.502     2.474
    46   1 H        0.925     0.038     2.478     2.462
    47   1 H        0.926     0.040     2.447     2.446
    48   1 H        0.926     0.028     2.618     2.530
    49   1 H        0.926     0.032     2.554     2.499
    50   1 H        0.926     0.026     2.643     2.542
    51   1 H        0.926     0.040     2.445     2.445
    52   1 H        0.860     0.169     1.281     1.773
    53   1 H        0.860     0.171     1.269     1.764
    54   1 H        0.860     0.166     1.295     1.783
    55   1 H        0.860     0.162     1.323     1.802
    56   1 H        0.925     0.031     2.568     2.506
    57   1 H        0.926     0.036     2.502     2.473
    58   1 H        0.926     0.035     2.521     2.483
    59   1 H        0.926     0.029     2.603     2.523
    60   1 H        0.926     0.040     2.444     2.445
    61   1 H        0.925     0.036     2.498     2.471
    62   1 H        0.925     0.038     2.476     2.461
    63   1 H        0.925     0.036     2.503     2.474
    64   1 H        0.925     0.036     2.500     2.473
    65   1 H        0.925     0.033     2.547     2.496
    66   1 H        0.925     0.039     2.461     2.453
    67   1 H        0.925     0.036     2.500     2.473
    68   1 H        0.925     0.039     2.462     2.454
    69   1 H        0.925     0.032     2.556     2.500
    70   1 H        0.926     0.032     2.556     2.500
    71   1 H        0.926     0.026     2.643     2.542
    72   1 H        0.926     0.028     2.612     2.527
    73   1 H        0.926     0.033     2.544     2.494

molecular dipole:
                 x           y           z       tot (Debye)
 q only:        0.579      -2.133       0.459
   full:        0.889      -2.416       0.512       6.672

 projected vibrational frequencies (cm⁻¹)
eigval :       -0.00    -0.00    -0.00    -0.00    -0.00     0.00
eigval :       16.29    19.04    22.28    25.04    28.32    34.09
eigval :       50.24    54.01    66.38    70.07    88.18    95.92
eigval :      102.08   113.17   132.84   149.32   161.63   169.82
eigval :      172.92   182.60   188.77   212.11   224.32   227.81
eigval :      231.94   235.93   253.70   265.00   270.48   283.74
eigval :      286.52   313.03   315.78   316.94   317.61   339.11
eigval :      346.48   357.02   370.59   371.71   382.12   382.67
eigval :      388.79   392.14   395.65   404.21   412.76   416.73
eigval :      430.48   435.38   447.91   457.17   460.08   467.75
eigval :      498.22   525.92   528.59   537.24   557.41   566.45
eigval :      593.01   598.52   606.48   607.58   610.65   621.74
eigval :      644.54   672.68   683.23   686.21   690.50   695.47
eigval :      717.36   724.66   749.44   765.21   810.83   815.37
eigval :      815.87   843.46   848.78   860.83   867.38   870.32
eigval :      871.44   875.31   881.73   913.15   915.26   916.70
eigval :      922.88   924.09   928.27   930.06   932.99   959.35
eigval :      959.58   961.81   962.05   962.91   963.04   986.00
eigval :     1012.52  1025.34  1034.44  1034.61  1035.22  1035.90
eigval :     1038.01  1041.69  1061.32  1142.29  1142.82  1144.07
eigval :     1151.45  1154.03  1175.24  1188.91  1200.36  1209.34
eigval :     1213.67  1225.35  1225.43  1225.61  1232.22  1232.34
eigval :     1249.18  1261.58  1271.11  1277.24  1281.44  1283.81
eigval :     1290.13  1312.21  1319.21  1322.44  1326.36  1328.41
eigval :     1333.39  1384.30  1396.88  1400.21  1402.44  1402.81
eigval :     1404.90  1409.95  1414.87  1422.40  1427.10  1427.22
eigval :     1482.22  1486.25  1486.77  1488.40  1489.00  1492.05
eigval :     1492.10  1498.68  1500.13  1500.21  1503.41  1503.88
eigval :     1506.73  1510.73  1511.87  1517.09  1517.32  1524.30
eigval :     1539.40  1552.81  1564.35  1568.24  1585.42  1595.35
eigval :     1600.87  1605.07  2341.91  3019.78  3019.93  3020.27
eigval :     3020.83  3023.53  3024.18  3024.67  3025.51  3027.16
eigval :     3027.71  3030.86  3031.34  3035.88  3036.19  3044.87
eigval :     3044.94  3047.31  3047.63  3071.61  3071.79  3072.45
eigval :     3073.05  3074.36  3075.34  3077.33  3080.22  3086.65
eigval :     3086.77  3087.14  3089.98  3111.01  3112.15  3421.11
eigval :     3435.20  3466.64  3482.97

   temp. (K)  partition function   enthalpy   heat capacity  entropy
                                   cal/mol     cal/K/mol   cal/K/mol   J/K/mol
 298.15  VIB  0.587E+16            21190.807    131.051    130.094
         ROT  0.603E+08              888.752      2.981     38.581
         INT  0.354E+24            22079.559    134.032    168.675
         TR   0.105E+29             1481.254      4.968     44.427
         TOT                       23560.8128   139.0002   213.1022   891.6196

       T/K    H(0)-H(T)+PV         H(T)/Eh          T*S/Eh         G(T)/Eh
   ------------------------------------------------------------------------
    298.15    0.375465E-01    0.638441E+00    0.101252E+00    0.537189E+00
   ------------------------------------------------------------------------

         :::::::::::::::::::::::::::::::::::::::::::::::::::::
         ::                  THERMODYNAMIC                  ::
         :::::::::::::::::::::::::::::::::::::::::::::::::::::
         :: total free energy        -100.221350785001 Eh   ::
         ::.................................................::
         :: total energy             -100.758539641039 Eh   ::
         :: zero point energy           0.600894037617 Eh   ::
         :: G(RRHO) w/o ZPVE           -0.063705181579 Eh   ::
         :: G(RRHO) contrib.            0.537188856038 Eh   ::
         :::::::::::::::::::::::::::::::::::::::::::::::::::::

           -------------------------------------------------
          | TOTAL ENERGY             -100.758539641039 Eh   |
          | TOTAL ENTHALPY           -100.120099058244 Eh   |
          | TOTAL FREE ENERGY        -100.221350785001 Eh   |
          | GRADIENT NORM               0.000136662641 Eh/α |
          | HOMO-LUMO GAP               2.252549471150 eV   |
           -------------------------------------------------

 * finished run on 2025/09/04 at 18:51:25.225
