   * xtb version 6.7.1 (edcfbbe) compiled by 'albert@albert-system' on 2024-07-22

   ID    Z sym.   atoms
    1    6 C      1-8, 10-16, 18, 20-22, 24-37
    2    7 N      9, 17, 19, 23
    3    1 H      38-73

          program call               : xtb data2507/toluene/TPA-CN-N4-2PY/TPA-CN-N4-2PY_toluene_T1_crest.xyz --gfn 2 --uhf 2 --gbsa toluene --ohess vtight --parallel 40 --molden --ceasefiles --namespace data2507/toluene/TPA-CN-N4-2PY/TPA-CN-N4-2PY_toluene_T1_finalOpt
      * Solvation model:               GBSA
        Solvent                        toluene
        Solvent mass                       9.2140E+01 g/mol
          :  Hamiltonian                  GFN2-xTB          :
 * total energy  :  -100.6717408 Eh     change       -0.3275204E-08 Eh
 * total energy  :  -100.6718073 Eh     change       -0.6646391E-04 Eh
 * total energy  :  -100.6718368 Eh     change       -0.2954173E-04 Eh
 * total energy  :  -100.6718405 Eh     change       -0.3682641E-05 Eh
 * total energy  :  -100.6718376 Eh     change        0.2902823E-05 Eh
 * total energy  :  -100.6718467 Eh     change       -0.9142610E-05 Eh
 * total energy  :  -100.6718478 Eh     change       -0.1117674E-05 Eh
 * total energy  :  -100.6718497 Eh     change       -0.1890673E-05 Eh
 * total energy  :  -100.6718507 Eh     change       -0.9613637E-06 Eh
 * total energy  :  -100.6718516 Eh     change       -0.8765233E-06 Eh
 * total energy  :  -100.6718564 Eh     change       -0.9723880E-06 Eh
 * total energy  :  -100.6718572 Eh     change       -0.7618266E-06 Eh
 * total energy  :  -100.6718577 Eh     change       -0.5690404E-06 Eh
 * total energy  :  -100.6718583 Eh     change       -0.5337055E-06 Eh
 * total energy  :  -100.6718589 Eh     change       -0.6011668E-06 Eh
 * total energy  :  -100.6718593 Eh     change       -0.4684759E-06 Eh
 * total energy  :  -100.6718597 Eh     change       -0.3778965E-06 Eh
 * total energy  :  -100.6718599 Eh     change       -0.1951464E-06 Eh
 * total energy  :  -100.6718599 Eh     change       -0.3320011E-08 Eh
   *** GEOMETRY OPTIMIZATION CONVERGED AFTER 22 ITERATIONS ***

 final structure:
================
73
 xtb: 6.7.1 (edcfbbe)
C           -5.68430084388780       -4.63088244488456        0.60961590363165
C           -4.27886408745289       -4.93315106135532        0.06783989778202
C           -4.37953083532550       -5.45589461065700       -1.37349032169969
C           -3.65984538460795       -6.03444817361512        0.93386693782180
C           -3.45876201427496       -3.65392690085822        0.07214721426930
C           -2.26489379595482       -3.51706704277837        0.77571660432113
C           -1.54468259357823       -2.33941974920410        0.75641863929906
C           -1.99784495170878       -1.24119907395175        0.02416588557063
N           -1.26936665150063       -0.05113152537971       -0.00305328564482
C            0.11571637679450       -0.08540277275449       -0.00358968325457
C            0.87130281174514        0.90429953608687        0.66385029131826
C            2.23224940442355        0.87754488732635        0.65247084033802
C            2.97053950095323       -0.13991182718820       -0.02966985000715
C            4.38091910357398       -0.17212796995724       -0.04369885756324
C            5.08401080324481       -1.37674372077558       -0.29677555579833
C            6.44472814828241       -1.49320778578062       -0.25093330163473
N            7.09369644075163       -2.70370306525625       -0.50296527716729
C            7.24718659797645       -0.32581146326886        0.00859147969277
N            8.62556848120245       -0.44075096127597        0.05076911749567
C            6.60836991696414        0.86640886721444        0.26401926545587
C            5.21209740408946        0.99600028182545        0.24214287944669
C            4.73720232253090        2.29080514299949        0.37942382922134
N            4.45491415608858        3.41429404195961        0.48191844402570
C            2.18029277691469       -1.13698177532540       -0.68880177581343
C            0.81984500947254       -1.10892624155064       -0.67733363061211
C           -1.93773402028106        1.17360126258553       -0.02443120103427
C           -3.12772478862186        1.35387728814757        0.68236978471514
C           -3.77837956026556        2.57119887983176        0.66419533522567
C           -3.27650950326856        3.65635764515561       -0.04989205125339
C           -3.96094807321824        5.01222854485473       -0.09129058711800
C           -5.25086396622177        5.04856574588303        0.73398783352058
C           -4.31430696353787        5.35052407701961       -1.54785525264252
C           -3.00160444548744        6.07280837199673        0.47003459448940
C           -2.08576443029165        3.46279215920472       -0.75286038067077
C           -1.42509358916736        2.25452045224520       -0.74680670263163
C           -3.19359277319680       -1.36674417482893       -0.68809290559689
C           -3.90018052944683       -2.54848574326879       -0.65788849908305
H           -5.62063696497627       -4.23560601352136        1.62159838005399
H           -6.20164465530200       -3.90317234936121       -0.00926848075732
H           -6.27866011935865       -5.54180975543668        0.63193775902363
H           -4.94917906038712       -6.38250040698428       -1.39511417135114
H           -4.87295977108044       -4.73801200466470       -2.02282872067137
H           -3.38648293071692       -5.65187847881102       -1.77332349355857
H           -3.58636557038992       -5.72137790549046        1.97295150985568
H           -2.67161737790060       -6.30928159420834        0.57212204620857
H           -4.28911160735578       -6.92139955860606        0.89475764653056
H           -1.87851763106404       -4.33334660960350        1.36338729004266
H           -0.63058211339467       -2.25401269622670        1.32580600806949
H            0.35264696753896        1.67123078466002        1.22152218842500
H            2.77153188119129        1.62014882177245        1.21758946246987
H            4.51282369640063       -2.27706175825749       -0.46844782157691
H            6.46547478618258       -3.49528126265217       -0.52422302296924
H            7.89464129991512       -2.87622015373070        0.08958533421146
H            9.02309306373602       -1.12103024479931       -0.58072824519917
H            9.12216566990937        0.43828734326811        0.06227088433862
H            7.20005259338148        1.75148519493530        0.46142178727477
H            2.67445273889422       -1.90057488771715       -1.26855123539817
H            0.25836757647979       -1.85290383556309       -1.22479691052872
H           -3.53087554503612        0.53582926426568        1.26133524720972
H           -4.68932606999408        2.66364730878597        1.23201705907072
H           -5.97698809972947        4.33118202949961        0.35839921755538
H           -5.69386359990179        6.04020939841857        0.66739114484004
H           -5.05099559150175        4.84106100885520        1.78277234370103
H           -3.42516764787366        5.40411485981493       -2.16990179575890
H           -4.97554414249863        4.59139186538390       -1.96126565642745
H           -4.82077633271031        6.31218869603168       -1.59481081795107
H           -2.08852270303030        6.13414808621766       -0.11576828888400
H           -3.47882586062372        7.05045872984697        0.46013367619919
H           -2.73098595035039        5.83142392028334        1.49624505478216
H           -1.65972220313082        4.27046591735477       -1.32798745868382
H           -0.51262094621115        2.13140418389183       -1.31186274283991
H           -3.55221416516520       -0.53375385055628       -1.27489161373739
H           -4.81495574845976       -2.60857138022022       -1.22722143518415

          :  Hamiltonian                  GFN2-xTB          :
         :: gradient norm              0.000092164853 Eh/a0 ::
         :: HOMO-LUMO gap              0.761615052367 eV    ::
         :: SCC energy              -102.434786536866 Eh    ::
         :: -> dispersion             -0.087036560804 Eh    ::
         :: -> Gsolv                  -0.048974059757 Eh    ::
         :: repulsion energy           1.762926612471 Eh    ::

    * Orbital Energies and Occupations

         #    Occupation            Energy/Eh            Energy/eV
      -------------------------------------------------------------
         1        2.0000           -0.6732223             -18.3193
       ...           ...                  ...                  ...
        83        2.0000           -0.4154407             -11.3047
        84        2.0000           -0.4141756             -11.2703
        85        2.0000           -0.4103692             -11.1667
        86        2.0000           -0.4092100             -11.1352
        87        2.0000           -0.4065726             -11.0634
        88        2.0000           -0.4028248             -10.9614
        89        2.0000           -0.4003816             -10.8949
        90        2.0000           -0.3998739             -10.8811
        91        2.0000           -0.3954318             -10.7602
        92        2.0000           -0.3819421             -10.3932
        93        1.9999           -0.3608636              -9.8196
        94        1.0001           -0.3427508              -9.3267
        95        1.0000           -0.2619646              -7.1284 (HOMO)
        96        0.0000           -0.2339761              -6.3668 (LUMO)
        97                         -0.2312396              -6.2923
        98                         -0.2279723              -6.2034
        99                         -0.2236013              -6.0845
       100                         -0.2133670              -5.8060
       101                         -0.2108961              -5.7388
       102                         -0.1836707              -4.9979
       103                         -0.1782806              -4.8513
       104                         -0.1438113              -3.9133
       105                         -0.1036727              -2.8211
       106                         -0.1012194              -2.7543
       ...                                ...                  ...
       184                          1.1531452              31.3787
      -------------------------------------------------------------
                  HL-Gap            0.0279885 Eh            0.7616 eV

     #   Z          covCN         q      C6AA      α(0)
     1   6 C        3.761    -0.107    22.585     6.775
     2   6 C        3.902     0.026    20.073     6.369
     3   6 C        3.761    -0.106    22.578     6.774
     4   6 C        3.761    -0.109    22.631     6.782
     5   6 C        2.972     0.009    27.814     8.651
     6   6 C        2.923    -0.038    28.940     8.822
     7   6 C        2.920    -0.044    29.093     8.845
     8   6 C        2.927     0.058    26.699     8.474
     9   7 N        2.751    -0.028    21.784     6.932
    10   6 C        2.926     0.040    27.094     8.536
    11   6 C        2.911    -0.043    29.072     8.841
    12   6 C        2.917    -0.045    29.105     8.847
    13   6 C        2.966    -0.003    28.098     8.695
    14   6 C        2.963    -0.016    28.404     8.742
    15   6 C        2.920    -0.072    29.799     8.952
    16   6 C        2.892     0.049    26.898     8.503
    17   7 N        2.638    -0.295    27.598     7.802
    18   6 C        2.895     0.054    26.794     8.487
    19   7 N        2.638    -0.270    26.979     7.714
    20   6 C        2.939    -0.057    29.423     8.896
    21   6 C        2.962    -0.025    28.614     8.774
    22   6 C        1.923     0.101    28.582     8.634
    23   7 N        0.911    -0.372    29.606     7.869
    24   6 C        2.917    -0.047    29.158     8.855
    25   6 C        2.911    -0.045    29.119     8.849
    26   6 C        2.927     0.058    26.696     8.473
    27   6 C        2.920    -0.046    29.135     8.851
    28   6 C        2.923    -0.038    28.946     8.823
    29   6 C        2.972     0.009    27.804     8.649
    30   6 C        3.902     0.027    20.073     6.368
    31   6 C        3.761    -0.109    22.638     6.783
    32   6 C        3.761    -0.106    22.579     6.774
    33   6 C        3.761    -0.106    22.570     6.772
    34   6 C        2.926    -0.033    28.821     8.804
    35   6 C        2.919    -0.043    29.064     8.841
    36   6 C        2.919    -0.045    29.117     8.849
    37   6 C        2.926    -0.034    28.835     8.806
    38   1 H        0.925     0.034     2.524     2.484
    39   1 H        0.925     0.039     2.463     2.454
    40   1 H        0.925     0.041     2.434     2.440
    41   1 H        0.925     0.041     2.432     2.439
    42   1 H        0.925     0.039     2.468     2.457
    43   1 H        0.925     0.034     2.531     2.488
    44   1 H        0.925     0.037     2.484     2.464
    45   1 H        0.925     0.037     2.486     2.466
    46   1 H        0.925     0.040     2.454     2.450
    47   1 H        0.926     0.047     2.353     2.399
    48   1 H        0.926     0.037     2.493     2.469
    49   1 H        0.926     0.027     2.625     2.533
    50   1 H        0.926     0.026     2.642     2.542
    51   1 H        0.926     0.029     2.595     2.519
    52   1 H        0.860     0.162     1.319     1.799
    53   1 H        0.860     0.165     1.304     1.789
    54   1 H        0.860     0.176     1.236     1.742
    55   1 H        0.860     0.169     1.280     1.772
    56   1 H        0.925     0.020     2.733     2.585
    57   1 H        0.926     0.030     2.583     2.513
    58   1 H        0.926     0.032     2.563     2.504
    59   1 H        0.926     0.039     2.467     2.456
    60   1 H        0.926     0.049     2.330     2.387
    61   1 H        0.925     0.039     2.466     2.456
    62   1 H        0.925     0.040     2.449     2.447
    63   1 H        0.925     0.038     2.479     2.462
    64   1 H        0.925     0.038     2.478     2.462
    65   1 H        0.925     0.035     2.515     2.480
    66   1 H        0.925     0.041     2.429     2.437
    67   1 H        0.925     0.037     2.485     2.465
    68   1 H        0.925     0.041     2.432     2.438
    69   1 H        0.925     0.034     2.536     2.491
    70   1 H        0.926     0.039     2.457     2.451
    71   1 H        0.926     0.035     2.516     2.480
    72   1 H        0.926     0.038     2.480     2.463
    73   1 H        0.926     0.042     2.426     2.436

molecular dipole:
                 x           y           z       tot (Debye)
 q only:       -1.811      -2.614      -0.359
   full:       -1.484      -2.961      -0.369       8.471

 projected vibrational frequencies (cm⁻¹)
eigval :       -0.00    -0.00     0.00     0.00     0.00     0.00
eigval :       15.16    16.75    20.46    24.97    25.36    32.46
eigval :       43.01    56.15    66.50    72.34    87.45    99.37
eigval :      105.52   116.89   141.69   149.78   167.49   169.22
eigval :      173.25   177.58   186.98   206.44   221.84   223.42
eigval :      234.97   236.95   257.05   267.38   270.35   281.94
eigval :      288.03   312.74   314.28   315.20   316.29   321.16
eigval :      334.93   353.67   356.08   365.06   380.13   380.72
eigval :      383.41   388.97   390.17   392.65   397.62   417.25
eigval :      426.24   430.85   434.48   454.58   458.41   468.25
eigval :      471.07   488.67   524.78   531.00   551.69   560.83
eigval :      575.44   587.46   597.04   605.40   606.83   609.40
eigval :      618.69   648.81   654.11   674.76   686.01   687.42
eigval :      703.70   714.23   743.40   759.37   786.56   814.02
eigval :      814.36   816.51   823.06   834.35   850.85   862.13
eigval :      864.58   873.88   878.36   897.37   904.66   910.67
eigval :      912.79   915.37   926.60   927.53   929.73   950.27
eigval :      959.25   959.52   961.42   961.53   963.17   963.22
eigval :      984.22  1007.99  1019.00  1033.49  1033.77  1034.62
eigval :     1034.97  1039.18  1059.33  1138.77  1139.81  1140.93
eigval :     1150.79  1152.39  1174.35  1183.25  1199.12  1200.70
eigval :     1207.27  1223.55  1223.64  1229.12  1230.72  1230.92
eigval :     1235.27  1254.90  1272.91  1277.10  1279.15  1283.65
eigval :     1288.59  1304.99  1315.36  1321.34  1325.41  1328.38
eigval :     1337.95  1355.02  1391.12  1396.18  1398.41  1401.31
eigval :     1402.21  1403.05  1408.88  1416.86  1426.23  1426.69
eigval :     1435.16  1453.75  1468.14  1471.78  1475.73  1483.70
eigval :     1487.65  1487.79  1490.14  1491.38  1497.73  1498.47
eigval :     1501.03  1501.49  1502.34  1510.57  1511.09  1515.46
eigval :     1515.96  1518.69  1538.24  1544.66  1564.28  1574.41
eigval :     1584.63  1588.02  2221.88  3021.70  3021.98  3022.29
eigval :     3022.88  3025.83  3025.84  3026.42  3027.32  3029.70
eigval :     3029.78  3032.32  3032.58  3037.44  3037.65  3045.30
eigval :     3046.00  3048.50  3049.15  3053.87  3067.78  3071.80
eigval :     3079.26  3080.30  3080.71  3081.74  3082.91  3093.38
eigval :     3093.73  3095.95  3117.06  3117.66  3117.89  3410.34
eigval :     3422.25  3459.92  3475.55

   temp. (K)  partition function   enthalpy   heat capacity  entropy
                                   cal/mol     cal/K/mol   cal/K/mol   J/K/mol
 298.15  VIB  0.109E+17            21418.513    132.330    131.330
         ROT  0.607E+08              888.752      2.981     38.597
         INT  0.665E+24            22307.265    135.311    169.927
         TR   0.105E+29             1481.254      4.968     44.427
         TOT                       23788.5191   140.2794   214.3540   896.8571

       T/K    H(0)-H(T)+PV         H(T)/Eh          T*S/Eh         G(T)/Eh
   ------------------------------------------------------------------------
    298.15    0.379094E-01    0.635777E+00    0.101847E+00    0.533931E+00
   ------------------------------------------------------------------------

         :::::::::::::::::::::::::::::::::::::::::::::::::::::
         ::                  THERMODYNAMIC                  ::
         :::::::::::::::::::::::::::::::::::::::::::::::::::::
         :: total free energy        -100.137929343115 Eh   ::
         ::.................................................::
         :: total energy             -100.671859920932 Eh   ::
         :: zero point energy           0.597867660360 Eh   ::
         :: G(RRHO) w/o ZPVE           -0.063937082542 Eh   ::
         :: G(RRHO) contrib.            0.533930577818 Eh   ::
         :::::::::::::::::::::::::::::::::::::::::::::::::::::

           -------------------------------------------------
          | TOTAL ENERGY             -100.671859920932 Eh   |
          | TOTAL ENTHALPY           -100.036082842276 Eh   |
          | TOTAL FREE ENERGY        -100.137929343115 Eh   |
          | GRADIENT NORM               0.000092410118 Eh/α |
          | HOMO-LUMO GAP               0.761605322006 eV   |
           -------------------------------------------------

 * finished run on 2025/09/04 at 18:55:26.610
