   * xtb version 6.7.1 (edcfbbe) compiled by 'albert@albert-system' on 2024-07-22

   ID    Z sym.   atoms
    1    6 C      1-10, 12-21, 23-25, 27-45, 47-52, 54-63, 65-74, 76-84
    2    5 B      11, 64
    3    8 O      22, 53, 75, 85
    4    7 N      26, 46
    5    1 H      86-153

          program call               : xtb data2507/gas/2TDBA-SBA/2TDBA-SBA_gas_S0_finalOpt.xtbopt.xyz --gfn 2 --spinpol --tblite --uhf 2 --ohess vtight --parallel 40 --molden --ceasefiles --namespace data2507/gas/2TDBA-SBA/2TDBA-SBA_gas_T1_preOpt
 * total energy  :  -224.2793416 Eh     change       -0.4305392E-07 Eh
 * total energy  :  -224.2798687 Eh     change       -0.5270501E-03 Eh
 * total energy  :  -224.2800022 Eh     change       -0.1334739E-03 Eh
 * total energy  :  -224.2800124 Eh     change       -0.1028040E-04 Eh
 * total energy  :  -224.2800198 Eh     change       -0.7343728E-05 Eh
 * total energy  :  -224.2800233 Eh     change       -0.3488552E-05 Eh
 * total energy  :  -224.2800265 Eh     change       -0.3179510E-05 Eh
 * total energy  :  -224.2800277 Eh     change       -0.1285908E-05 Eh
 * total energy  :  -224.2800283 Eh     change       -0.5759954E-06 Eh
 * total energy  :  -224.2800289 Eh     change       -0.6065650E-06 Eh
 * total energy  :  -224.2800310 Eh     change       -0.1048694E-06 Eh
 * total energy  :  -224.2800315 Eh     change       -0.5277061E-06 Eh
 * total energy  :  -224.2800322 Eh     change       -0.6883563E-06 Eh
 * total energy  :  -224.2800326 Eh     change       -0.4576856E-06 Eh
 * total energy  :  -224.2800330 Eh     change       -0.3302616E-06 Eh
 * total energy  :  -224.2800332 Eh     change       -0.2631984E-06 Eh
 * total energy  :  -224.2800331 Eh     change        0.1050674E-06 Eh
 * total energy  :  -224.2800337 Eh     change       -0.5510686E-06 Eh
 * total energy  :  -224.2800337 Eh     change       -0.3077520E-07 Eh
   *** GEOMETRY OPTIMIZATION CONVERGED AFTER 22 ITERATIONS ***

 final structure:
================
153
 xtb: 6.7.1 (edcfbbe)
C           13.05700777638814       -3.36545201941274       -2.61881789245980
C           12.54636315846082       -3.25817282493448       -1.17482479439280
C           12.68012295975820       -4.61795923623572       -0.47426866742313
C           13.42913629919092       -2.25067429097730       -0.43259587673389
C           11.07984111826479       -2.85678875431514       -1.19525935276445
C           10.15504606285315       -3.67714844507151       -1.84734407823124
C            8.81431855526095       -3.35621163564193       -1.86103771534407
C            8.36160409087441       -2.19657817402975       -1.23753145001813
C            9.25969876483426       -1.31296955695461       -0.60388890967423
C           10.60657646225193       -1.70422249919238       -0.59187389097745
B            8.66753081117328       -0.03137330008294        0.02442361594229
C            9.30093120365296        1.22211055444192        0.66895813327666
C           10.66414399306472        1.55131248825240        0.69248285429598
C           11.17375302525300        2.68110692579446        1.30918422751691
C           12.65723946607108        3.01449866143181        1.32798409646736
C           13.13367549722134        3.09922626191070        2.78511520012211
C           12.87216653737754        4.36612729057712        0.63187391264766
C           13.51209477820508        1.96677233535930        0.60912650845916
C           10.27066728612057        3.54330534103661        1.93726262723964
C            8.91674481916261        3.28403011774958        1.91566409747383
C            8.42790292165680        2.14591772267435        1.27989477473769
O            7.06586791465759        2.02825312527747        1.30058925461637
C            6.42954847767007        1.02928178176486        0.64487705618220
C            5.04016610973399        1.06282037662140        0.64276500298574
C            4.33858062800350        0.06433942862600       -0.02707565947840
N            2.91485525630460        0.09308436962232       -0.04212685903065
C            2.27015797591319        0.98440860963134       -0.87854784394325
C            3.01021539347909        1.82986526004535       -1.71442580922565
C            2.37744225957489        2.73035287141350       -2.54363597599716
C            0.99338024367700        2.80901174758822       -2.56639404955742
C            0.25521897251018        1.96390898633530       -1.75943609501383
C            0.87274165686348        1.05079071576424       -0.91896199184503
C           -0.00033717121513        0.13860197845007       -0.08435174558990
C            0.81943614957628       -0.79713052819181        0.77927947919499
C            0.15060483557976       -1.68798096901834        1.60427486078177
C            0.83909437391096       -2.55285473328664        2.43383557741374
C            2.22498000753732       -2.51721451300219        2.45002789734307
C            2.90829635057141       -1.63960623333247        1.63664939608501
C            2.21876522251570       -0.77446452389517        0.77795604720642
C           -0.85099940216489        0.98809462167123        0.83620717929747
C           -0.21225173215359        1.82608086004121        1.73685438308526
C           -0.93008927492037        2.60606429809101        2.62384519444666
C           -2.31490785418477        2.53817761859641        2.61973846100019
C           -2.96874988618482        1.71179035227613        1.73180941487269
C           -2.24932564065168        0.93157583789379        0.81825796628052
N           -2.91517046678030        0.11435716110175       -0.07460784468894
C           -4.33918657955743        0.07774724240962       -0.05045650445422
C           -4.98585971225027       -0.98206275758496        0.57847284825155
C           -6.37524352695704       -1.01584253733239        0.59145541543735
C           -7.14417861289315       -0.00036590896311       -0.00066450749326
C           -6.45429908013961        1.05566750363607       -0.61880094280382
C           -5.06554845849087        1.09927096250039       -0.65544797557558
O           -7.11486510109103        2.07610064687783       -1.21436436396006
C           -8.47665926410100        2.18111330259482       -1.15426124075901
C           -8.98989191530094        3.33745654667883       -1.73567701961294
C          -10.34584424911339        3.58551155311096       -1.71527361859627
C          -11.22625787401200        2.69287128355355       -1.09769910679037
C          -12.71271274635144        3.01223723303956       -1.07055965282885
C          -13.22376780754603        3.13969047703147       -2.51279520225534
C          -12.92377480690576        4.33820456145211       -0.32566882391098
C          -13.54092941745850        1.93329326282053       -0.36685553273907
C          -10.69253969078066        1.54641434626438       -0.53451281696197
C           -9.32659409806571        1.22830208939680       -0.55538531499750
B           -8.66744761648876       -0.04293735534121        0.02626959490787
C           -9.23373802747593       -1.34846980108897        0.62948183567198
C          -10.57968345022070       -1.74236318769887        0.65661042833548
C          -11.02829696634344       -2.91636021163263        1.23705237533545
C          -12.49460960775309       -3.31830781063156        1.26222617652238
C          -12.94629696080622       -3.47290533827687        2.72152526053224
C          -13.40622802131814       -2.28792953787189        0.58953174189997
C          -12.65750719858351       -4.65464263902084        0.52379374398480
C          -10.07814391955769       -3.75795801127857        1.82207776470406
C           -8.73829978515292       -3.43458087074597        1.79476389382877
C           -8.31133417421326       -2.25186399618508        1.19686903461014
O           -6.95629532092240       -2.07094228056150        1.20894297874121
C           -2.24170600539081       -0.66963875365592       -0.99124469996129
C           -2.95525773859982       -1.44720589691405       -1.91166722613606
C           -2.29456878486985       -2.23797536253629       -2.82651676009365
C           -0.90870515383265       -2.27197090454371       -2.85107554914992
C           -0.19715771878462       -1.49604243737432       -1.95547446422339
C           -0.84290960825194       -0.69335954821349       -1.02804746222498
C            5.01126981211428       -0.96375707909066       -0.68166463901601
C            6.40038888099599       -0.99094670617869       -0.65183858042277
C            7.14427640951865        0.00302597664679        0.00524789926453
O            7.00731022057155       -2.01730431207370       -1.29291914005303
H           12.94250812703812       -2.41128037727286       -3.12906906042601
H           12.50960558313949       -4.11849200355933       -3.17862491543599
H           14.11087452458938       -3.63641526312557       -2.62466945037265
H           12.12082139418310       -5.38917766746125       -0.99647962180202
H           12.30251051695690       -4.55388784048818        0.54419447282031
H           13.72485058190314       -4.92013114303400       -0.43742995993074
H           14.46253367259851       -2.59165737361949       -0.45211919725214
H           13.39045046025006       -1.27257768171390       -0.90647542559564
H           13.12700576520777       -2.15716544973637        0.60800090780356
H           10.47429379782191       -4.58281307966075       -2.33943340899569
H            8.09385293339941       -3.99851970459404       -2.34461253019043
H           11.29263225590239       -1.06589540056937       -0.06525630781484
H           11.33377330351583        0.88207903986946        0.18338722265658
H           12.96157476059435        2.15180745778259        3.29176046481852
H           12.60705339970266        3.87728130059674        3.33045802804782
H           14.19843415381628        3.32109338000508        2.81912746595013
H           12.33521921701942        5.16267872390202        1.13931651486450
H           12.51936044098042        4.31872771014632       -0.39634969704810
H           13.93031749273354        4.61982534212086        0.62311656892016
H           13.41557104302016        0.99184620857073        1.08128851053818
H           13.23398257826443        1.88657482081697       -0.43924772032401
H           14.55924811574604        2.25966227692759        0.65652308772175
H           10.61801886476850        4.43364644503258        2.43820642283119
H            8.21406743944787        3.95881287423064        2.38084399751753
H            4.51764661324785        1.85810409746633        1.15058856095823
H            4.08693508414399        1.76949461022988       -1.70964639304923
H            2.96831763955008        3.37375215353211       -3.17774084476763
H            0.49569576783778        3.51613832760702       -3.21138020906410
H           -0.82423772772925        2.00591902982323       -1.77758092032066
H           -0.92960360740724       -1.69745945323727        1.59275751474601
H            0.30161152024020       -3.24209018507183        3.06612987639833
H            2.77753191693542       -3.17635884474887        3.10224102714524
H            3.98606633848725       -1.61257201975344        1.66222674035289
H            0.86757050658010        1.86113685790652        1.73887265469111
H           -0.41587899446298        3.25483635261667        3.31552913139322
H           -2.88963384842766        3.13198726503822        3.31418822771401
H           -4.04591388096570        1.65936315902847        1.73965512339849
H           -4.42137611801926       -1.77287041821226        1.04678148166747
H           -4.56268924079091        1.91919192170860       -1.14349824801981
H           -8.30403631953863        4.03453125864822       -2.19303241766786
H          -10.71244631051570        4.49013733677639       -2.17522412983426
H          -13.05552771171417        2.21078437365171       -3.05386114603286
H          -12.71645061742385        3.93975445125063       -3.04444326281649
H          -14.29086081766748        3.35276282173576       -2.51506090094488
H          -12.54607017929410        4.26102239377254        0.69184725021943
H          -12.40686702752344        5.15642868759119       -0.81921839946055
H          -13.98379652724261        4.58051735008617       -0.28366098335197
H          -14.59137345494017        2.21783931340277       -0.37932222885911
H          -13.23675170483316        1.82098330186700        0.67128560137331
H          -13.44773668295878        0.97548614251394       -0.87344592381535
H          -11.34481303760209        0.85357576986133       -0.03476692190620
H          -11.28693012186968       -1.08747082607186        0.18105354783276
H          -12.81107498970906       -2.53562051394242        3.25737488102176
H          -12.37659405650469       -4.24297612756022        3.23392437325866
H          -13.99908224790506       -3.74520427298912        2.76136685676196
H          -14.43803111017139       -2.63071043121532        0.63889391564437
H          -13.34878576946218       -1.32598110270373        1.09358358044651
H          -13.14577928857470       -2.15969432466726       -0.45860754289522
H          -12.07858679530545       -5.44229486625343        0.99785242409259
H          -13.70316404194055       -4.95581302269353        0.51902737478326
H          -12.32091683338700       -4.55738183833208       -0.50635349203112
H          -10.37718027470056       -4.68124913112653        2.29367861352263
H           -7.99881634623619       -4.09187125184187        2.22675136719024
H           -4.03339601370606       -1.42038332600592       -1.90347680681738
H           -2.86468109128080       -2.83031139876081       -3.52600522593469
H           -0.38895208278606       -2.89290410590480       -3.56385075659790
H            0.88305305776949       -1.50734926979679       -1.97122641243033
H            4.46623718981646       -1.73621240815929       -1.20094317875695

 projected vibrational frequencies (cm⁻¹)
eigval :       -0.00    -0.00    -0.00    -0.00     0.00     0.00
eigval :        2.21     2.38     3.78     8.01    14.45    14.83
eigval :       20.64    22.12    27.15    28.52    28.60    30.49
eigval :       35.83    36.10    45.71    47.33    48.21    58.39
eigval :       62.96    67.68    68.87    73.47    75.74    75.92
eigval :       89.29    91.23   104.47   107.27   107.45   114.82
eigval :      116.42   121.22   130.34   133.30   136.21   137.06
eigval :      138.55   168.61   173.15   173.18   176.66   176.90
eigval :      207.76   208.36   210.29   212.65   216.54   217.33
eigval :      220.31   220.51   220.73   222.25   227.01   227.39
eigval :      232.05   239.53   244.56   255.12   256.64   259.25
eigval :      263.59   264.13   270.12   275.47   275.72   282.37
eigval :      285.18   291.54   315.10   321.20   321.26   321.32
eigval :      321.42   329.01   330.56   331.40   331.75   356.95
eigval :      357.48   358.50   362.77   362.78   362.99   363.21
eigval :      372.91   378.11   379.17   381.91   384.72   392.16
eigval :      392.27   401.26   404.66   409.47   409.84   420.38
eigval :      423.17   423.90   426.34   426.53   429.11   430.69
eigval :      435.80   442.72   447.08   452.45   452.97   454.82
eigval :      475.60   477.81   486.08   487.52   489.56   489.75
eigval :      492.26   509.69   512.40   514.64   514.94   515.23
eigval :      516.23   516.89   543.09   544.35   566.08   566.14
eigval :      578.19   578.23   586.72   593.70   594.44   596.32
eigval :      596.47   608.68   611.02   611.64   627.18   629.87
eigval :      632.23   643.32   643.61   649.00   653.88   658.43
eigval :      668.73   678.37   678.56   682.52   688.52   692.10
eigval :      692.40   692.88   696.58   696.84   698.36   707.53
eigval :      707.69   709.94   724.95   725.10   770.60   771.61
eigval :      772.54   779.28   788.42   805.96   808.66   809.72
eigval :      815.68   815.69   815.82   816.37   825.84   825.85
eigval :      842.89   844.13   845.48   848.56   853.79   855.37
eigval :      855.57   855.86   860.35   866.85   866.92   867.65
eigval :      872.26   872.31   888.15   888.95   895.01   895.41
eigval :      899.53   903.51   903.59   903.63   903.70   908.74
eigval :      909.12   909.61   910.10   922.07   922.12   922.37
eigval :      922.51   934.35   939.73   942.50   942.78   958.99
eigval :      959.04   960.19   960.34   960.57   960.64   962.81
eigval :      962.84   962.90   962.93   962.96   963.15   967.11
eigval :      967.17  1012.12  1012.93  1034.37  1034.41  1034.47
eigval :     1034.51  1034.86  1034.91  1035.46  1035.50  1063.23
eigval :     1063.59  1071.18  1079.57  1092.96  1101.25  1102.07
eigval :     1103.56  1103.97  1108.60  1123.24  1124.11  1128.37
eigval :     1128.43  1132.55  1132.76  1136.92  1138.04  1151.22
eigval :     1158.22  1169.70  1172.18  1172.27  1174.53  1181.92
eigval :     1182.04  1182.26  1183.17  1187.55  1201.49  1208.01
eigval :     1208.25  1210.04  1213.49  1225.50  1226.02  1226.03
eigval :     1226.08  1226.14  1226.47  1227.67  1228.71  1228.82
eigval :     1229.38  1232.48  1235.91  1236.42  1237.60  1244.87
eigval :     1245.19  1250.77  1252.88  1264.86  1266.12  1267.53
eigval :     1268.15  1280.22  1280.93  1286.71  1291.34  1293.97
eigval :     1293.97  1311.32  1316.16  1316.88  1319.90  1320.78
eigval :     1327.50  1331.60  1332.08  1332.60  1332.98  1335.38
eigval :     1337.10  1342.17  1342.49  1374.11  1374.45  1382.11
eigval :     1382.44  1393.57  1393.84  1404.89  1404.91  1404.99
eigval :     1405.07  1405.08  1405.11  1406.34  1406.48  1425.57
eigval :     1426.68  1427.28  1427.58  1427.96  1428.00  1428.87
eigval :     1428.97  1434.30  1434.49  1435.20  1436.39  1455.18
eigval :     1455.57  1459.10  1460.12  1471.48  1480.92  1490.71
eigval :     1491.76  1491.90  1491.91  1491.99  1492.12  1494.84
eigval :     1494.85  1494.98  1494.99  1496.75  1500.66  1500.72
eigval :     1501.23  1503.00  1503.26  1504.30  1505.64  1505.66
eigval :     1505.77  1514.37  1514.39  1515.25  1515.38  1517.65
eigval :     1518.66  1518.69  1523.23  1524.79  1527.03  1527.39
eigval :     1532.16  1555.16  1555.52  1560.05  1560.98  1566.08
eigval :     1571.68  1577.76  1580.34  1580.45  1580.47  1592.03
eigval :     1593.91  3019.68  3019.68  3020.12  3020.14  3021.66
eigval :     3021.67  3021.69  3021.70  3026.99  3027.01  3027.05
eigval :     3027.05  3028.16  3028.17  3028.51  3028.86  3031.11
eigval :     3031.13  3031.14  3031.14  3035.15  3035.17  3035.58
eigval :     3035.59  3037.76  3037.79  3037.80  3037.93  3047.49
eigval :     3047.50  3047.53  3047.54  3050.65  3050.66  3050.83
eigval :     3050.85  3080.30  3080.75  3080.86  3081.66  3082.91
eigval :     3082.96  3082.97  3083.01  3088.05  3088.06  3088.10
eigval :     3088.24  3093.96  3094.30  3094.39  3094.77  3100.74
eigval :     3100.98  3101.13  3101.19  3103.33  3103.52  3103.61
eigval :     3103.86  3108.98  3109.29  3109.62  3109.79  3142.77
eigval :     3143.87  3150.75  3152.33

   temp. (K)  partition function   enthalpy   heat capacity  entropy
                                   cal/mol     cal/K/mol   cal/K/mol   J/K/mol
 298.15  VIB  0.510E+38            45772.927    282.532    288.293
         ROT  0.590E+09              888.752      2.981     43.116
         INT  0.301E+47            46661.679    285.513    331.409
         TR   0.356E+29             1481.254      4.968     46.863
         TOT                       48142.9331   290.4809   378.2719  1582.6897

       T/K    H(0)-H(T)+PV         H(T)/Eh          T*S/Eh         G(T)/Eh
   ------------------------------------------------------------------------
    298.15    0.767206E-01    0.129812E+01    0.179729E+00    0.111840E+01
   ------------------------------------------------------------------------

         :::::::::::::::::::::::::::::::::::::::::::::::::::::
         ::                  THERMODYNAMIC                  ::
         :::::::::::::::::::::::::::::::::::::::::::::::::::::
         :: total free energy        -223.161638195977 Eh   ::
         ::.................................................::
         :: total energy             -224.280033894230 Eh   ::
         :: zero point energy           1.221404243481 Eh   ::
         :: G(RRHO) w/o ZPVE           -0.103008545228 Eh   ::
         :: G(RRHO) contrib.            1.118395698253 Eh   ::
         :::::::::::::::::::::::::::::::::::::::::::::::::::::

           -------------------------------------------------
          | TOTAL ENERGY             -224.280033894230 Eh   |
          | TOTAL ENTHALPY           -222.981909003383 Eh   |
          | TOTAL FREE ENERGY        -223.161638195977 Eh   |
          | GRADIENT NORM               0.000064573071 Eh/α |
           -------------------------------------------------

 * finished run on 2025/08/22 at 20:36:42.364
