   * xtb version 6.7.1 (edcfbbe) compiled by 'albert@albert-system' on 2024-07-22

   ID    Z sym.   atoms
    1    6 C      1-10, 12-21, 23-25, 27-45, 47-52, 54-63, 65-74, 76-84
    2    5 B      11, 64
    3    8 O      22, 53, 75, 85
    4    7 N      26, 46
    5    1 H      86-153

          program call               : xtb data2507/gas/2TDBA-SBA/2TDBA-SBA.xyz --gfn 2 --ohess vtight --parallel 40 --molden --ceasefiles --namespace data2507/gas/2TDBA-SBA/2TDBA-SBA_gas_S0_preOpt
          :  Hamiltonian                  GFN2-xTB          :
 * total energy  :  -224.1720165 Eh     change       -0.1368835E-07 Eh
 * total energy  :  -224.2619969 Eh     change       -0.8998042E-01 Eh
 * total energy  :  -224.3011217 Eh     change       -0.3912483E-01 Eh
 * total energy  :  -224.3178815 Eh     change       -0.1675973E-01 Eh
 * total energy  :  -224.3275605 Eh     change       -0.9679080E-02 Eh
 * total energy  :  -224.3341199 Eh     change       -0.6559317E-02 Eh
 * total energy  :  -224.3392012 Eh     change       -0.5081389E-02 Eh
 * total energy  :  -224.3433931 Eh     change       -0.4191845E-02 Eh
 * total energy  :  -224.3469143 Eh     change       -0.3521259E-02 Eh
 * total energy  :  -224.3498180 Eh     change       -0.2903631E-02 Eh
 * total energy  :  -224.3673415 Eh     change       -0.2210486E-06 Eh
 * total energy  :  -224.3673418 Eh     change       -0.2513744E-06 Eh
 * total energy  :  -224.3673421 Eh     change       -0.3031729E-06 Eh
 * total energy  :  -224.3673424 Eh     change       -0.3564457E-06 Eh
 * total energy  :  -224.3673429 Eh     change       -0.4352553E-06 Eh
 * total energy  :  -224.3673434 Eh     change       -0.5594252E-06 Eh
 * total energy  :  -224.3673442 Eh     change       -0.7768373E-06 Eh
 * total energy  :  -224.3673451 Eh     change       -0.8964204E-06 Eh
 * total energy  :  -224.3673451 Eh     change       -0.3330371E-08 Eh
   *** GEOMETRY OPTIMIZATION CONVERGED AFTER 340 ITERATIONS ***

 final structure:
================
153
 xtb: 6.7.1 (edcfbbe)
C           13.36085891458042       -3.72558259741141       -2.09137282642230
C           12.86007181905971       -2.51274637588452       -1.30268980811955
C           13.31039948363891       -2.67090190596739        0.15654419018925
C           13.49638388576838       -1.25362486754807       -1.90884234479948
C           11.34518198744531       -2.37507379135520       -1.34102642514089
C           10.51658327152566       -3.28070913656496       -2.00419271252724
C            9.14827326639593       -3.12957291235192       -1.98472016058746
C            8.56224805052195       -2.05646527874665       -1.31540254110782
C            9.35880088369890       -1.09277666368678       -0.67029695339177
C           10.74056963558954       -1.31147715119103       -0.69306124852915
B            8.62363865123928        0.09398049181790       -0.00304603463440
C            9.11277527909675        1.40807492833902        0.65028297673021
C           10.42632287737520        1.89946989202021        0.64512010991991
C           10.80955480060950        3.06866169892081        1.27171649118686
C           12.23866719175878        3.58938502208363        1.25620481906166
C           12.74268482756462        3.71535727859673        2.70082449768320
C           12.25922157835029        4.96520432200229        0.57564926056854
C           13.19687343719009        2.66650152292724        0.49740382142583
C            9.82086798857682        3.79540569241626        1.94354841613832
C            8.51368513435640        3.37365770503071        1.95398657941177
C            8.14799538407629        2.19493834103819        1.30158422280912
O            6.81663415792507        1.90853647200248        1.35169597614440
C            6.29093022376827        0.85934330042844        0.68374512204341
C            4.90804485558823        0.72044865767580        0.70163704045040
C            4.32333858006749       -0.33517324331485        0.01481406906500
N            2.91055831377194       -0.46537760806586        0.01548627711761
C            2.15730205684235        0.40688648520772       -0.75777115667865
C            2.78759702378033        1.33976338584298       -1.58575770085581
C            2.04938568955624        2.21451306508954       -2.35626891617868
C            0.66618142441700        2.17481459673582       -2.32720617655554
C            0.03726029824105        1.23942976114439       -1.52763613311507
C            0.76182156777661        0.35248373745626       -0.74654369053205
C            0.00090446136529       -0.65343965427043        0.09393222621257
C            0.93054974865876       -1.59502435767608        0.82941239151042
C            0.36672245309653       -2.60162927765286        1.59775812448514
C            1.15056768774133       -3.47263546467431        2.33046116750269
C            2.52632388979714       -3.32223498113285        2.30652389108364
C            3.10600909124001       -2.32667534085776        1.54678726974475
C            2.32012023319244       -1.45897399805403        0.78375998820240
C           -0.80756118197230        0.11121228621929        1.12224579644251
C           -0.12789052411063        0.81516988589431        2.10414566353894
C           -0.80304627579870        1.53196814610220        3.07383925307692
C           -2.18717156301376        1.53377277597651        3.06866021341911
C           -2.88098070379140        0.83865133153192        2.09946969107684
C           -2.20380711853254        0.13056487891746        1.10297197031901
N           -2.91301193095252       -0.56336794232926        0.13237657917454
C           -4.32551912618403       -0.43792082518474        0.09793718887465
C           -5.12426656377571       -1.48924512263881        0.52799929693994
C           -6.50705161633231       -1.35519544549142        0.47887333963601
C           -7.11011835585059       -0.17091582486947        0.02782024317299
C           -6.27171834534552        0.87566323082751       -0.38605078637682
C           -4.88829070952114        0.74410225021959       -0.36483659820913
O           -6.77501457245676        2.04636868119956       -0.83169679493482
C           -8.11122274121865        2.31170594522744       -0.79545607321580
C           -8.45599755728144        3.60375826506363       -1.19585588534037
C           -9.76748745474143        4.01084484130050       -1.17098531419743
C          -10.78184052790680        3.15310834210562       -0.73262092437554
C          -12.21705481718325        3.65533576927493       -0.69187062870697
C          -12.63992497065397        4.07679480960739       -2.10620533263761
C          -12.29696925459296        4.86014766476967        0.25612050682320
C          -13.20264684654656        2.59254483189095       -0.19757625853103
C          -10.41826587820546        1.87604090417665       -0.35334096972763
C           -9.09935794245180        1.39969085642034       -0.38767141431075
B           -8.62764504106242       -0.02506521885313       -0.00988003234893
C           -9.37966991303372       -1.33221856324970        0.33777890917555
C          -10.76165290140405       -1.54936060239731        0.23532615769159
C          -11.37984994125879       -2.73214628243311        0.58997422191128
C          -12.88039112854189       -2.95285454846646        0.47404939585214
C          -13.44712485120352       -3.27979272524498        1.86280902146446
C          -13.61989963186750       -1.72459825956139       -0.06428236142831
C          -13.13914820183939       -4.12496304812449       -0.48297524368469
C          -10.57018713018984       -3.76465133974461        1.07488329908283
C           -9.20810850777886       -3.61405461869949        1.16736114955574
C           -8.60438939741253       -2.41324737863749        0.79034504414857
O           -7.24546463409723       -2.40651731100270        0.89433142577439
C           -2.27686729712548       -1.36807025816703       -0.80292973294953
C           -3.01840525766067       -2.08182147783685       -1.74804624783945
C           -2.39228919146555       -2.89207635944835       -2.67317871127461
C           -1.01290404156792       -3.00529377819982       -2.68405303295248
C           -0.27243054386101       -2.28068807880218       -1.76943776785269
C           -0.88317190861201       -1.46062290045186       -0.83352966699200
C            5.09932468800603       -1.25709452933821       -0.67522834234037
C            6.48278427385780       -1.12189963836438       -0.66625012748729
C            7.10685228504388       -0.05982190947922        0.00636460594359
O            7.19921393413014       -2.04481022634164       -1.34306673442459
H           13.08321093553623       -3.65196363946563       -3.14033731946249
H           12.96446520703006       -4.65120589894970       -1.68055006621444
H           14.44657503818282       -3.77194832461408       -2.03416461173911
H           12.85286902912366       -3.55408783712999        0.59746904327531
H           13.02863187407189       -1.80863230740350        0.75461240133751
H           14.39168949415846       -2.78125273593877        0.20535578244420
H           14.58007128962388       -1.34960789431727       -1.91922398946973
H           13.15249714600050       -1.11346941184881       -2.93153742592877
H           13.24156827052692       -0.36467993231014       -1.33890237617942
H           10.92950746137367       -4.12347954429720       -2.53350335424901
H            8.50459365344122       -3.84207269557915       -2.47779525306875
H           11.35920239036937       -0.61236875114498       -0.15555220395966
H           11.15617249268778        1.32871021084872        0.09974905249587
H           12.70235593671925        2.74880566106270        3.19897997728389
H           12.14197850868630        4.41766253882211        3.27173281760375
H           13.77285904949148        4.06524824903369        2.70883731806867
H           11.63896856215831        5.68006969911856        1.10913799860566
H           11.88735294015312        4.88563438637707       -0.44381444724942
H           13.27526324410056        5.35298199693194        0.54351932234960
H           13.23758650896774        1.68184802852197        0.95809268958902
H           12.90189680443473        2.56496648404175       -0.54464058868343
H           14.19979567449169        3.08807970425169        0.52116027752086
H           10.07117289828612        4.71245966934057        2.45463781540252
H            7.74640026902006        3.94561411853134        2.45309170795041
H            4.29970529186821        1.43640192421889        1.23084120145661
H            3.86533209038566        1.37404276928694       -1.62777466406971
H            2.56095211578982        2.92817193423203       -2.98515381380865
H            0.08464435963504        2.85877616754202       -2.92604801511736
H           -1.04167131917133        1.18843940211353       -1.50623020480815
H           -0.70980608578911       -2.69377593537778        1.61940433392173
H            0.69373105204785       -4.25178039694204        2.92101185650950
H            3.15647332127301       -3.98154420474613        2.88510817068654
H            4.17920942843007       -2.21459675381444        1.54745366447064
H            0.95237566301074        0.79494408931726        2.10346381864080
H           -0.25631080738867        2.07658594424489        3.82820853448437
H           -2.73415012364128        2.07624462504068        3.82565669060533
H           -3.96002534671814        0.83830898914934        2.11481271760034
H           -4.68269232313153       -2.40505930333826        0.88722833930018
H           -4.26330657819200        1.55983844440109       -0.69154349370902
H           -7.66966577832171        4.27158043086083       -1.51314406408532
H          -10.00165401297283        5.01648683170046       -1.48515817032381
H          -12.01498528752443        4.88062315994332       -2.48493746939988
H          -13.67161646057163        4.42221609981808       -2.10146048650643
H          -12.56124943603745        3.23333211062924       -2.78907659972527
H          -11.97866414345850        4.57307520002841        1.25622596162856
H          -11.66184027601113        5.67396097849964       -0.08242554714176
H          -13.31976370452750        5.22706503456022        0.31114346191894
H          -14.20836792832299        3.00801363456219       -0.18979394725773
H          -12.96336861075581        2.27701173912210        0.81543478054326
H          -13.20473053623312        1.72487831712903       -0.85333582172698
H          -11.17089151232542        1.19927292245238        0.00918836641015
H          -11.35276955720934       -0.74369539224553       -0.16136802888981
H          -13.24614208184200       -2.46274344519769        2.55271244494038
H          -13.00516727674251       -4.18500918631235        2.26947481368651
H          -14.52379473618238       -3.42465302745339        1.80339861640583
H          -14.68453051796265       -1.94150981376162       -0.12483508842395
H          -13.49028551707425       -0.86912206530585        0.59468522884083
H          -13.27422504813824       -1.46519529002690       -1.06239076920304
H          -12.68955527394627       -5.04332849656495       -0.11586375452558
H          -14.20886677854942       -4.29022877814928       -0.59321146539855
H          -12.72013410519378       -3.90884741359622       -1.46362175244659
H          -11.00658901034923       -4.70588502543643        1.37235482048684
H           -8.58006827288825       -4.41757231648409        1.52080860394881
H           -4.09378260348025       -1.99504738643385       -1.76051494786886
H           -2.98910592417583       -3.43517189630652       -3.39109156542049
H           -0.51976972465963       -3.64036898256606       -3.40379184580182
H            0.80642931512129       -2.34200371242780       -1.77764957542361
H            4.63973219547975       -2.07532693462618       -1.20625199295616

          :  Hamiltonian                  GFN2-xTB          :
         :: gradient norm              0.000047134512 Eh/a0 ::
         :: HOMO-LUMO gap              1.845915452380 eV    ::
         :: SCC energy              -228.139007638323 Eh    ::
         :: -> dispersion             -0.217999301392 Eh    ::
         :: repulsion energy           3.771662549007 Eh    ::

    * Orbital Energies and Occupations

         #    Occupation            Energy/Eh            Energy/eV
      -------------------------------------------------------------
         1        2.0000           -0.7291569             -19.8414
       ...           ...                  ...                  ...
       196        2.0000           -0.3922580             -10.6739
       197        2.0000           -0.3914704             -10.6525
       198        2.0000           -0.3880186             -10.5585
       199        2.0000           -0.3877054             -10.5500
       200        2.0000           -0.3835174             -10.4360
       201        2.0000           -0.3833451             -10.4314
       202        2.0000           -0.3831474             -10.4260
       203        2.0000           -0.3823792             -10.4051
       204        2.0000           -0.3818413             -10.3904
       205        2.0000           -0.3670982              -9.9893
       206        2.0000           -0.3667698              -9.9803
       207        2.0000           -0.3396528              -9.2424
       208        2.0000           -0.3393275              -9.2336 (HOMO)
       209                         -0.2714913              -7.3877 (LUMO)
       210                         -0.2709913              -7.3740
       211                         -0.2334916              -6.3536
       212                         -0.2332790              -6.3478
       213                         -0.2305718              -6.2742
       214                         -0.2305521              -6.2736
       215                         -0.2253941              -6.1333
       216                         -0.2204633              -5.9991
       217                         -0.2200813              -5.9887
       218                         -0.2141521              -5.8274
       219                         -0.2126532              -5.7866
       ...                                ...                  ...
       408                          0.6996619              19.0388
      -------------------------------------------------------------
                  HL-Gap            0.0678361 Eh            1.8459 eV

     #   Z          covCN         q      C6AA      α(0)
     1   6 C        3.761    -0.108    22.617     6.779
     2   6 C        3.903     0.026    20.089     6.371
     3   6 C        3.762    -0.106    22.574     6.773
     4   6 C        3.761    -0.106    22.576     6.773
     5   6 C        2.969     0.000    28.014     8.682
     6   6 C        2.926    -0.036    28.887     8.814
     7   6 C        2.914    -0.055    29.376     8.888
     8   6 C        2.877     0.135    25.058     8.206
     9   6 C        2.882    -0.092    30.314     9.026
    10   6 C        2.933    -0.040    28.985     8.829
    11   5 B        2.724     0.211    18.226     7.153
    12   6 C        2.882    -0.093    30.325     9.028
    13   6 C        2.931    -0.044    29.092     8.846
    14   6 C        2.969     0.000    28.017     8.682
    15   6 C        3.903     0.025    20.090     6.371
    16   6 C        3.762    -0.106    22.577     6.773
    17   6 C        3.762    -0.106    22.579     6.774
    18   6 C        3.761    -0.106    22.581     6.774
    19   6 C        2.928    -0.031    28.780     8.798
    20   6 C        2.913    -0.055    29.362     8.885
    21   6 C        2.878     0.135    25.049     8.205
    22   8 O        1.711    -0.220    17.658     5.674
    23   6 C        2.874     0.141    24.935     8.186
    24   6 C        2.916    -0.079    29.968     8.977
    25   6 C        2.930     0.073    26.375     8.422
    26   7 N        2.754    -0.067    22.536     7.051
    27   6 C        2.926     0.060    26.659     8.467
    28   6 C        2.924    -0.058    29.437     8.897
    29   6 C        2.920    -0.033    28.813     8.802
    30   6 C        2.917    -0.043    29.076     8.842
    31   6 C        2.927    -0.035    28.861     8.810
    32   6 C        2.990    -0.011    28.270     8.722
    33   6 C        3.929     0.015    20.260     6.397
    34   6 C        2.988    -0.011    28.270     8.722
    35   6 C        2.927    -0.034    28.843     8.807
    36   6 C        2.917    -0.043    29.072     8.842
    37   6 C        2.920    -0.033    28.811     8.802
    38   6 C        2.924    -0.058    29.451     8.900
    39   6 C        2.925     0.060    26.663     8.468
    40   6 C        2.990    -0.010    28.268     8.722
    41   6 C        2.927    -0.034    28.858     8.810
    42   6 C        2.917    -0.043    29.073     8.842
    43   6 C        2.920    -0.033    28.812     8.802
    44   6 C        2.924    -0.058    29.433     8.897
    45   6 C        2.926     0.060    26.660     8.467
    46   7 N        2.754    -0.067    22.537     7.051
    47   6 C        2.929     0.073    26.378     8.423
    48   6 C        2.915    -0.079    29.977     8.978
    49   6 C        2.874     0.140    24.941     8.187
    50   6 C        2.888    -0.125    31.179     9.155
    51   6 C        2.874     0.141    24.935     8.186
    52   6 C        2.916    -0.079    29.970     8.977
    53   8 O        1.711    -0.221    17.659     5.674
    54   6 C        2.878     0.135    25.053     8.205
    55   6 C        2.913    -0.055    29.364     8.886
    56   6 C        2.928    -0.031    28.781     8.798
    57   6 C        2.969     0.000    28.016     8.682
    58   6 C        3.903     0.025    20.090     6.371
    59   6 C        3.762    -0.106    22.579     6.774
    60   6 C        3.762    -0.106    22.578     6.773
    61   6 C        3.761    -0.108    22.608     6.778
    62   6 C        2.930    -0.044    29.104     8.847
    63   6 C        2.882    -0.093    30.325     9.028
    64   5 B        2.724     0.210    18.235     7.155
    65   6 C        2.882    -0.093    30.324     9.028
    66   6 C        2.930    -0.044    29.104     8.847
    67   6 C        2.969     0.000    28.015     8.682
    68   6 C        3.903     0.025    20.090     6.371
    69   6 C        3.762    -0.106    22.579     6.774
    70   6 C        3.761    -0.108    22.608     6.778
    71   6 C        3.762    -0.106    22.578     6.773
    72   6 C        2.928    -0.031    28.782     8.798
    73   6 C        2.913    -0.055    29.365     8.886
    74   6 C        2.878     0.135    25.054     8.206
    75   8 O        1.711    -0.221    17.664     5.675
    76   6 C        2.924     0.060    26.662     8.468
    77   6 C        2.924    -0.058    29.453     8.900
    78   6 C        2.920    -0.033    28.812     8.802
    79   6 C        2.917    -0.043    29.073     8.842
    80   6 C        2.927    -0.034    28.847     8.808
    81   6 C        2.989    -0.011    28.271     8.722
    82   6 C        2.916    -0.079    29.971     8.977
    83   6 C        2.874     0.141    24.933     8.186
    84   6 C        2.888    -0.125    31.180     9.155
    85   8 O        1.711    -0.221    17.669     5.675
    86   1 H        0.925     0.036     2.501     2.473
    87   1 H        0.925     0.036     2.502     2.474
    88   1 H        0.925     0.037     2.494     2.470
    89   1 H        0.925     0.034     2.530     2.487
    90   1 H        0.925     0.036     2.501     2.473
    91   1 H        0.925     0.038     2.478     2.462
    92   1 H        0.925     0.038     2.481     2.463
    93   1 H        0.925     0.034     2.532     2.489
    94   1 H        0.925     0.037     2.496     2.471
    95   1 H        0.926     0.043     2.415     2.430
    96   1 H        0.926     0.044     2.401     2.423
    97   1 H        0.926     0.039     2.458     2.452
    98   1 H        0.926     0.044     2.391     2.418
    99   1 H        0.925     0.034     2.531     2.488
   100   1 H        0.925     0.037     2.492     2.469
   101   1 H        0.925     0.038     2.480     2.463
   102   1 H        0.925     0.037     2.493     2.469
   103   1 H        0.925     0.034     2.527     2.486
   104   1 H        0.925     0.038     2.479     2.462
   105   1 H        0.925     0.034     2.530     2.488
   106   1 H        0.925     0.036     2.506     2.476
   107   1 H        0.925     0.037     2.489     2.467
   108   1 H        0.926     0.036     2.502     2.474
   109   1 H        0.926     0.044     2.397     2.421
   110   1 H        0.926     0.054     2.266     2.354
   111   1 H        0.926     0.026     2.648     2.545
   112   1 H        0.926     0.028     2.618     2.530
   113   1 H        0.926     0.027     2.634     2.538
   114   1 H        0.926     0.027     2.636     2.539
   115   1 H        0.926     0.026     2.640     2.541
   116   1 H        0.926     0.027     2.634     2.538
   117   1 H        0.926     0.028     2.620     2.531
   118   1 H        0.926     0.026     2.643     2.542
   119   1 H        0.926     0.027     2.636     2.539
   120   1 H        0.926     0.027     2.633     2.538
   121   1 H        0.926     0.028     2.617     2.530
   122   1 H        0.926     0.026     2.648     2.545
   123   1 H        0.926     0.055     2.259     2.350
   124   1 H        0.926     0.054     2.271     2.356
   125   1 H        0.926     0.044     2.400     2.422
   126   1 H        0.926     0.036     2.505     2.475
   127   1 H        0.925     0.037     2.494     2.470
   128   1 H        0.925     0.038     2.481     2.463
   129   1 H        0.925     0.034     2.530     2.487
   130   1 H        0.925     0.034     2.530     2.487
   131   1 H        0.925     0.037     2.495     2.470
   132   1 H        0.925     0.038     2.481     2.463
   133   1 H        0.925     0.037     2.491     2.468
   134   1 H        0.925     0.035     2.511     2.478
   135   1 H        0.925     0.036     2.498     2.472
   136   1 H        0.926     0.046     2.369     2.407
   137   1 H        0.926     0.046     2.369     2.407
   138   1 H        0.925     0.034     2.530     2.487
   139   1 H        0.925     0.037     2.494     2.470
   140   1 H        0.925     0.038     2.481     2.463
   141   1 H        0.925     0.037     2.490     2.468
   142   1 H        0.925     0.036     2.498     2.472
   143   1 H        0.925     0.035     2.511     2.478
   144   1 H        0.925     0.037     2.495     2.470
   145   1 H        0.925     0.038     2.481     2.463
   146   1 H        0.925     0.034     2.530     2.487
   147   1 H        0.926     0.036     2.505     2.475
   148   1 H        0.926     0.044     2.400     2.423
   149   1 H        0.926     0.026     2.637     2.539
   150   1 H        0.926     0.028     2.619     2.531
   151   1 H        0.926     0.027     2.634     2.538
   152   1 H        0.926     0.026     2.641     2.541
   153   1 H        0.926     0.055     2.261     2.351

molecular dipole:
                 x           y           z       tot (Debye)
 q only:       -0.007       0.312      -0.044
   full:       -0.002       0.313      -0.035       0.801

 projected vibrational frequencies (cm⁻¹)
eigval :       -0.00    -0.00    -0.00     0.00     0.00     0.00
eigval :        2.20     2.62     4.56     9.33    14.69    14.99
eigval :       21.16    22.24    25.37    28.50    28.77    28.83
eigval :       36.28    36.85    47.50    48.52    50.48    58.20
eigval :       62.50    67.03    69.55    73.75    76.09    77.91
eigval :       91.61    94.09   106.89   108.79   110.71   115.15
eigval :      117.21   125.44   128.92   133.54   136.45   138.04
eigval :      139.79   169.69   171.28   173.10   174.99   176.45
eigval :      206.44   208.18   210.25   212.25   217.09   217.98
eigval :      219.20   220.21   221.32   224.28   227.44   231.92
eigval :      235.30   241.63   244.72   259.32   262.79   264.59
eigval :      268.91   269.82   273.67   283.27   284.93   289.87
eigval :      292.83   295.26   313.35   320.04   321.14   321.83
eigval :      322.24   322.74   329.66   330.71   332.60   353.46
eigval :      357.29   360.70   361.50   365.20   365.30   365.37
eigval :      375.16   384.63   385.24   385.62   386.00   393.31
eigval :      393.41   401.14   405.81   414.68   415.04   421.90
eigval :      429.46   432.63   435.67   436.15   436.32   436.66
eigval :      440.11   445.36   449.49   452.19   454.42   455.11
eigval :      476.53   480.27   487.00   493.63   493.78   501.60
eigval :      505.37   506.64   508.66   517.06   517.08   518.19
eigval :      518.73   531.41   554.93   556.81   569.84   570.30
eigval :      582.43   582.77   591.02   597.95   598.70   599.03
eigval :      599.31   610.70   618.07   618.85   631.11   645.79
eigval :      646.12   652.21   652.64   654.18   657.41   661.00
eigval :      666.87   686.69   688.53   688.97   694.21   694.44
eigval :      694.73   697.60   698.47   703.03   703.06   712.62
eigval :      717.04   717.20   730.06   730.16   771.84   772.52
eigval :      773.33   780.79   797.66   808.57   826.17   827.06
eigval :      828.83   829.77   832.04   832.81   833.74   834.26
eigval :      851.67   853.98   861.10   861.76   865.00   865.50
eigval :      867.07   868.27   872.00   872.76   873.92   874.45
eigval :      875.31   882.23   893.93   894.55   896.40   897.19
eigval :      902.03   907.08   907.65   908.26   909.23   916.59
eigval :      919.97   920.12   920.52   920.55   921.99   922.01
eigval :      922.24   941.46   942.02   946.46   947.46   960.12
eigval :      960.21   960.73   960.77   960.83   961.09   962.67
eigval :      963.11   963.35   963.37   963.49   963.68   968.43
eigval :      969.75  1021.32  1028.71  1034.70  1034.72  1035.50
eigval :     1035.64  1035.84  1035.89  1035.94  1036.33  1079.65
eigval :     1080.01  1085.64  1086.34  1099.32  1106.88  1107.77
eigval :     1109.18  1109.40  1123.13  1124.21  1125.15  1132.61
eigval :     1133.28  1139.89  1141.19  1142.44  1143.77  1165.70
eigval :     1172.84  1178.88  1178.97  1179.28  1182.12  1184.35
eigval :     1184.78  1184.94  1187.33  1191.43  1212.68  1218.98
eigval :     1219.61  1221.00  1222.30  1227.95  1228.42  1228.47
eigval :     1228.60  1230.30  1230.66  1231.84  1233.22  1233.72
eigval :     1235.13  1243.20  1244.21  1249.50  1252.79  1255.02
eigval :     1258.23  1265.90  1266.30  1269.76  1271.14  1275.32
eigval :     1277.56  1283.26  1284.77  1295.35  1295.98  1296.13
eigval :     1297.99  1327.07  1327.77  1328.16  1334.09  1334.18
eigval :     1335.63  1336.97  1338.28  1338.94  1339.20  1340.86
eigval :     1341.13  1349.91  1350.92  1398.75  1399.32  1401.40
eigval :     1401.84  1402.48  1402.71  1406.27  1406.43  1406.56
eigval :     1406.60  1410.51  1410.98  1412.97  1413.45  1429.31
eigval :     1429.64  1429.81  1430.12  1435.98  1438.32  1439.89
eigval :     1440.25  1444.03  1444.87  1449.14  1449.32  1464.41
eigval :     1465.49  1480.95  1481.55  1491.86  1492.00  1492.01
eigval :     1492.05  1492.09  1494.26  1494.47  1494.49  1494.60
eigval :     1495.06  1499.76  1500.31  1501.47  1502.90  1504.96
eigval :     1505.06  1505.30  1505.37  1514.74  1514.78  1515.40
eigval :     1515.47  1518.37  1519.56  1520.74  1522.92  1535.60
eigval :     1536.47  1546.21  1546.90  1550.82  1551.11  1574.71
eigval :     1574.98  1575.05  1576.77  1586.30  1591.98  1592.14
eigval :     1592.55  1595.76  1598.21  1600.95  1601.67  1603.70
eigval :     1604.82  3021.18  3021.88  3022.39  3022.75  3024.31
eigval :     3024.32  3024.35  3024.47  3025.90  3027.13  3027.23
eigval :     3028.04  3030.31  3030.63  3031.12  3031.17  3031.46
eigval :     3031.59  3031.62  3032.28  3034.65  3035.50  3036.01
eigval :     3036.77  3037.95  3038.63  3038.81  3039.51  3046.60
eigval :     3047.85  3047.87  3047.88  3051.33  3051.34  3051.69
eigval :     3051.77  3075.51  3075.87  3076.85  3077.21  3078.82
eigval :     3079.10  3080.04  3080.97  3084.91  3084.98  3085.13
eigval :     3092.26  3093.73  3093.98  3094.40  3094.56  3097.58
eigval :     3097.91  3097.91  3099.92  3100.28  3101.03  3101.89
eigval :     3110.14  3110.54  3110.89  3111.05  3114.57  3116.68
eigval :     3141.68  3146.03  3149.59

   temp. (K)  partition function   enthalpy   heat capacity  entropy
                                   cal/mol     cal/K/mol   cal/K/mol   J/K/mol
 298.15  VIB  0.195E+38            45441.197    280.581    285.881
         ROT  0.588E+09              888.752      2.981     43.109
         INT  0.114E+47            46329.949    283.562    328.991
         TR   0.356E+29             1481.254      4.968     46.863
         TOT                       47811.2033   288.5305   375.8539  1572.5727

       T/K    H(0)-H(T)+PV         H(T)/Eh          T*S/Eh         G(T)/Eh
   ------------------------------------------------------------------------
    298.15    0.761920E-01    0.130286E+01    0.178580E+00    0.112428E+01
   ------------------------------------------------------------------------

         :::::::::::::::::::::::::::::::::::::::::::::::::::::
         ::                  THERMODYNAMIC                  ::
         :::::::::::::::::::::::::::::::::::::::::::::::::::::
         :: total free energy        -223.243066540772 Eh   ::
         ::.................................................::
         :: total energy             -224.367345089315 Eh   ::
         :: zero point energy           1.226666855632 Eh   ::
         :: G(RRHO) w/o ZPVE           -0.102388307088 Eh   ::
         :: G(RRHO) contrib.            1.124278548543 Eh   ::
         :::::::::::::::::::::::::::::::::::::::::::::::::::::

           -------------------------------------------------
          | TOTAL ENERGY             -224.367345089315 Eh   |
          | TOTAL ENTHALPY           -223.064486231395 Eh   |
          | TOTAL FREE ENERGY        -223.243066540772 Eh   |
          | GRADIENT NORM               0.000047141703 Eh/α |
          | HOMO-LUMO GAP               1.845915046149 eV   |
           -------------------------------------------------

 * finished run on 2025/08/22 at 20:02:18.572
