   * xtb version 6.7.1 (edcfbbe) compiled by 'albert@albert-system' on 2024-07-22

   ID    Z sym.   atoms
    1    6 C      1-10, 12-21, 23-25, 27-45, 47-52, 54-63, 65-74, 76-84
    2    5 B      11, 64
    3    8 O      22, 53, 75, 85
    4    7 N      26, 46
    5    1 H      86-153

          program call               : xtb data2507/gas/2TDBA-SBA/2TDBA-SBA_gas_T1_crest.xyz --gfn 2 --spinpol --tblite --uhf 2 --ohess vtight --parallel 40 --molden --ceasefiles --namespace data2507/gas/2TDBA-SBA/2TDBA-SBA_gas_T1_finalOpt
 * total energy  :  -224.2800946 Eh     change       -0.7802186E-08 Eh
 * total energy  :  -224.2800958 Eh     change       -0.1205296E-05 Eh
 * total energy  :  -224.2800966 Eh     change       -0.7953248E-06 Eh
 * total energy  :  -224.2800977 Eh     change       -0.1068354E-05 Eh
 * total energy  :  -224.2800992 Eh     change       -0.1507620E-05 Eh
 * total energy  :  -224.2801008 Eh     change       -0.1656526E-05 Eh
 * total energy  :  -224.2801020 Eh     change       -0.1197809E-05 Eh
 * total energy  :  -224.2801028 Eh     change       -0.7769411E-06 Eh
 * total energy  :  -224.2801034 Eh     change       -0.6084675E-06 Eh
 * total energy  :  -224.2801040 Eh     change       -0.5503899E-06 Eh
 * total energy  :  -224.2801044 Eh     change       -0.4762942E-06 Eh
 * total energy  :  -224.2801049 Eh     change       -0.4322085E-06 Eh
 * total energy  :  -224.2801051 Eh     change       -0.2461797E-06 Eh
 * total energy  :  -224.2801051 Eh     change       -0.9192405E-08 Eh
 * total energy  :  -224.2801051 Eh     change        0.9974428E-08 Eh
 * total energy  :  -224.2801054 Eh     change       -0.2598837E-06 Eh
 * total energy  :  -224.2801054 Eh     change       -0.4541914E-07 Eh
   *** GEOMETRY OPTIMIZATION CONVERGED AFTER 17 ITERATIONS ***

 final structure:
================
153
 xtb: 6.7.1 (edcfbbe)
C           13.04476608432561       -3.22190345708348       -2.81202543253257
C           12.57306468717691       -3.15444058796231       -1.35240683713892
C           12.75285454292154       -4.52535185564313       -0.68470033205455
C           13.45690737434090       -2.14522302802154       -0.61379244213125
C           11.09916984687906       -2.78138614893281       -1.32482182728878
C           10.17218194406809       -3.60812829749049       -1.96551111733776
C            8.82644867488301       -3.31016130051923       -1.93979122015349
C            8.37023987530519       -2.16780948577974       -1.28741087920674
C            9.26836439176256       -1.27967312851104       -0.65999449561466
C           10.62155012736052       -1.64785476953135       -0.68963636334064
B            8.67031038819731       -0.01780767039868        0.00294169741675
C            9.29831720469333        1.23048311428034        0.66383613961401
C           10.65937165503652        1.56873083535944        0.68851577993679
C           11.16424145442642        2.69115323875697        1.32232357071758
C           12.64605639468209        3.03178105023819        1.34393337533991
C           13.12568720944926        3.08546084855159        2.80152021426723
C           12.85289690461693        4.39996738430653        0.67846391379745
C           13.50415666703766        2.00516977803273        0.59895194493424
C           10.25817778952248        3.53744095928829        1.96741841017070
C            8.90608114161937        3.26935971192953        1.94641975470797
C            8.42228430376515        2.13807205277118        1.29463249762394
O            7.06148013422181        2.01067056276228        1.32159378482828
C            6.42839169573737        1.01203572472841        0.66272369785408
C            5.03869078785405        1.03324319275489        0.67488226753320
C            4.33949358937105        0.03301071370152        0.00579652401470
N            2.91482098945710        0.05050927134984        0.00408601742495
C            2.25629100800288        0.89806057716093       -0.86559636990926
C            2.98377224868099        1.71393617751094       -1.74083582935602
C            2.33754368951928        2.56931960232978       -2.60659504644233
C            0.95257693406888        2.63135201897220       -2.62629221903986
C            0.22708413586665        1.81784722026415       -1.77639780217654
C            0.85809887694709        0.95052323712562       -0.89835707923833
C           -0.00041849262678        0.07344387995307       -0.01184907151676
C            0.83449399394154       -0.80914335357618        0.89211617121503
C            0.18091967321627       -1.66014906553787        1.76963261257350
C            0.88472000751916       -2.48058132695872        2.63102648610678
C            2.27068231109842       -2.44291799951469        2.62309156131320
C            2.93913986356639       -1.60414366317913        1.75800516792418
C            2.23359269325207       -0.78087143740541        0.87179052077464
C           -0.85459947064707        0.96346765199273        0.86602420650493
C           -0.21933658677510        1.84017506986391        1.73159678486663
C           -0.94074056113512        2.66496929732387        2.57405428218922
C           -2.32586104543066        2.60487041134289        2.55973806444674
C           -2.97628208602729        1.74027887244363        1.70636246317121
C           -2.25298219641726        0.91295751000020        0.83843349627816
N           -2.91572213687969        0.05645759182390       -0.01917726397691
C           -4.34037318311098        0.03843485477558       -0.01410008967172
C           -5.01105955889194       -0.97320889755038        0.66690057925984
C           -6.40084196532510       -0.98745369313167        0.66075719147787
C           -7.14677265546283        0.00096542090863       -0.00240461940847
C           -6.43302523944004        1.00876817089691       -0.67187887758643
C           -5.04344284386371        1.03162033648353       -0.68969684405395
O           -7.07033336063941        2.00045061997495       -1.33733681517069
C           -8.43120867938659        2.12685671135819       -1.30475208324711
C           -8.91949646117651        3.25259166072587       -1.96270446096785
C          -10.27193368751649        3.51954191667632       -1.97803814674495
C          -11.17378380505247        2.67784181404821       -1.32112197935259
C          -12.65571008162447        3.01841132335503       -1.33552186957451
C          -13.14462270330886        3.06523288400010       -2.79025062087985
C          -12.85798886871309        4.38985723565865       -0.67533876523633
C          -13.50927439053010        1.99547747757123       -0.58033307610898
C          -10.66464739169217        1.56043607320086       -0.68188322214887
C           -9.30321602535854        1.22335223561829       -0.66268134422090
B           -8.67071763557345       -0.01929981371843        0.00418820047958
C           -9.26426675735190       -1.27828330591783        0.67627945032370
C          -10.61606197229265       -1.65140817669400        0.70740206731826
C          -11.08961976086945       -2.78213917181027        1.35055592107537
C          -12.56179076383763       -3.16191135076559        1.37833474155247
C          -13.03614254193941       -3.22031876890588        2.83746950995893
C          -13.44889848259493       -2.16267327140927        0.63012997975830
C          -12.73361423669099       -4.53884387225427        0.72095054766149
C          -10.15995209812048       -3.59979941883723        1.99901985099211
C           -8.81530928978125       -3.29700711869241        1.97186711555484
C           -8.36297495502469       -2.15845202052303        1.31025782457356
O           -7.00576122350012       -1.99584366848980        1.33123267398090
C           -2.23868422675660       -0.78357779306901       -0.88186055836691
C           -2.94847411433648       -1.61314325441458       -1.75878023592509
C           -2.28420993462102       -2.46031743733460       -2.61889310662134
C           -0.89834109423108       -2.50038993949614       -2.63098005706799
C           -0.19039020661234       -1.67393816082364       -1.77879358132763
C           -0.83972343290449       -0.81440711154927       -0.90644597674460
C            5.01419707773780       -0.98412703170384       -0.66291229888183
C            6.40400238772920       -0.99617060674892       -0.65163712122459
C            7.14621462790487       -0.00054017205307        0.00492873238467
O            7.01259386042836       -2.00971845564368       -1.31074268963389
H           12.89807401018523       -2.25975238804770       -3.29850630388308
H           12.49581800781217       -3.97355820432308       -3.37220528154230
H           14.10293377523257       -3.47230527014974       -2.85298489744462
H           12.19451668279991       -5.29686813992979       -1.20745570175661
H           12.40273255227031       -4.48988939605884        0.34490987356043
H           13.80393103376906       -4.80707424820695       -0.68309469620744
H           14.49555302979159       -2.46584757326505       -0.66828859601536
H           13.38718773831715       -1.15873550289078       -1.06619951128325
H           13.18173793586659       -2.07845262277431        0.43630367762053
H           10.49407499619500       -4.50002793188375       -2.48047803818093
H            8.10467902425930       -3.95667827532670       -2.41575701489026
H           11.31089219140244       -1.00651595984930       -0.17134804645914
H           11.33237817104521        0.91261736508191        0.16727944378514
H           12.96081127540616        2.12538120349990        3.28627091225170
H           12.59526420337343        3.84711711292567        3.36603279366369
H           14.18910160198443        3.31327298519989        2.83827729843883
H           12.31431015673575        5.18246789575217        1.20559548329728
H           12.49719621790783        4.37464737877837       -0.34953411092816
H           13.90993059745436        4.65836450330276        0.67242033206238
H           13.41562990668828        1.01953999327162        1.04994220262004
H           13.22209028353679        1.94632565709744       -0.44978995478791
H           14.54972732176829        2.30328523193243        0.64854138614186
H           10.60164870863492        4.42144444296042        2.48206853775913
H            8.20056002618269        3.93133529694242        2.42549582029168
H            4.51436052166233        1.82034683080151        1.19340799866219
H            4.06119951497426        1.66645759166806       -1.73630774073336
H            2.91837756176869        3.19046698492196       -3.27141534031382
H            0.44425969372126        3.30243098746936       -3.30083511666399
H           -0.85276877305200        1.84965781561404       -1.78975092933629
H           -0.89934689533846       -1.67395820603736        1.77355761276510
H            0.35889090890244       -3.13858586876127        3.30503323155273
H            2.83472496524182       -3.07011569248620        3.29662870405241
H            4.01724563641240       -1.57526846059207        1.76246103572718
H            0.86059576877364        1.87031805758833        1.74121964125480
H           -0.42914995377427        3.34325695831468        3.23884470947623
H           -2.90350151470274        3.23484768879104        3.21900912155699
H           -4.05378967515479        1.69439933039420        1.70594625989492
H           -4.46468730799271       -1.74200246787845        1.19011354373163
H           -4.52200939458612        1.81434035424912       -1.21769074463748
H           -8.21723750647691        3.91146537963813       -2.45075944611758
H          -10.61891804802431        4.39941981926637       -2.49737468722848
H          -12.98254320767760        2.10299479470837       -3.27164872736367
H          -12.61823149336513        3.82449871111877       -3.36169827316195
H          -14.20832990116631        3.29252104681026       -2.82119811670062
H          -12.49613967559285        4.36922473748916        0.35062013235879
H          -12.32207480719208        5.16949937635048       -1.20941257056130
H          -13.91483734028312        4.64884465252879       -0.66420081383362
H          -14.55521812448296        2.29296217697956       -0.62567499009119
H          -13.22138559998806        1.94228427636663        0.46712272702688
H          -13.42279319672596        1.00751364104492       -1.02660807074141
H          -11.33392387787580        0.90780580900704       -0.15144804404957
H          -11.30717628529616       -1.01664477172621        0.18330880114486
H          -12.89498072057622       -2.25375792218302        3.31679373405547
H          -12.48479775474736       -3.96502830985215        3.40453135974083
H          -14.09319707405058       -3.47540717004806        2.87824396960304
H          -14.48606820724888       -2.48803868666152        0.68465255253685
H          -13.38510025678287       -1.17243801311040        1.07518687713017
H          -13.17157394190530       -2.10250813195885       -0.41979786348796
H          -12.17259213487572       -5.30360498983683        1.25072738005698
H          -13.78330650064327       -4.82566889160235        0.71942477085063
H          -12.38159144196393       -4.50961049863439       -0.30821032376083
H          -10.47886110230974       -4.48872600695533        2.52093527960033
H           -8.09143387709114       -3.93707835464305        2.45331453293597
H           -4.02653644009233       -1.58246748454416       -1.76005346625566
H           -2.85148662551042       -3.09224018001109       -3.28525990663097
H           -0.37581501448279       -3.16497700713235       -3.30108557639134
H            0.88984106703562       -1.68963263572023       -1.78595312252087
H            4.47089450419772       -1.75852808197461       -1.18103489232353

 projected vibrational frequencies (cm⁻¹)
eigval :       -0.00     0.00     0.00     0.00     0.00     0.00
eigval :        1.82     2.01     2.33     6.45    14.29    14.62
eigval :       19.33    19.86    26.93    28.04    28.08    29.66
eigval :       35.44    35.68    45.23    47.04    47.84    58.52
eigval :       62.86    67.47    68.53    73.51    75.65    75.72
eigval :       88.81    90.54   103.82   107.09   107.19   114.72
eigval :      116.13   120.66   129.39   132.21   134.84   136.81
eigval :      138.10   167.96   172.85   172.89   176.22   176.29
eigval :      207.63   208.32   210.59   212.41   216.32   216.38
eigval :      220.21   220.26   220.45   221.75   227.01   227.27
eigval :      231.94   240.01   244.47   254.97   256.23   258.96
eigval :      263.03   263.39   269.63   274.75   275.61   281.89
eigval :      285.26   290.94   314.67   321.08   321.11   321.19
eigval :      321.33   328.89   330.40   331.19   331.46   357.11
eigval :      357.50   358.70   362.65   362.68   362.85   363.03
eigval :      373.28   378.00   378.92   380.72   384.90   392.09
eigval :      392.16   401.39   404.18   409.10   409.33   420.25
eigval :      422.70   423.44   426.17   426.36   428.72   430.74
eigval :      435.18   442.87   447.05   451.99   452.89   454.69
eigval :      475.67   477.56   485.99   487.36   489.53   489.56
eigval :      492.13   509.25   512.58   514.41   514.86   515.22
eigval :      516.19   516.67   542.84   543.93   565.95   566.03
eigval :      578.16   578.20   586.80   593.56   594.22   596.21
eigval :      596.38   608.66   610.99   611.52   627.10   630.03
eigval :      632.11   643.37   643.59   649.00   654.13   658.45
eigval :      668.70   678.50   678.53   682.55   688.21   692.06
eigval :      692.34   692.41   696.27   696.43   698.28   707.66
eigval :      707.69   710.01   724.81   724.92   770.15   770.99
eigval :      772.00   778.70   788.91   806.10   807.87   808.20
eigval :      814.96   815.17   815.21   815.30   825.76   825.85
eigval :      841.69   842.82   845.58   847.94   852.62   853.57
eigval :      854.81   854.99   859.48   866.22   866.25   866.89
eigval :      872.06   872.12   888.11   888.89   894.94   895.29
eigval :      899.41   903.06   903.07   903.18   903.19   908.22
eigval :      908.63   909.11   909.56   921.51   921.57   921.78
eigval :      921.92   933.89   939.43   942.47   942.68   958.72
eigval :      958.74   959.81   959.87   960.33   960.38   962.39
eigval :      962.43   962.49   962.59   962.61   962.84   966.85
eigval :      966.88  1012.09  1013.31  1033.97  1033.98  1034.01
eigval :     1034.11  1034.51  1034.54  1035.06  1035.10  1063.91
eigval :     1064.02  1070.44  1079.46  1092.78  1100.99  1101.63
eigval :     1103.21  1103.24  1109.18  1123.13  1123.81  1128.13
eigval :     1128.19  1132.65  1132.73  1137.15  1138.04  1150.03
eigval :     1158.02  1169.91  1171.78  1171.82  1174.27  1181.35
eigval :     1181.39  1181.76  1182.33  1186.80  1201.40  1207.88
eigval :     1207.97  1211.89  1213.46  1224.18  1225.55  1225.73
eigval :     1225.82  1225.87  1225.91  1226.70  1228.44  1228.47
eigval :     1229.05  1233.03  1235.41  1235.64  1237.20  1244.45
eigval :     1244.52  1250.00  1253.43  1264.28  1265.74  1266.78
eigval :     1267.70  1280.65  1281.03  1286.35  1291.19  1293.73
eigval :     1293.79  1312.64  1316.73  1316.76  1320.17  1320.77
eigval :     1327.66  1331.75  1332.20  1332.53  1333.07  1335.38
eigval :     1337.10  1341.88  1341.99  1373.86  1373.96  1381.81
eigval :     1382.33  1393.35  1393.41  1403.94  1403.97  1404.11
eigval :     1404.17  1404.20  1404.23  1405.43  1405.51  1425.25
eigval :     1426.62  1426.72  1426.73  1427.39  1427.46  1427.62
eigval :     1427.86  1434.21  1434.97  1435.01  1436.30  1453.28
eigval :     1455.51  1458.95  1459.79  1471.12  1481.15  1490.69
eigval :     1490.71  1490.74  1490.76  1491.61  1491.64  1493.76
eigval :     1493.77  1493.91  1493.91  1496.96  1499.66  1499.67
eigval :     1500.82  1501.67  1502.31  1503.29  1504.61  1504.62
eigval :     1504.90  1513.02  1513.05  1514.08  1514.14  1517.40
eigval :     1517.42  1517.45  1522.13  1523.70  1527.17  1527.18
eigval :     1532.00  1555.44  1555.56  1560.15  1560.89  1566.27
eigval :     1571.00  1577.77  1580.34  1580.34  1580.36  1591.66
eigval :     1594.10  3019.46  3019.47  3019.92  3019.93  3021.36
eigval :     3021.44  3021.45  3021.47  3026.74  3026.75  3026.79
eigval :     3026.81  3027.85  3027.89  3028.18  3028.54  3030.77
eigval :     3030.78  3030.78  3030.80  3034.78  3034.81  3035.15
eigval :     3035.17  3037.11  3037.15  3037.15  3037.30  3046.77
eigval :     3046.79  3046.82  3046.83  3049.96  3049.99  3050.06
eigval :     3050.18  3080.25  3080.52  3080.72  3080.93  3082.53
eigval :     3082.59  3082.63  3082.66  3087.64  3087.66  3087.68
eigval :     3087.74  3094.05  3094.12  3094.28  3094.52  3100.55
eigval :     3100.57  3100.65  3100.82  3103.29  3103.34  3103.64
eigval :     3104.06  3108.74  3108.77  3108.99  3109.09  3143.64
eigval :     3144.21  3151.76  3152.84

   temp. (K)  partition function   enthalpy   heat capacity  entropy
                                   cal/mol     cal/K/mol   cal/K/mol   J/K/mol
 298.15  VIB  0.215E+39            45818.761    282.548    289.804
         ROT  0.295E+09              888.752      2.981     41.738
         INT  0.635E+47            46707.513    285.528    331.543
         TR   0.356E+29             1481.254      4.968     46.863
         TOT                       48188.7674   290.4966   378.4060  1583.2507

       T/K    H(0)-H(T)+PV         H(T)/Eh          T*S/Eh         G(T)/Eh
   ------------------------------------------------------------------------
    298.15    0.767937E-01    0.129785E+01    0.179793E+00    0.111806E+01
   ------------------------------------------------------------------------

         :::::::::::::::::::::::::::::::::::::::::::::::::::::
         ::                  THERMODYNAMIC                  ::
         :::::::::::::::::::::::::::::::::::::::::::::::::::::
         :: total free energy        -223.162050103051 Eh   ::
         ::.................................................::
         :: total energy             -224.280105355321 Eh   ::
         :: zero point energy           1.221054466887 Eh   ::
         :: G(RRHO) w/o ZPVE           -0.102999214617 Eh   ::
         :: G(RRHO) contrib.            1.118055252270 Eh   ::
         :::::::::::::::::::::::::::::::::::::::::::::::::::::

           -------------------------------------------------
          | TOTAL ENERGY             -224.280105355321 Eh   |
          | TOTAL ENTHALPY           -222.982257199522 Eh   |
          | TOTAL FREE ENERGY        -223.162050103051 Eh   |
          | GRADIENT NORM               0.000126696542 Eh/α |
           -------------------------------------------------

 * finished run on 2025/08/22 at 21:33:51.365
