   * xtb version 6.7.1 (edcfbbe) compiled by 'albert@albert-system' on 2024-07-22

   ID    Z sym.   atoms
    1    6 C      1-10, 12-21, 23-25, 27-45, 47-52, 54-63, 65-74, 76-84
    2    5 B      11, 64
    3    8 O      22, 53, 75, 85
    4    7 N      26, 46
    5    1 H      86-153

          program call               : xtb data2507/gas/2TDBA-SBA/2TDBA-SBA_gas_S0_crest.xyz --gfn 2 --ohess vtight --parallel 40 --molden --ceasefiles --namespace data2507/gas/2TDBA-SBA/2TDBA-SBA_gas_S0_finalOpt
          :  Hamiltonian                  GFN2-xTB          :
 * total energy  :  -224.3676752 Eh     change       -0.1673811E-07 Eh
 * total energy  :  -224.3676772 Eh     change       -0.2069292E-05 Eh
 * total energy  :  -224.3676812 Eh     change       -0.3920655E-05 Eh
 * total energy  :  -224.3676838 Eh     change       -0.2688890E-05 Eh
 * total energy  :  -224.3676863 Eh     change       -0.2458334E-05 Eh
 * total energy  :  -224.3676893 Eh     change       -0.2991523E-05 Eh
 * total energy  :  -224.3676935 Eh     change       -0.4164990E-05 Eh
 * total energy  :  -224.3676985 Eh     change       -0.5007650E-05 Eh
 * total energy  :  -224.3677021 Eh     change       -0.3605267E-05 Eh
 * total energy  :  -224.3677038 Eh     change       -0.1770782E-05 Eh
 * total energy  :  -224.3677218 Eh     change       -0.8877898E-06 Eh
 * total energy  :  -224.3677225 Eh     change       -0.7340857E-06 Eh
 * total energy  :  -224.3677233 Eh     change       -0.7734519E-06 Eh
 * total energy  :  -224.3677240 Eh     change       -0.7305086E-06 Eh
 * total energy  :  -224.3677247 Eh     change       -0.6701310E-06 Eh
 * total energy  :  -224.3677253 Eh     change       -0.5986044E-06 Eh
 * total energy  :  -224.3677260 Eh     change       -0.6700745E-06 Eh
 * total energy  :  -224.3677269 Eh     change       -0.8879493E-06 Eh
 * total energy  :  -224.3677269 Eh     change       -0.4516323E-08 Eh
   *** GEOMETRY OPTIMIZATION CONVERGED AFTER 44 ITERATIONS ***

 final structure:
================
153
 xtb: 6.7.1 (edcfbbe)
C           13.05802090858404       -3.35054048737864       -2.60559745160220
C           12.54602816592046       -3.25487484076423       -1.16147654153365
C           12.68276965059862       -4.61814321560954       -0.46912223420400
C           13.42344129137205       -2.24855813377772       -0.41126081961459
C           11.07846601290727       -2.85532170494630       -1.18201150420799
C           10.15245987751596       -3.67710723151447       -1.83313527228972
C            8.81523427906859       -3.36400013167699       -1.84992756594844
C            8.35500322783789       -2.20284574541338       -1.22652251590270
C            9.25203279167627       -1.32346407736334       -0.59681136505994
C           10.60146108006253       -1.70608689037519       -0.58325957229675
B            8.65676615296580       -0.03564459241519        0.02154277667559
C            9.29119363914810        1.22451161375749        0.65780439741378
C           10.65633411056593        1.54594296340734        0.68435138810758
C           11.16657414680847        2.67374811799315        1.29632595278886
C           12.65043494528611        3.00758435144044        1.31857981583240
C           13.12217607868571        3.09428952623435        2.77691037267012
C           12.86818247475188        4.35698261472923        0.61979329314178
C           13.50494015835753        1.95649839778824        0.60417726230794
C           10.25950711408222        3.53814237032091        1.91828324726481
C            8.90973180157636        3.28517540915318        1.89610396278203
C            8.41652500496019        2.14423660367625        1.26074924091285
O            7.05873649144898        2.02917503279771        1.27960110341978
C            6.42177598769583        1.03048256184961        0.63199872140908
C            5.03201439542507        1.05937081909353        0.62730373929221
C            4.33514889880519        0.05782801018532       -0.03513615496022
N            2.91632070949218        0.08622715942108       -0.05028468994912
C            2.26834278672330        0.99578602143571       -0.87377822058100
C            3.00309658280998        1.84609284247680       -1.70439919210013
C            2.36762208018699        2.75776974258338       -2.52246916768833
C            0.98592314476159        2.83879992132226       -2.53844499699933
C            0.25330907675477        1.98505866553081       -1.73571214805059
C            0.87360967326721        1.06265435919204       -0.90758377926404
C           -0.00033137572514        0.14288663235310       -0.08073315980240
C            0.81995827647480       -0.80029338481687        0.77538249139547
C            0.14806504769798       -1.68987365326969        1.59920421349184
C            0.83072188098933       -2.56537734691985        2.42224404926437
C            2.21459225512170       -2.54071703666774        2.43084846114249
C            2.90102236265268       -1.66221047893410        1.61775040042519
C            2.21659786992812       -0.78966577707672        0.76739513561199
C           -0.85366680655956        0.99005922725498        0.84072947053721
C           -0.21419124009103        1.82121500405461        1.74703263599156
C           -0.92867395025793        2.60331343034189        2.63483423077366
C           -2.31151427370408        2.54431815429746        2.62273603161559
C           -2.96623447477989        1.72287353365847        1.72783123587423
C           -2.24946195050280        0.94272291439462        0.81674653819253
N           -2.91639700033468        0.12328502588785       -0.08159770108337
C           -4.33586297868867        0.08436156279604       -0.05857330169019
C           -4.97685135835172       -0.97784236119502        0.56365035582273
C           -6.36644813570406       -1.01742329079023        0.57873488340129
C           -7.13188782733827        0.00209751023428       -0.00815438557848
C           -6.44922316207243        1.06403313877887       -0.62152910885576
C           -5.05992552010847        1.10628646847422       -0.65690032470488
O           -7.11328631907466        2.08139779358349       -1.20971586001203
C           -8.47102432984775        2.18131933976422       -1.14964866350480
C           -8.99204859123662        3.33816851666806       -1.73194795218352
C          -10.34432261774172        3.57728245369546       -1.71069915983551
C          -11.22599126669335        2.68209622715433       -1.09584892199841
C          -12.71357908466095        2.99874068328904       -1.07005857087389
C          -13.22275232284899        3.12714450134530       -2.51264726966021
C          -12.92888980275613        4.32193170701529       -0.32216218117060
C          -13.53807433480718        1.91476644918361       -0.36964543173269
C          -10.68837490062567        1.54029766879483       -0.53553337254393
C           -9.31990692333411        1.23246603400697       -0.55489820700900
B           -8.65663024104373       -0.04248597704127        0.02030750485348
C           -9.22276334675989       -1.35272909389333        0.61964709561804
C          -10.57088126771948       -1.73928143811479        0.65295955199960
C          -11.01962681958740       -2.90842572522022        1.23472268133083
C          -12.48639293928820       -3.31000421524970        1.26820415179839
C          -12.93119848681540       -3.45439024278037        2.73045111446522
C          -13.39804614147040       -2.28126620551088        0.59300426462918
C          -12.65415765497519       -4.64993521025236        0.53816037093450
C          -10.06482174639740       -3.74927745714615        1.81615777441260
C           -8.72882859623330       -3.43265803027880        1.78475589075224
C           -8.29839259692738       -2.24937380449581        1.18195477543613
O           -6.94751507167328       -2.07100304964782        1.19019238340907
C           -2.23767139943419       -0.66690179203190       -0.99705488521155
C           -2.94465049835059       -1.44243300361785       -1.91969799964958
C           -2.27941803408912       -2.23265438806548       -2.83468491229303
C           -0.89574842773636       -2.26357652741181       -2.85598088795734
C           -0.19130243328828       -1.48678100651004       -1.95558111380111
C           -0.84152419155351       -0.68715528904100       -1.02877431558776
C            5.00506594696082       -0.97217308370570       -0.68155050799399
C            6.39456503980332       -1.00241414722736       -0.65159502549809
C            7.13213766625712       -0.00168403545245       -0.00023630402843
O            7.00468460789082       -2.02760879954830       -1.28355104538152
H           12.94059617963594       -2.39367957279618       -3.11015201544318
H           12.51432598691052       -4.10222590155389       -3.17085691363269
H           14.11278217766993       -3.61732203136744       -2.61231743852584
H           12.12997575076164       -5.38919013399269       -0.99841923551354
H           12.30098648669005       -4.56278629069586        0.54827926037616
H           13.72856286985357       -4.91569162440016       -0.42988989850150
H           14.45726357948121       -2.58781921471796       -0.42747850930651
H           13.38618500056591       -1.26871858431505       -0.88177012996407
H           13.11684252536775       -2.16000459565150        0.62853359100802
H           10.47673126632312       -4.58227970550875       -2.32342431108526
H            8.09674566753410       -4.00847156097520       -2.33306086308813
H           11.28418713667386       -1.06419342558330       -0.05643523889507
H           11.32489309593317        0.87295007101401        0.17856730404034
H           12.94721349197506        2.14840702926019        3.28547173082580
H           12.59589752725229        3.87466989780773        3.31926103493512
H           14.18706686334945        3.31426307750090        2.81363976677967
H           12.33053165714305        5.15556921957322        1.12326126918623
H           12.51913555778198        4.30759905508053       -0.40961071948666
H           13.92632868070908        4.61007248242531        0.61398393029271
H           13.40781139554015        0.98328087103538        1.07988830396606
H           13.22855019313806        1.87330885192612       -0.44448621216071
H           14.55204232703039        2.24882114764389        0.65183324937907
H           10.60936738185348        4.42935393380321        2.41647802677077
H            8.20690437114429        3.96219924440294        2.35724643704402
H            4.50648323162928        1.85877877479153        1.12473871657228
H            4.08056568210035        1.78659298687250       -1.71042284163622
H            2.95858013864090        3.40586992867331       -3.15277252812774
H            0.48531304924678        3.55229949321094       -3.17474435596486
H           -0.82647238301624        2.02587538415235       -1.74735888520166
H           -0.93241797493421       -1.68790225723736        1.59171551481286
H            0.29007672942072       -3.25256268333601        3.05475859325136
H            2.76732434264145       -3.20704763075109        3.07663212217395
H            3.97972171391357       -1.64643160239558        1.64311329554135
H            0.86607894513455        1.84741870883871        1.75267558241022
H           -0.41299182708569        3.24534572122779        3.33230094910911
H           -2.88814019055611        3.13918696604511        3.31569813371081
H           -4.04455267085521        1.67968840668107        1.73459070883785
H           -4.40865641906816       -1.77074690945240        1.02303836257799
H           -4.55611238289057        1.93028403528800       -1.13625916614155
H           -8.30822205740951        4.03777257951072       -2.18792665147381
H          -10.71602580118581        4.48095036885153       -2.16903077359063
H          -13.05074111875736        2.20019650519283       -3.05589711992773
H          -12.71844682156078        3.93049284881306       -3.04218955197417
H          -14.29047666166551        3.33616047951745       -2.51579172538653
H          -12.55190598005365        4.24389870333697        0.69554862609728
H          -12.41469110567999        5.14329742148432       -0.81332017573174
H          -13.98950482955569        4.56087692840051       -0.28026071782784
H          -14.58939854586703        2.19524783710488       -0.38292013894701
H          -13.23541189382173        1.80177206468552        0.66892481661785
H          -13.44114954709917        0.95844538880414       -0.87848538172658
H          -11.33735496060465        0.84365482931728       -0.03661353245867
H          -11.27781802485580       -1.08293038394617        0.17873688495932
H          -12.79312986121019       -2.51389573872200        3.25994454855184
H          -12.36021763608936       -4.22175025143642        3.24550975309622
H          -13.98384528823042       -3.72550214558646        2.77686981438633
H          -14.42994784777823       -2.62246858592041        0.64672543117138
H          -13.33882269609273       -1.31708389899098        1.09268715514504
H          -13.14064135694975       -2.15868462977668       -0.45662538569448
H          -12.07671480654428       -5.43678386492283        1.01531048438381
H          -13.70041404454042       -4.94842799506692        0.53779784279913
H          -12.32021375126892       -4.56007432177211       -0.49350625241925
H          -10.36590366458325       -4.67113782805860        2.28981583742094
H           -7.98858213509701       -4.09011113638082        2.21459031425263
H           -4.02368979044370       -1.42018897303050       -1.91897002060164
H           -2.84831150594500       -2.82494884692767       -3.53618150177749
H           -0.37172926463760       -2.88126497238321       -3.56905315488635
H            0.88919108353342       -1.49361457703407       -1.96654859322929
H            4.45848391345806       -1.74925331935518       -1.19152319014629

          :  Hamiltonian                  GFN2-xTB          :
         :: gradient norm              0.000046540276 Eh/a0 ::
         :: HOMO-LUMO gap              1.833239938800 eV    ::
         :: SCC energy              -228.139638319732 Eh    ::
         :: -> dispersion             -0.217947452113 Eh    ::
         :: repulsion energy           3.771911452320 Eh    ::

    * Orbital Energies and Occupations

         #    Occupation            Energy/Eh            Energy/eV
      -------------------------------------------------------------
         1        2.0000           -0.7294945             -19.8506
       ...           ...                  ...                  ...
       196        2.0000           -0.3923785             -10.6772
       197        2.0000           -0.3914581             -10.6521
       198        2.0000           -0.3879503             -10.5567
       199        2.0000           -0.3877300             -10.5507
       200        2.0000           -0.3838235             -10.4444
       201        2.0000           -0.3835179             -10.4361
       202        2.0000           -0.3827751             -10.4158
       203        2.0000           -0.3818835             -10.3916
       204        2.0000           -0.3817279             -10.3873
       205        2.0000           -0.3672243              -9.9927
       206        2.0000           -0.3668766              -9.9832
       207        2.0000           -0.3391202              -9.2279
       208        2.0000           -0.3388071              -9.2194 (HOMO)
       209                         -0.2714368              -7.3862 (LUMO)
       210                         -0.2710893              -7.3767
       211                         -0.2337411              -6.3604
       212                         -0.2333796              -6.3506
       213                         -0.2308871              -6.2828
       214                         -0.2306031              -6.2750
       215                         -0.2249976              -6.1225
       216                         -0.2204078              -5.9976
       217                         -0.2201409              -5.9903
       218                         -0.2137323              -5.8160
       219                         -0.2121273              -5.7723
       ...                                ...                  ...
       408                          0.6987977              19.0153
      -------------------------------------------------------------
                  HL-Gap            0.0673703 Eh            1.8332 eV

     #   Z          covCN         q      C6AA      α(0)
     1   6 C        3.762    -0.106    22.579     6.774
     2   6 C        3.903     0.025    20.090     6.371
     3   6 C        3.762    -0.106    22.578     6.774
     4   6 C        3.761    -0.108    22.608     6.778
     5   6 C        2.969     0.000    28.015     8.682
     6   6 C        2.928    -0.031    28.781     8.798
     7   6 C        2.913    -0.055    29.364     8.886
     8   6 C        2.878     0.135    25.053     8.205
     9   6 C        2.882    -0.093    30.324     9.028
    10   6 C        2.931    -0.045    29.105     8.848
    11   5 B        2.724     0.210    18.235     7.155
    12   6 C        2.882    -0.093    30.324     9.028
    13   6 C        2.931    -0.044    29.105     8.848
    14   6 C        2.969     0.000    28.015     8.682
    15   6 C        3.903     0.025    20.090     6.371
    16   6 C        3.762    -0.106    22.579     6.774
    17   6 C        3.762    -0.106    22.578     6.773
    18   6 C        3.761    -0.108    22.608     6.778
    19   6 C        2.928    -0.031    28.781     8.798
    20   6 C        2.913    -0.055    29.364     8.886
    21   6 C        2.878     0.135    25.053     8.205
    22   8 O        1.711    -0.220    17.658     5.674
    23   6 C        2.874     0.140    24.936     8.186
    24   6 C        2.916    -0.079    29.968     8.977
    25   6 C        2.930     0.073    26.372     8.422
    26   7 N        2.754    -0.067    22.541     7.051
    27   6 C        2.925     0.060    26.661     8.468
    28   6 C        2.924    -0.058    29.445     8.899
    29   6 C        2.920    -0.033    28.812     8.802
    30   6 C        2.917    -0.043    29.074     8.842
    31   6 C        2.927    -0.034    28.847     8.808
    32   6 C        2.989    -0.011    28.270     8.722
    33   6 C        3.929     0.015    20.261     6.397
    34   6 C        2.989    -0.011    28.271     8.722
    35   6 C        2.927    -0.034    28.852     8.809
    36   6 C        2.917    -0.043    29.076     8.842
    37   6 C        2.920    -0.033    28.813     8.802
    38   6 C        2.924    -0.058    29.444     8.899
    39   6 C        2.925     0.060    26.659     8.467
    40   6 C        2.989    -0.011    28.275     8.723
    41   6 C        2.927    -0.034    28.849     8.808
    42   6 C        2.917    -0.043    29.079     8.843
    43   6 C        2.920    -0.033    28.812     8.802
    44   6 C        2.924    -0.058    29.448     8.899
    45   6 C        2.926     0.060    26.657     8.467
    46   7 N        2.755    -0.068    22.554     7.053
    47   6 C        2.930     0.073    26.364     8.421
    48   6 C        2.916    -0.078    29.961     8.976
    49   6 C        2.874     0.141    24.933     8.185
    50   6 C        2.888    -0.125    31.172     9.154
    51   6 C        2.874     0.141    24.935     8.186
    52   6 C        2.916    -0.079    29.963     8.976
    53   8 O        1.712    -0.220    17.653     5.673
    54   6 C        2.878     0.135    25.053     8.205
    55   6 C        2.913    -0.055    29.363     8.886
    56   6 C        2.928    -0.031    28.779     8.798
    57   6 C        2.969     0.000    28.014     8.682
    58   6 C        3.903     0.025    20.090     6.371
    59   6 C        3.762    -0.106    22.580     6.774
    60   6 C        3.762    -0.106    22.578     6.773
    61   6 C        3.761    -0.108    22.608     6.778
    62   6 C        2.931    -0.045    29.105     8.848
    63   6 C        2.882    -0.093    30.323     9.028
    64   5 B        2.724     0.210    18.235     7.155
    65   6 C        2.882    -0.093    30.323     9.028
    66   6 C        2.931    -0.044    29.105     8.848
    67   6 C        2.969     0.000    28.014     8.682
    68   6 C        3.903     0.025    20.090     6.371
    69   6 C        3.762    -0.106    22.579     6.774
    70   6 C        3.761    -0.108    22.608     6.778
    71   6 C        3.762    -0.106    22.579     6.774
    72   6 C        2.928    -0.031    28.779     8.798
    73   6 C        2.913    -0.055    29.363     8.886
    74   6 C        2.878     0.135    25.053     8.205
    75   8 O        1.712    -0.220    17.650     5.672
    76   6 C        2.926     0.060    26.657     8.467
    77   6 C        2.924    -0.058    29.443     8.898
    78   6 C        2.920    -0.033    28.812     8.802
    79   6 C        2.917    -0.043    29.078     8.843
    80   6 C        2.927    -0.034    28.852     8.809
    81   6 C        2.989    -0.011    28.275     8.722
    82   6 C        2.916    -0.079    29.968     8.977
    83   6 C        2.874     0.140    24.936     8.186
    84   6 C        2.888    -0.125    31.176     9.154
    85   8 O        1.711    -0.220    17.658     5.674
    86   1 H        0.925     0.034     2.530     2.487
    87   1 H        0.925     0.037     2.494     2.470
    88   1 H        0.925     0.038     2.480     2.463
    89   1 H        0.925     0.037     2.495     2.470
    90   1 H        0.925     0.034     2.530     2.487
    91   1 H        0.925     0.038     2.481     2.463
    92   1 H        0.925     0.037     2.490     2.468
    93   1 H        0.925     0.036     2.498     2.472
    94   1 H        0.925     0.035     2.511     2.478
    95   1 H        0.926     0.036     2.505     2.475
    96   1 H        0.926     0.044     2.399     2.422
    97   1 H        0.926     0.046     2.368     2.406
    98   1 H        0.926     0.046     2.368     2.407
    99   1 H        0.925     0.034     2.530     2.487
   100   1 H        0.925     0.037     2.494     2.469
   101   1 H        0.925     0.038     2.481     2.463
   102   1 H        0.925     0.037     2.495     2.470
   103   1 H        0.925     0.034     2.530     2.487
   104   1 H        0.925     0.038     2.481     2.463
   105   1 H        0.925     0.036     2.498     2.472
   106   1 H        0.925     0.035     2.512     2.478
   107   1 H        0.925     0.037     2.490     2.468
   108   1 H        0.926     0.036     2.505     2.475
   109   1 H        0.926     0.044     2.399     2.422
   110   1 H        0.926     0.054     2.265     2.353
   111   1 H        0.926     0.026     2.650     2.546
   112   1 H        0.926     0.028     2.621     2.532
   113   1 H        0.926     0.027     2.636     2.539
   114   1 H        0.926     0.026     2.641     2.542
   115   1 H        0.926     0.026     2.642     2.542
   116   1 H        0.926     0.027     2.636     2.539
   117   1 H        0.926     0.028     2.621     2.531
   118   1 H        0.926     0.026     2.650     2.545
   119   1 H        0.926     0.026     2.644     2.543
   120   1 H        0.926     0.026     2.637     2.539
   121   1 H        0.926     0.027     2.622     2.532
   122   1 H        0.926     0.025     2.657     2.549
   123   1 H        0.926     0.054     2.266     2.354
   124   1 H        0.926     0.055     2.261     2.351
   125   1 H        0.926     0.044     2.398     2.422
   126   1 H        0.926     0.036     2.503     2.474
   127   1 H        0.925     0.034     2.530     2.487
   128   1 H        0.925     0.037     2.494     2.469
   129   1 H        0.925     0.038     2.480     2.463
   130   1 H        0.925     0.034     2.530     2.487
   131   1 H        0.925     0.037     2.494     2.470
   132   1 H        0.925     0.038     2.481     2.463
   133   1 H        0.925     0.037     2.489     2.467
   134   1 H        0.925     0.035     2.512     2.479
   135   1 H        0.925     0.036     2.498     2.472
   136   1 H        0.926     0.046     2.367     2.406
   137   1 H        0.926     0.046     2.367     2.406
   138   1 H        0.925     0.034     2.530     2.487
   139   1 H        0.925     0.037     2.494     2.469
   140   1 H        0.925     0.038     2.480     2.462
   141   1 H        0.925     0.037     2.489     2.467
   142   1 H        0.925     0.036     2.498     2.472
   143   1 H        0.925     0.035     2.512     2.478
   144   1 H        0.925     0.037     2.494     2.470
   145   1 H        0.925     0.038     2.481     2.463
   146   1 H        0.925     0.034     2.530     2.487
   147   1 H        0.926     0.036     2.503     2.474
   148   1 H        0.926     0.044     2.398     2.422
   149   1 H        0.926     0.025     2.659     2.550
   150   1 H        0.926     0.028     2.622     2.532
   151   1 H        0.926     0.026     2.637     2.539
   152   1 H        0.926     0.026     2.641     2.542
   153   1 H        0.926     0.055     2.263     2.353

molecular dipole:
                 x           y           z       tot (Debye)
 q only:       -0.038      -0.080       0.049
   full:       -0.038      -0.076       0.048       0.248

 projected vibrational frequencies (cm⁻¹)
eigval :       -0.00     0.00     0.00     0.00     0.00     0.00
eigval :        2.13     2.66     3.04     7.11    14.66    15.00
eigval :       19.16    21.28    24.65    26.99    28.74    28.86
eigval :       35.96    36.23    47.40    47.90    49.32    58.69
eigval :       63.54    67.11    68.90    73.89    77.84    78.08
eigval :       90.42    92.48   106.60   110.21   110.47   115.39
eigval :      116.98   124.97   130.51   133.53   137.03   137.73
eigval :      139.65   168.90   173.02   173.12   176.02   176.30
eigval :      208.00   208.34   209.76   211.54   215.81   216.75
eigval :      219.56   220.19   220.56   221.49   227.48   227.53
eigval :      234.50   240.95   246.40   260.01   262.37   263.06
eigval :      267.82   268.33   271.24   282.05   283.84   289.56
eigval :      291.57   293.71   318.20   322.09   322.31   322.40
eigval :      322.49   329.33   330.17   330.57   331.15   353.48
eigval :      354.00   360.18   365.21   365.26   365.36   365.36
eigval :      375.30   384.58   385.22   385.42   385.76   392.90
eigval :      393.12   401.56   405.10   414.05   414.52   421.75
eigval :      428.99   432.42   435.43   435.49   435.94   436.46
eigval :      438.83   444.27   448.54   451.74   453.76   453.94
eigval :      477.34   480.39   487.50   493.79   493.91   501.75
eigval :      504.96   506.51   508.11   517.02   517.05   518.31
eigval :      518.82   531.57   554.30   556.14   570.10   570.22
eigval :      582.16   582.34   590.89   598.31   598.82   599.02
eigval :      599.23   610.56   618.81   619.07   631.17   646.12
eigval :      646.21   652.58   652.89   654.22   657.98   661.36
eigval :      666.80   687.24   688.64   688.79   694.37   694.48
eigval :      695.10   697.51   697.91   702.77   702.96   712.58
eigval :      717.34   717.63   729.90   730.09   771.65   772.31
eigval :      773.01   780.68   797.77   808.70   825.77   826.66
eigval :      829.63   829.69   830.75   832.08   833.43   833.77
eigval :      851.76   854.10   860.28   861.36   864.26   864.85
eigval :      864.90   866.27   869.21   871.10   873.80   873.90
eigval :      874.88   875.12   893.65   893.85   896.69   897.14
eigval :      901.73   906.90   907.46   908.16   908.83   919.79
eigval :      919.91   920.16   920.33   921.96   921.96   922.23
eigval :      922.28   941.88   942.02   946.84   947.58   960.03
eigval :      960.08   960.52   960.73   960.87   960.98   963.28
eigval :      963.34   963.40   963.46   963.49   963.49   969.63
eigval :      969.71  1021.38  1028.77  1034.60  1034.64  1035.62
eigval :     1035.65  1035.72  1035.81  1035.92  1035.97  1080.05
eigval :     1080.49  1085.63  1086.22  1099.23  1106.32  1107.32
eigval :     1108.34  1108.90  1123.14  1124.29  1124.80  1132.42
eigval :     1132.55  1139.96  1140.16  1142.18  1142.37  1165.56
eigval :     1172.73  1178.49  1178.78  1179.15  1179.29  1184.36
eigval :     1184.47  1184.67  1186.93  1190.87  1213.05  1218.78
eigval :     1218.89  1220.39  1221.37  1228.35  1228.44  1228.47
eigval :     1228.51  1230.12  1230.25  1231.76  1232.80  1233.52
eigval :     1233.68  1243.49  1244.02  1248.88  1249.34  1254.36
eigval :     1257.60  1266.16  1266.27  1269.76  1270.61  1276.82
eigval :     1278.47  1283.31  1283.58  1295.80  1296.00  1296.04
eigval :     1296.24  1328.14  1328.66  1334.16  1334.19  1334.34
eigval :     1336.13  1337.85  1338.60  1339.06  1339.32  1341.14
eigval :     1342.05  1350.47  1351.52  1398.34  1398.61  1401.76
eigval :     1401.88  1402.38  1402.60  1406.43  1406.46  1406.57
eigval :     1406.59  1410.13  1410.46  1413.39  1413.57  1429.22
eigval :     1429.26  1430.10  1430.14  1436.27  1438.69  1440.19
eigval :     1440.74  1444.62  1444.87  1448.96  1449.10  1464.29
eigval :     1464.41  1481.65  1482.28  1492.02  1492.04  1492.09
eigval :     1492.10  1492.44  1494.45  1494.46  1494.59  1494.59
eigval :     1495.60  1499.70  1499.74  1502.94  1502.95  1504.93
eigval :     1504.94  1505.27  1505.28  1514.71  1514.77  1515.57
eigval :     1515.71  1518.23  1518.33  1522.99  1523.11  1535.59
eigval :     1535.72  1546.17  1546.40  1550.79  1550.94  1575.05
eigval :     1575.08  1575.12  1577.04  1586.45  1592.11  1592.19
eigval :     1592.74  1598.22  1598.26  1601.71  1601.80  1603.87
eigval :     1604.99  3021.91  3021.97  3022.40  3022.52  3024.32
eigval :     3024.36  3024.36  3024.40  3027.15  3027.16  3027.27
eigval :     3027.30  3030.61  3030.65  3031.11  3031.21  3031.63
eigval :     3031.64  3031.66  3031.66  3035.54  3035.54  3036.06
eigval :     3036.12  3038.65  3038.67  3038.73  3038.91  3047.88
eigval :     3047.91  3047.93  3047.95  3051.33  3051.38  3051.70
eigval :     3051.75  3075.87  3075.91  3076.19  3076.52  3078.88
eigval :     3078.98  3079.09  3079.56  3084.90  3084.98  3085.02
eigval :     3085.11  3093.14  3093.59  3093.68  3094.12  3097.58
eigval :     3097.69  3097.92  3098.04  3098.98  3099.75  3099.87
eigval :     3100.91  3110.69  3111.08  3111.19  3111.61  3142.63
eigval :     3143.98  3150.86  3152.53

   temp. (K)  partition function   enthalpy   heat capacity  entropy
                                   cal/mol     cal/K/mol   cal/K/mol   J/K/mol
 298.15  VIB  0.508E+38            45468.554    280.564    286.808
         ROT  0.589E+09              888.752      2.981     43.111
         INT  0.299E+47            46357.306    283.545    329.918
         TR   0.356E+29             1481.254      4.968     46.863
         TOT                       47838.5601   288.5127   376.7817  1576.4546

       T/K    H(0)-H(T)+PV         H(T)/Eh          T*S/Eh         G(T)/Eh
   ------------------------------------------------------------------------
    298.15    0.762356E-01    0.130283E+01    0.179021E+00    0.112381E+01
   ------------------------------------------------------------------------

         :::::::::::::::::::::::::::::::::::::::::::::::::::::
         ::                  THERMODYNAMIC                  ::
         :::::::::::::::::::::::::::::::::::::::::::::::::::::
         :: total free energy        -223.243920455565 Eh   ::
         ::.................................................::
         :: total energy             -224.367726867413 Eh   ::
         :: zero point energy           1.226591952639 Eh   ::
         :: G(RRHO) w/o ZPVE           -0.102785540792 Eh   ::
         :: G(RRHO) contrib.            1.123806411847 Eh   ::
         :::::::::::::::::::::::::::::::::::::::::::::::::::::

           -------------------------------------------------
          | TOTAL ENERGY             -224.367726867413 Eh   |
          | TOTAL ENTHALPY           -223.064899316677 Eh   |
          | TOTAL FREE ENERGY        -223.243920455565 Eh   |
          | GRADIENT NORM               0.000046540320 Eh/α |
          | HOMO-LUMO GAP               1.833240347665 eV   |
           -------------------------------------------------

 * finished run on 2025/08/22 at 20:35:46.019
