   * xtb version 6.7.1 (edcfbbe) compiled by 'albert@albert-system' on 2024-07-22

   ID    Z sym.   atoms
    1    6 C      1-14, 16-30, 32-44
    2    7 N      15, 31
    3    1 H      45-72

          program call               : xtb data2507/gas/DCz-OTP/DCz-OTP.xyz --gfn 2 --ohess vtight --parallel 40 --molden --ceasefiles --namespace data2507/gas/DCz-OTP/DCz-OTP_gas_S0_preOpt
          :  Hamiltonian                  GFN2-xTB          :
 * total energy  :  -110.1107349 Eh     change       -0.1703683E-08 Eh
 * total energy  :  -110.1245253 Eh     change       -0.1379040E-01 Eh
 * total energy  :  -110.1276022 Eh     change       -0.3076903E-02 Eh
 * total energy  :  -110.1282305 Eh     change       -0.6282469E-03 Eh
 * total energy  :  -110.1287507 Eh     change       -0.5202522E-03 Eh
 * total energy  :  -110.1290944 Eh     change       -0.3436895E-03 Eh
 * total energy  :  -110.1294727 Eh     change       -0.3783104E-03 Eh
 * total energy  :  -110.1298354 Eh     change       -0.3626889E-03 Eh
 * total energy  :  -110.1301128 Eh     change       -0.2773269E-03 Eh
 * total energy  :  -110.1303162 Eh     change       -0.2034949E-03 Eh
 * total energy  :  -110.1327336 Eh     change       -0.6886284E-06 Eh
 * total energy  :  -110.1327344 Eh     change       -0.7367299E-06 Eh
 * total energy  :  -110.1327351 Eh     change       -0.7467147E-06 Eh
 * total energy  :  -110.1327358 Eh     change       -0.6588377E-06 Eh
 * total energy  :  -110.1327364 Eh     change       -0.5881645E-06 Eh
 * total energy  :  -110.1327369 Eh     change       -0.5174291E-06 Eh
 * total energy  :  -110.1327373 Eh     change       -0.4613666E-06 Eh
 * total energy  :  -110.1327378 Eh     change       -0.4243038E-06 Eh
 * total energy  :  -110.1327378 Eh     change       -0.3997897E-08 Eh
   *** GEOMETRY OPTIMIZATION CONVERGED AFTER 221 ITERATIONS ***

 final structure:
================
72
 xtb: 6.7.1 (edcfbbe)
C            1.35613929248107        0.80914148750689        3.53402669150046
C            1.31143441568103        2.07041437382836        2.96439767145590
C            1.62690321511051        2.24439598537564        1.61807077315358
C            1.49059430899891        3.55075193567279        0.94824068619988
C            1.97765530912063        4.70716583737398        1.54762887858914
C            1.87261102523168        5.93325324863169        0.91647560103980
C            1.27664246938728        6.01957871288874       -0.32994917085921
C            0.78196832656047        4.87836368777086       -0.93654591245653
C            0.87304151229156        3.64364023684351       -0.30968836677221
C            0.32718371090389        2.43045386478629       -0.95979166941389
C            0.94939923119966        1.89535863806455       -2.08391859102116
C            0.55542585683739        0.66131903173392       -2.57009888859219
C           -0.47436182270796       -0.03424968219300       -1.96529994565556
C           -1.16929699064308        0.53749226473561       -0.90094925139043
N           -2.25379830510938       -0.13973714970601       -0.33244936753487
C           -3.21716929191707       -0.83816880747468       -1.03878525529590
C           -3.43697091416349       -0.91463242568648       -2.40716572072948
C           -4.50611587177636       -1.66853126406712       -2.85181254420394
C           -5.35350411946160       -2.32744046422994       -1.96433998123604
C           -5.16450745223540       -2.22550398097004       -0.60119412340194
C           -4.09722563163855       -1.47120491952009       -0.13245653318420
C           -3.63969574200926       -1.13192842054648        1.18468766994426
C           -4.08399492656924       -1.46677582839652        2.45685052482556
C           -3.39517414979892       -0.97912558771362        3.54889913932668
C           -2.26984896049292       -0.17709958208738        3.37818969412071
C           -1.80978597957427        0.16822701198889        2.12160672388321
C           -2.50630213045411       -0.30323344168189        1.01747161066237
C           -0.76087414616407        1.77102553960843       -0.40354670855810
C            2.01862197663286        1.13411635517087        0.88206507076687
C            1.98005292684042       -0.14102800939720        1.42878493553291
N            2.18782315402758       -1.23442700451689        0.56910123441906
C            3.16892694346569       -1.29770964663007       -0.40066091592136
C            4.35957005466020       -0.59122282492564       -0.48792865829166
C            5.19900073031902       -0.87156420809891       -1.54898552907549
C            4.87115850580548       -1.83616358692922       -2.49934054751898
C            3.69380526270608       -2.55191487970437       -2.40932080813882
C            2.83240305734380       -2.28537292378897       -1.35349289196392
C            1.55679614358516       -2.81300079430517       -0.95643528779426
C            0.69254528853230       -3.74542041001323       -1.51539484287545
C           -0.51569358766243       -3.98678633551001       -0.89182451274052
C           -0.85933468714734       -3.32290236106806        0.28317829260905
C           -0.01065564138416       -2.39983968762516        0.86378010531025
C            1.19523595472208       -2.13930794134218        0.23221249686714
C            1.65832416614904       -0.30667156878112        2.77048654822060
H            1.12022574440625        0.68769371700799        4.58101462669640
H            1.00349882612645        2.91957010507746        3.55658426458317
H            2.46335062160201        4.63601208752068        2.51024079823500
H            2.26099333583375        6.82020078451810        1.39483290742573
H            1.19638206138629        6.97379753291158       -0.82912063956598
H            0.30734331904964        4.93946069715198       -1.90550043703877
H            1.77544472128623        2.42347620180005       -2.53824873581390
H            1.07678026150180        0.22164104763585       -3.40748604922330
H           -0.73229894621253       -1.02682643771630       -2.30001909648690
H           -2.80685768727564       -0.38942223429074       -3.10838408655011
H           -4.69186668448431       -1.74373890393534       -3.91320605152739
H           -6.17521782498377       -2.91113617924929       -2.35192130668122
H           -5.83399651242258       -2.71383766384729        0.09097388786756
H           -4.94916968451436       -2.10020848310654        2.58328782748423
H           -3.72411835814209       -1.22548387584088        4.54752765865440
H           -1.73787860833928        0.18248574017266        4.24678296777263
H           -0.92143885079376        0.76908817366497        2.01501642921754
H           -1.29036847762116        2.22582060845537        0.41958193549824
H            2.32130574287845        1.24432289527090       -0.14598664144040
H            4.62380845549039        0.14946603186201        0.25234625583032
H            6.13128202613499       -0.33400241452388       -1.64194254494711
H            5.55458268738500       -2.02753434113477       -3.31343057601461
H            3.44590217677924       -3.30647109819765       -3.14082332992135
H            0.96002902893226       -4.26048831607509       -2.42610758111977
H           -1.20847140890235       -4.69730814711924       -1.31789694972402
H           -1.81153708724168       -3.52825122372564        0.74963211333423
H           -0.29124613951919       -1.88841812924092        1.77093934501001
H            1.64458477391251       -1.29364265023538        3.20653668458275

          :  Hamiltonian                  GFN2-xTB          :
         :: gradient norm              0.000052513367 Eh/a0 ::
         :: HOMO-LUMO gap              2.889770977022 eV    ::
         :: SCC energy              -112.251659660704 Eh    ::
         :: -> dispersion             -0.117766047755 Eh    ::
         :: repulsion energy           2.118921888683 Eh    ::

    * Orbital Energies and Occupations

         #    Occupation            Energy/Eh            Energy/eV
      -------------------------------------------------------------
         1        2.0000           -0.6726981             -18.3050
       ...           ...                  ...                  ...
        91        2.0000           -0.4145001             -11.2791
        92        2.0000           -0.4132371             -11.2448
        93        2.0000           -0.4126422             -11.2286
        94        2.0000           -0.4088078             -11.1242
        95        2.0000           -0.4082624             -11.1094
        96        2.0000           -0.4027818             -10.9602
        97        2.0000           -0.4010693             -10.9137
        98        2.0000           -0.4007592             -10.9052
        99        2.0000           -0.3891504             -10.5893
       100        2.0000           -0.3759649             -10.2305
       101        2.0000           -0.3751294             -10.2078
       102        2.0000           -0.3605459              -9.8110
       103        2.0000           -0.3591624              -9.7733 (HOMO)
       104                         -0.2529653              -6.8835 (LUMO)
       105                         -0.2441455              -6.6435
       106                         -0.2421006              -6.5879
       107                         -0.2397134              -6.5229
       108                         -0.2339772              -6.3668
       109                         -0.2303836              -6.2691
       110                         -0.2201992              -5.9919
       111                         -0.2194235              -5.9708
       112                         -0.2177069              -5.9241
       113                         -0.2082582              -5.6670
       114                         -0.1903455              -5.1796
       ...                                ...                  ...
       204                          0.7494856              20.3945
      -------------------------------------------------------------
                  HL-Gap            0.1061971 Eh            2.8898 eV

     #   Z          covCN         q      C6AA      α(0)
     1   6 C        2.919    -0.028    28.694     8.784
     2   6 C        2.923    -0.039    28.963     8.826
     3   6 C        2.975     0.012    27.741     8.640
     4   6 C        2.980     0.006    27.891     8.663
     5   6 C        2.923    -0.033    28.831     8.805
     6   6 C        2.918    -0.031    28.779     8.797
     7   6 C        2.918    -0.030    28.755     8.794
     8   6 C        2.923    -0.033    28.818     8.803
     9   6 C        2.981     0.007    27.858     8.658
    10   6 C        2.977     0.014    27.692     8.632
    11   6 C        2.923    -0.039    28.970     8.827
    12   6 C        2.918    -0.028    28.708     8.786
    13   6 C        2.923    -0.045    29.125     8.850
    14   6 C        2.911     0.064    26.561     8.451
    15   7 N        2.800    -0.042    22.058     6.975
    16   6 C        3.075     0.048    26.851     8.496
    17   6 C        2.910    -0.050    29.239     8.867
    18   6 C        2.924    -0.033    28.831     8.805
    19   6 C        2.920    -0.041    29.008     8.832
    20   6 C        2.913    -0.033    28.820     8.803
    21   6 C        3.068    -0.016    28.338     8.729
    22   6 C        3.069    -0.016    28.330     8.727
    23   6 C        2.913    -0.033    28.826     8.804
    24   6 C        2.920    -0.041    29.016     8.833
    25   6 C        2.924    -0.034    28.853     8.809
    26   6 C        2.910    -0.051    29.270     8.871
    27   6 C        3.072     0.049    26.825     8.492
    28   6 C        2.927    -0.050    29.240     8.868
    29   6 C        2.934    -0.048    29.199     8.862
    30   6 C        2.915     0.065    26.540     8.448
    31   7 N        2.800    -0.056    22.311     7.015
    32   6 C        3.081     0.048    26.843     8.494
    33   6 C        2.910    -0.050    29.240     8.867
    34   6 C        2.924    -0.034    28.846     8.808
    35   6 C        2.920    -0.041    29.029     8.835
    36   6 C        2.913    -0.033    28.832     8.805
    37   6 C        3.066    -0.017    28.367     8.734
    38   6 C        3.068    -0.017    28.367     8.733
    39   6 C        2.913    -0.034    28.841     8.806
    40   6 C        2.920    -0.041    29.013     8.833
    41   6 C        2.924    -0.032    28.786     8.799
    42   6 C        2.910    -0.051    29.265     8.871
    43   6 C        3.080     0.049    26.824     8.491
    44   6 C        2.920    -0.043    29.072     8.842
    45   1 H        0.926     0.036     2.504     2.475
    46   1 H        0.926     0.035     2.514     2.479
    47   1 H        0.926     0.034     2.531     2.488
    48   1 H        0.926     0.033     2.550     2.497
    49   1 H        0.926     0.033     2.544     2.494
    50   1 H        0.926     0.033     2.548     2.496
    51   1 H        0.926     0.032     2.557     2.501
    52   1 H        0.926     0.036     2.506     2.476
    53   1 H        0.926     0.041     2.429     2.437
    54   1 H        0.926     0.029     2.603     2.523
    55   1 H        0.926     0.029     2.598     2.521
    56   1 H        0.926     0.028     2.614     2.528
    57   1 H        0.926     0.031     2.576     2.510
    58   1 H        0.926     0.031     2.578     2.511
    59   1 H        0.926     0.027     2.624     2.533
    60   1 H        0.926     0.026     2.643     2.542
    61   1 H        0.926     0.026     2.640     2.541
    62   1 H        0.926     0.038     2.475     2.460
    63   1 H        0.926     0.041     2.437     2.441
    64   1 H        0.926     0.025     2.652     2.547
    65   1 H        0.926     0.028     2.614     2.528
    66   1 H        0.926     0.027     2.627     2.535
    67   1 H        0.926     0.030     2.589     2.516
    68   1 H        0.926     0.030     2.591     2.517
    69   1 H        0.926     0.027     2.629     2.536
    70   1 H        0.926     0.028     2.614     2.528
    71   1 H        0.926     0.028     2.616     2.529
    72   1 H        0.926     0.041     2.436     2.441

molecular dipole:
                 x           y           z       tot (Debye)
 q only:        0.216       0.677       0.121
   full:        0.275       0.766       0.127       2.094

 projected vibrational frequencies (cm⁻¹)
eigval :       -0.00    -0.00    -0.00     0.00     0.00     0.00
eigval :       10.30    23.75    29.28    32.72    42.06    45.04
eigval :       64.30    67.28    78.51    92.25    97.56   109.47
eigval :      111.35   119.42   144.34   155.85   170.04   176.37
eigval :      203.18   212.80   235.96   241.20   261.90   268.19
eigval :      274.92   277.30   284.69   303.06   321.16   325.78
eigval :      350.99   362.27   381.26   395.47   400.01   404.55
eigval :      423.62   425.25   431.62   436.29   443.07   450.67
eigval :      501.91   514.40   518.94   519.67   532.66   536.09
eigval :      541.31   542.36   558.20   569.48   586.74   588.38
eigval :      592.71   597.19   609.55   613.26   625.73   637.74
eigval :      671.31   674.31   675.93   680.61   683.52   701.00
eigval :      709.49   710.62   714.54   755.14   756.27   770.57
eigval :      771.67   778.87   781.49   782.07   783.19   793.00
eigval :      803.04   805.95   869.91   871.61   873.47   876.21
eigval :      886.03   892.91   893.68   896.32   898.75   900.18
eigval :      901.28   905.18   908.66   909.21   910.60   919.04
eigval :      922.19   922.99   925.16   928.46   929.76   930.76
eigval :      932.50   936.99   948.08   999.18  1003.24  1011.47
eigval :     1012.62  1037.81  1069.67  1073.97  1074.24  1077.98
eigval :     1088.07  1100.64  1119.49  1119.88  1121.98  1130.95
eigval :     1145.31  1151.87  1155.59  1175.16  1176.12  1179.49
eigval :     1180.79  1181.10  1181.90  1182.78  1192.63  1194.16
eigval :     1233.04  1236.53  1237.13  1241.49  1247.85  1257.63
eigval :     1265.65  1276.86  1289.63  1300.28  1300.61  1302.63
eigval :     1305.08  1305.86  1313.28  1318.14  1353.14  1356.71
eigval :     1360.07  1360.68  1363.21  1365.11  1408.00  1418.44
eigval :     1426.79  1427.94  1428.99  1436.56  1454.21  1461.67
eigval :     1472.85  1475.26  1480.62  1488.19  1488.61  1492.00
eigval :     1566.28  1570.62  1572.19  1575.86  1576.71  1587.93
eigval :     1589.00  1589.94  1591.03  1595.51  1599.29  1599.85
eigval :     1615.59  1615.82  3073.97  3074.26  3075.77  3076.02
eigval :     3076.58  3076.75  3077.18  3078.55  3079.02  3081.50
eigval :     3083.31  3083.76  3084.34  3086.40  3088.11  3089.31
eigval :     3090.61  3092.64  3093.56  3093.80  3094.42  3096.67
eigval :     3098.19  3100.06  3104.99  3106.06  3118.57  3125.49

   temp. (K)  partition function   enthalpy   heat capacity  entropy
                                   cal/mol     cal/K/mol   cal/K/mol   J/K/mol
 298.15  VIB  0.464E+14            19164.233    127.339    116.462
         ROT  0.370E+08              888.752      2.981     37.611
         INT  0.172E+22            20052.985    130.320    154.072
         TR   0.128E+29             1481.254      4.968     44.837
         TOT                       21534.2392   135.2882   198.9088   832.2345

       T/K    H(0)-H(T)+PV         H(T)/Eh          T*S/Eh         G(T)/Eh
   ------------------------------------------------------------------------
    298.15    0.343170E-01    0.592920E+00    0.945080E-01    0.498412E+00
   ------------------------------------------------------------------------

         :::::::::::::::::::::::::::::::::::::::::::::::::::::
         ::                  THERMODYNAMIC                  ::
         :::::::::::::::::::::::::::::::::::::::::::::::::::::
         :: total free energy        -109.634326053336 Eh   ::
         ::.................................................::
         :: total energy             -110.132737772020 Eh   ::
         :: zero point energy           0.558602725834 Eh   ::
         :: G(RRHO) w/o ZPVE           -0.060191007151 Eh   ::
         :: G(RRHO) contrib.            0.498411718683 Eh   ::
         :::::::::::::::::::::::::::::::::::::::::::::::::::::

           -------------------------------------------------
          | TOTAL ENERGY             -110.132737772020 Eh   |
          | TOTAL ENTHALPY           -109.539818051622 Eh   |
          | TOTAL FREE ENERGY        -109.634326053336 Eh   |
          | GRADIENT NORM               0.000052512785 Eh/α |
          | HOMO-LUMO GAP               2.889771213746 eV   |
           -------------------------------------------------

 * finished run on 2025/09/08 at 23:43:25.995
