   * xtb version 6.7.1 (edcfbbe) compiled by 'albert@albert-system' on 2024-07-22

   ID    Z sym.   atoms
    1    6 C      1-14, 16-30, 32-44
    2    7 N      15, 31
    3    1 H      45-72

          program call               : xtb data2507/gas/DCz-OTP/DCz-OTP_gas_T1_crest.xyz --gfn 2 --spinpol --tblite --uhf 2 --ohess vtight --parallel 40 --molden --ceasefiles --namespace data2507/gas/DCz-OTP/DCz-OTP_gas_T1_finalOpt
 * total energy  :  -110.0290074 Eh     change       -0.1798028E-07 Eh
 * total energy  :  -110.0290443 Eh     change       -0.3688425E-04 Eh
 * total energy  :  -110.0290683 Eh     change       -0.2402645E-04 Eh
 * total energy  :  -110.0290773 Eh     change       -0.8996639E-05 Eh
 * total energy  :  -110.0290867 Eh     change       -0.9379144E-05 Eh
 * total energy  :  -110.0290903 Eh     change       -0.3585900E-05 Eh
 * total energy  :  -110.0290928 Eh     change       -0.2456578E-05 Eh
 * total energy  :  -110.0290945 Eh     change       -0.1706761E-05 Eh
 * total energy  :  -110.0290955 Eh     change       -0.1004740E-05 Eh
 * total energy  :  -110.0290962 Eh     change       -0.7814049E-06 Eh
 * total energy  :  -110.0290979 Eh     change       -0.3365908E-06 Eh
 * total energy  :  -110.0290981 Eh     change       -0.2899258E-06 Eh
 * total energy  :  -110.0290984 Eh     change       -0.2169543E-06 Eh
 * total energy  :  -110.0290985 Eh     change       -0.1539551E-06 Eh
 * total energy  :  -110.0290987 Eh     change       -0.1965758E-06 Eh
 * total energy  :  -110.0290989 Eh     change       -0.1759662E-06 Eh
 * total energy  :  -110.0290991 Eh     change       -0.1939265E-06 Eh
 * total energy  :  -110.0290992 Eh     change       -0.1587052E-06 Eh
 * total energy  :  -110.0290993 Eh     change       -0.2458711E-07 Eh
   *** GEOMETRY OPTIMIZATION CONVERGED AFTER 22 ITERATIONS ***

 final structure:
================
72
 xtb: 6.7.1 (edcfbbe)
C            2.08023330786496        1.43886562752135        3.22768278155776
C            2.95086669830559        1.75833864717723        2.22256211896473
C            2.98316053651935        1.00382144935290        1.00177553679271
C            3.71729351195169        1.39877007162024       -0.13612072203079
C            4.82799278187118        2.29564079666967       -0.05309072900191
C            5.79707848200108        2.29696025243937       -1.00374761100412
C            5.70147649746048        1.45435469528783       -2.14456658723089
C            4.56459602891990        0.70886595288703       -2.34583671799960
C            3.50471305690112        0.75229555602215       -1.44189599725690
C            2.21088342361250        0.21648617872553       -1.77506219790546
C            2.06633830195009       -1.05071179244852       -2.37447666544142
C            0.83613398960527       -1.66685570831513       -2.38985251261892
C           -0.29211859723337       -1.02635745400766       -1.89114035913466
C           -0.20023140546952        0.29878069874442       -1.44810954270232
N           -1.36154197632311        0.98161729013738       -1.06384363921368
C           -2.59647611939568        0.84075435450339       -1.67548115670672
C           -2.94677359135465        0.16955518690060       -2.83986787570386
C           -4.26832897691465        0.20874091013288       -3.24237219970352
C           -5.23038223029839        0.91109050834526       -2.52172064416698
C           -4.88118939635045        1.62519329034496       -1.39305165788363
C           -3.55862167650689        1.60111564837460       -0.97403373148511
C           -2.86061934581441        2.25409073630557        0.09545729153893
C           -3.27576059859793        3.12268361651548        1.09435708927989
C           -2.34148630374972        3.59139318509715        1.99650807346050
C           -1.01244313820960        3.18881715343039        1.90866532678308
C           -0.57905722304400        2.32110065593869        0.92352351666868
C           -1.50656362623643        1.85494187148461        0.00102372796488
C            1.04269346775125        0.90233960195598       -1.38303180506213
C            2.14414938455392       -0.14833965973892        0.97623022846351
C            1.22942613474265       -0.42399236535818        1.96433884009624
N            0.33227199622160       -1.48963741529715        1.76268390263481
C            0.65539321257052       -2.66656781472386        1.11471179788458
C            1.89649481527326       -3.26613446423708        0.94583091918397
C            1.94690178513011       -4.46941455818618        0.26906003870070
C            0.79343916794063       -5.07651728961914       -0.22225653164026
C           -0.44765819326503       -4.50097047595561       -0.03125447890945
C           -0.52168086878682       -3.29167748780851        0.64476852865821
C           -1.61232436086297       -2.43432051879020        1.01909199335672
C           -2.98122227463161       -2.49099733577187        0.80106567875259
C           -3.77242196938154       -1.46775799784746        1.28650726448898
C           -3.21088176615426       -0.40752176161883        1.99071531282599
C           -1.84857763864688       -0.32671464192762        2.21316580660011
C           -1.04516675803428       -1.34078950294899        1.71384432258852
C            1.18597008005355        0.36572280546793        3.12245898272074
H            2.06927532088025        2.03412778977133        4.12961021840430
H            3.58646933140082        2.62173430648547        2.33364977614171
H            4.94018821042276        2.92217437571977        0.81788300826401
H            6.66019704307567        2.93789525551740       -0.90012774894852
H            6.48889209346407        1.46647998117692       -2.88181256942791
H            4.43607991901654        0.16693772282023       -3.27260021669138
H            2.94217073188275       -1.57761063890219       -2.72146528654620
H            0.74553521099196       -2.67641527895829       -2.76290409382300
H           -1.23073929371820       -1.55217718882044       -1.82959259114510
H           -2.21226581253083       -0.35066687213444       -3.43470767591874
H           -4.55885188821917       -0.31224548652423       -4.14279250243301
H           -6.25417762339717        0.91148598229362       -2.86498162889052
H           -5.61581764470084        2.19984267788466       -0.84943345723951
H           -4.31098315105510        3.42236370264277        1.15991799047263
H           -2.64089873889491        4.27167745107742        2.77993301135339
H           -0.29626253269196        3.55648375128796        2.62897596064481
H            0.45100121787039        2.01236292690450        0.90349672764052
H            1.13657880019801        1.92744930933542       -1.06317204191211
H            2.22903493467462       -0.84433700465085        0.16142295658202
H            2.79424385061542       -2.81415676155906        1.33968477806057
H            2.90167234698934       -4.95211631457375        0.12146106001528
H            0.87438792215051       -6.01589907011337       -0.74892385144399
H           -1.34398486675102       -4.98044991635288       -0.39535475955738
H           -3.41445828923001       -3.31792645044318        0.25835957423875
H           -4.83895818060397       -1.48770145728869        1.12008519013794
H           -3.84992926940696        0.37697175093720        2.36683835752091
H           -1.43298539364498        0.51222093597787        2.74663677457314
H            0.52250158047297        0.11688696830816        3.93395574826380

 projected vibrational frequencies (cm⁻¹)
eigval :       -0.00    -0.00    -0.00     0.00     0.00     0.00
eigval :       13.33    21.20    34.20    35.35    50.20    51.08
eigval :       65.75    71.46    80.68    89.29    98.50   115.66
eigval :      116.03   123.14   145.63   161.37   167.66   187.69
eigval :      193.22   210.82   228.75   239.40   240.98   258.25
eigval :      277.36   278.19   291.86   294.97   321.13   324.48
eigval :      347.38   365.98   377.03   390.48   398.12   400.52
eigval :      419.67   424.13   426.19   429.53   437.82   444.31
eigval :      462.35   479.41   507.75   517.96   518.87   531.23
eigval :      539.69   540.83   547.14   557.16   566.23   578.55
eigval :      584.37   587.19   599.90   602.41   608.84   617.03
eigval :      636.21   649.76   660.97   671.53   675.63   679.16
eigval :      696.04   709.42   709.85   717.07   737.46   752.61
eigval :      755.64   768.29   769.16   770.97   779.83   780.52
eigval :      785.71   787.28   814.97   817.40   849.86   858.39
eigval :      862.48   873.70   880.80   882.85   884.81   890.11
eigval :      892.86   894.30   895.95   902.62   904.07   905.15
eigval :      906.31   906.51   914.66   918.78   922.69   924.57
eigval :      925.59   926.37   927.95   944.76   982.90  1006.63
eigval :     1010.69  1013.67  1036.65  1042.95  1070.75  1074.90
eigval :     1075.72  1080.13  1104.71  1117.99  1121.03  1126.94
eigval :     1140.53  1150.20  1154.72  1156.24  1171.96  1174.74
eigval :     1175.14  1177.14  1179.51  1180.44  1187.32  1190.00
eigval :     1207.49  1232.39  1234.13  1238.12  1242.71  1247.83
eigval :     1259.98  1267.08  1280.91  1293.22  1295.20  1298.00
eigval :     1301.42  1318.33  1321.66  1331.01  1336.18  1342.42
eigval :     1351.76  1356.87  1357.18  1360.92  1361.61  1368.48
eigval :     1390.77  1399.58  1422.51  1422.95  1423.87  1426.12
eigval :     1437.42  1449.96  1457.53  1469.60  1471.27  1484.00
eigval :     1486.61  1487.66  1504.01  1515.81  1532.73  1567.42
eigval :     1572.53  1574.10  1585.07  1586.55  1591.86  1592.93
eigval :     1609.09  1611.27  3064.92  3073.23  3076.12  3076.65
eigval :     3076.71  3077.61  3079.65  3080.04  3082.20  3082.65
eigval :     3084.56  3087.13  3089.58  3090.24  3092.14  3093.73
eigval :     3094.16  3095.65  3096.84  3097.36  3098.23  3107.41
eigval :     3110.75  3111.37  3114.66  3114.87  3146.82  3147.30

   temp. (K)  partition function   enthalpy   heat capacity  entropy
                                   cal/mol     cal/K/mol   cal/K/mol   J/K/mol
 298.15  VIB  0.274E+14            19424.786    130.168    117.458
         ROT  0.336E+08              888.752      2.981     37.421
         INT  0.920E+21            20313.539    133.149    154.880
         TR   0.128E+29             1481.254      4.968     44.837
         TOT                       21794.7926   138.1171   199.7161   835.6124

       T/K    H(0)-H(T)+PV         H(T)/Eh          T*S/Eh         G(T)/Eh
   ------------------------------------------------------------------------
    298.15    0.347322E-01    0.588650E+00    0.948916E-01    0.493758E+00
   ------------------------------------------------------------------------

         :::::::::::::::::::::::::::::::::::::::::::::::::::::
         ::                  THERMODYNAMIC                  ::
         :::::::::::::::::::::::::::::::::::::::::::::::::::::
         :: total free energy        -109.535341315688 Eh   ::
         ::.................................................::
         :: total energy             -110.029099252881 Eh   ::
         :: zero point energy           0.553917310712 Eh   ::
         :: G(RRHO) w/o ZPVE           -0.060159373520 Eh   ::
         :: G(RRHO) contrib.            0.493757937192 Eh   ::
         :::::::::::::::::::::::::::::::::::::::::::::::::::::

           -------------------------------------------------
          | TOTAL ENERGY             -110.029099252881 Eh   |
          | TOTAL ENTHALPY           -109.440449729295 Eh   |
          | TOTAL FREE ENERGY        -109.535341315688 Eh   |
          | GRADIENT NORM               0.000060248073 Eh/α |
           -------------------------------------------------

 * finished run on 2025/09/08 at 23:51:40.645
