   * xtb version 6.7.1 (edcfbbe) compiled by 'albert@albert-system' on 2024-07-22

   ID    Z sym.   atoms
    1    6 C      1-14, 16-30, 32-44
    2    7 N      15, 31
    3    1 H      45-72

          program call               : xtb data2507/gas/DCz-OTP/DCz-OTP_gas_S0_finalOpt.xtbopt.xyz --gfn 2 --spinpol --tblite --uhf 2 --ohess vtight --parallel 40 --molden --ceasefiles --namespace data2507/gas/DCz-OTP/DCz-OTP_gas_T1_preOpt
 * total energy  :  -110.0204752 Eh     change       -0.1367272E-07 Eh
 * total energy  :  -110.0219086 Eh     change       -0.1433411E-02 Eh
 * total energy  :  -110.0222968 Eh     change       -0.3881266E-03 Eh
 * total energy  :  -110.0223872 Eh     change       -0.9046568E-04 Eh
 * total energy  :  -110.0224955 Eh     change       -0.1082382E-03 Eh
 * total energy  :  -110.0225693 Eh     change       -0.7388568E-04 Eh
 * total energy  :  -110.0226559 Eh     change       -0.8653449E-04 Eh
 * total energy  :  -110.0227208 Eh     change       -0.6494695E-04 Eh
 * total energy  :  -110.0227617 Eh     change       -0.4091112E-04 Eh
 * total energy  :  -110.0228008 Eh     change       -0.3911160E-04 Eh
 * total energy  :  -110.0290441 Eh     change       -0.7432321E-06 Eh
 * total energy  :  -110.0290448 Eh     change       -0.7482062E-06 Eh
 * total energy  :  -110.0290455 Eh     change       -0.6646123E-06 Eh
 * total energy  :  -110.0290463 Eh     change       -0.7639297E-06 Eh
 * total energy  :  -110.0290470 Eh     change       -0.7163543E-06 Eh
 * total energy  :  -110.0290477 Eh     change       -0.6793509E-06 Eh
 * total energy  :  -110.0290483 Eh     change       -0.6807448E-06 Eh
 * total energy  :  -110.0290490 Eh     change       -0.6526481E-06 Eh
 * total energy  :  -110.0290490 Eh     change       -0.3586814E-07 Eh
   *** GEOMETRY OPTIMIZATION CONVERGED AFTER 122 ITERATIONS ***

 final structure:
================
72
 xtb: 6.7.1 (edcfbbe)
C            2.00119205906194        1.11484658323803        3.35465579257658
C            2.71283847580832        1.81004740413377        2.41586707191083
C            2.79333070366189        1.35109245043893        1.05826228804810
C            3.33259648561359        2.12013176248244        0.00628629470460
C            4.25952806275750        3.18451490093835        0.23415904910674
C            5.11880705000837        3.57973544707568       -0.73974873453991
C            5.07462980315709        2.99424347311387       -2.03457870764025
C            4.08140969312756        2.09497530677943       -2.34181738664400
C            3.12163875652880        1.73369075880817       -1.39872622026231
C            1.91954741882010        1.03523487518082       -1.77320058487783
C            1.94602546682531       -0.08078864976979       -2.63305030052628
C            0.84781930849879       -0.90539461806631       -2.72249333017151
C           -0.32533532003350       -0.61317478355327       -2.03710435638826
C           -0.42719223102753        0.58062185863299       -1.31236053465557
N           -1.65055499436238        0.93283849783346       -0.72769047271037
C           -2.89160443888753        0.69894606286817       -1.29642499413182
C           -3.22171027834531        0.24352558925923       -2.56625633759254
C           -4.56043151271330        0.12263356033842       -2.88752853281178
C           -5.56200330055878        0.45945550678408       -1.98104070231298
C           -5.24339963585059        0.96156485683844       -0.73517411492443
C           -3.90482842105872        1.09363207458098       -0.39436463118981
C           -3.23817866961545        1.61496492902408        0.76389954994654
C           -3.70610389532507        2.14661669307057        1.95690771613172
C           -2.78986129029477        2.57166399156875        2.89841316301342
C           -1.42437039024302        2.45785680462940        2.65580915764838
C           -0.93746338066289        1.92761625619810        1.47557308668557
C           -1.84938565105246        1.50899351822757        0.51550207895048
C            0.69124378428463        1.38266186807960       -1.17494144728794
C            2.20333445722064        0.07748284348544        0.81012087669883
C            1.44591198505705       -0.58508907533812        1.74525751784860
N            0.78207805139316       -1.76115744653502        1.34700857984847
C            1.31416844088259       -2.69453373596086        0.47840749730289
C            2.64426315815401       -2.96109337403620        0.18250035720547
C            2.91599919722716       -3.97690946773866       -0.71350154042942
C            1.89510691063314       -4.72218329523100       -1.29904524363425
C            0.57099556462144       -4.47953637390319       -0.98882098424377
C            0.27463909323091       -3.46334423362370       -0.09182917716729
C           -0.95258854645815       -2.94933880758897        0.45090129992102
C           -2.28833894141927       -3.25765302010649        0.23733517396423
C           -3.25167539912078       -2.53474474071260        0.91433561965781
C           -2.89174749031740       -1.52791276455041        1.80479446442832
C           -1.56744354302842       -1.20134808012173        2.03093844388280
C           -0.59531875286156       -1.90802600502350        1.33896070455181
C            1.33001727714001       -0.07587940480948        3.04682911201494
H            1.94230394963944        1.49486308061384        4.36460788359480
H            3.17424074406743        2.74453759122414        2.69125552518354
H            4.33469865553952        3.62126454244184        1.21778612239026
H            5.85510665744539        4.34385504968660       -0.53852724822394
H            5.77428267014577        3.31919544861934       -2.78863254911921
H            3.96956562282470        1.74597090643658       -3.35908933297871
H            2.86482280951906       -0.34319944913603       -3.13522475955937
H            0.90314060596291       -1.81163261832869       -3.30759947496415
H           -1.14813929834273       -1.30923039617047       -2.04822993070785
H           -2.46315358240852        0.01077282241482       -3.29730361186591
H           -4.83499169454651       -0.23438308673840       -3.86921538079395
H           -6.59673074547648        0.34460440493811       -2.26762686755142
H           -6.01551708911832        1.25611756565446       -0.04050052497481
H           -4.76740360352215        2.22318111536627        2.14018058825987
H           -3.13113569148150        2.99203897391854        3.83273403496694
H           -0.72115612935813        2.78611008426247        3.40715812995379
H            0.12425502397190        1.83179688458023        1.33338831115490
H            0.63217018922238        2.31426042370305       -0.63565365616846
H            2.36197834994655       -0.40120367276164       -0.13971493915702
H            3.44257982461358       -2.39999133958091        0.64439962528049
H            3.94285967759832       -4.20056628458172       -0.96234634751475
H            2.14788834056264       -5.50672639775616       -1.99685157561799
H           -0.21919706913826       -5.06857938154328       -1.42979008311646
H           -2.56468344458987       -4.04357213138761       -0.44975507474207
H           -4.29730591711419       -2.75087720317787        0.75416633604531
H           -3.66262783206544       -0.98195279676646        2.32730632752808
H           -1.30886166520364       -0.41010734818443        2.71548085740359
H            0.78702641773479       -0.61749953507148        3.80352083685183

 projected vibrational frequencies (cm⁻¹)
eigval :       -0.00    -0.00    -0.00     0.00     0.00     0.00
eigval :       12.33    22.03    33.26    34.83    48.79    51.29
eigval :       65.65    71.15    80.53    90.24    97.69   114.17
eigval :      115.95   122.38   145.06   160.97   167.73   187.60
eigval :      190.79   210.43   228.23   239.16   240.02   258.66
eigval :      276.81   278.12   291.31   294.41   320.51   324.14
eigval :      347.10   366.61   377.01   389.83   398.17   400.82
eigval :      419.82   424.19   426.59   429.73   437.13   444.16
eigval :      461.88   479.12   506.91   518.05   518.81   531.03
eigval :      539.78   541.04   546.57   556.90   566.26   578.65
eigval :      584.30   587.21   599.59   602.57   609.07   617.01
eigval :      635.81   649.70   660.93   671.73   675.86   679.01
eigval :      696.26   709.44   709.90   716.60   736.97   752.86
eigval :      755.62   768.54   769.45   771.08   779.89   780.75
eigval :      785.68   787.32   814.70   816.62   851.94   858.46
eigval :      862.87   874.76   880.84   882.18   884.71   889.62
eigval :      892.55   894.52   896.09   903.15   904.48   905.26
eigval :      906.09   906.39   914.85   918.87   923.62   923.97
eigval :      925.61   926.29   927.91   944.33   983.66  1006.70
eigval :     1010.98  1013.96  1036.51  1042.56  1070.34  1074.29
eigval :     1075.49  1079.90  1103.79  1118.16  1120.56  1126.82
eigval :     1140.67  1149.63  1154.28  1155.75  1171.75  1174.43
eigval :     1175.00  1177.37  1179.29  1180.25  1186.94  1189.26
eigval :     1206.39  1231.96  1234.31  1237.38  1242.41  1247.84
eigval :     1259.38  1267.11  1281.65  1293.38  1295.07  1298.17
eigval :     1301.08  1317.61  1321.35  1330.22  1335.80  1342.32
eigval :     1351.61  1356.66  1356.98  1360.90  1361.46  1368.26
eigval :     1390.37  1398.90  1422.02  1422.96  1423.65  1426.48
eigval :     1437.13  1450.16  1457.43  1469.47  1471.04  1484.02
eigval :     1486.45  1487.35  1504.38  1516.26  1531.99  1567.59
eigval :     1572.33  1574.00  1585.17  1586.75  1591.71  1592.82
eigval :     1608.53  1611.00  3064.74  3073.27  3075.81  3076.53
eigval :     3077.10  3077.72  3079.13  3079.55  3081.95  3082.70
eigval :     3084.65  3086.74  3089.08  3089.33  3091.96  3093.44
eigval :     3094.03  3095.25  3096.45  3096.92  3098.11  3106.14
eigval :     3109.55  3110.79  3112.67  3113.36  3141.71  3147.68

   temp. (K)  partition function   enthalpy   heat capacity  entropy
                                   cal/mol     cal/K/mol   cal/K/mol   J/K/mol
 298.15  VIB  0.315E+14            19440.158    130.140    117.630
         ROT  0.340E+08              888.752      2.981     37.446
         INT  0.107E+22            20328.910    133.121    155.075
         TR   0.128E+29             1481.254      4.968     44.837
         TOT                       21810.1641   138.0893   199.9116   836.4303

       T/K    H(0)-H(T)+PV         H(T)/Eh          T*S/Eh         G(T)/Eh
   ------------------------------------------------------------------------
    298.15    0.347567E-01    0.588575E+00    0.949845E-01    0.493591E+00
   ------------------------------------------------------------------------

         :::::::::::::::::::::::::::::::::::::::::::::::::::::
         ::                  THERMODYNAMIC                  ::
         :::::::::::::::::::::::::::::::::::::::::::::::::::::
         :: total free energy        -109.535458385392 Eh   ::
         ::.................................................::
         :: total energy             -110.029049038030 Eh   ::
         :: zero point energy           0.553818414681 Eh   ::
         :: G(RRHO) w/o ZPVE           -0.060227762044 Eh   ::
         :: G(RRHO) contrib.            0.493590652637 Eh   ::
         :::::::::::::::::::::::::::::::::::::::::::::::::::::

           -------------------------------------------------
          | TOTAL ENERGY             -110.029049038030 Eh   |
          | TOTAL ENTHALPY           -109.440473914427 Eh   |
          | TOTAL FREE ENERGY        -109.535458385392 Eh   |
          | GRADIENT NORM               0.000069162866 Eh/α |
           -------------------------------------------------

 * finished run on 2025/09/08 at 23:46:51.828
