   * xtb version 6.7.1 (edcfbbe) compiled by 'albert@albert-system' on 2024-07-22

   ID    Z sym.   atoms
    1    6 C      1-14, 16-30, 32-44
    2    7 N      15, 31
    3    1 H      45-72

          program call               : xtb data2507/gas/DCz-OTP/DCz-OTP_gas_S0_crest.xyz --gfn 2 --ohess vtight --parallel 40 --molden --ceasefiles --namespace data2507/gas/DCz-OTP/DCz-OTP_gas_S0_finalOpt
          :  Hamiltonian                  GFN2-xTB          :
 * total energy  :  -110.1327748 Eh     change       -0.1668596E-08 Eh
 * total energy  :  -110.1327758 Eh     change       -0.9663873E-06 Eh
 * total energy  :  -110.1327778 Eh     change       -0.2034911E-05 Eh
 * total energy  :  -110.1327810 Eh     change       -0.3180717E-05 Eh
 * total energy  :  -110.1327839 Eh     change       -0.2875779E-05 Eh
 * total energy  :  -110.1327852 Eh     change       -0.1284548E-05 Eh
 * total energy  :  -110.1327858 Eh     change       -0.6523184E-06 Eh
 * total energy  :  -110.1327864 Eh     change       -0.5433066E-06 Eh
 * total energy  :  -110.1327867 Eh     change       -0.3534746E-06 Eh
 * total energy  :  -110.1327870 Eh     change       -0.2700650E-06 Eh
 * total energy  :  -110.1327872 Eh     change       -0.2405865E-06 Eh
 * total energy  :  -110.1327875 Eh     change       -0.2464488E-06 Eh
 * total energy  :  -110.1327877 Eh     change       -0.1959020E-06 Eh
 * total energy  :  -110.1327878 Eh     change       -0.1653779E-06 Eh
 * total energy  :  -110.1327880 Eh     change       -0.1525806E-06 Eh
 * total energy  :  -110.1327881 Eh     change       -0.7917049E-07 Eh
   *** GEOMETRY OPTIMIZATION CONVERGED AFTER 16 ITERATIONS ***

 final structure:
================
72
 xtb: 6.7.1 (edcfbbe)
C            1.85536405693663        1.18836603905218        3.22507501206208
C            2.58056333242335        1.84447782106424        2.24500342291486
C            2.81670025432617        1.23001903753699        1.01607341987159
C            3.50465794222827        1.93035178428845       -0.08431644663396
C            4.65584292542378        2.67038233697863        0.16488904823597
C            5.32196956157282        3.31834075313758       -0.85920177707528
C            4.84443323385116        3.23384238942198       -2.15568980109802
C            3.69878535303362        2.50409066324995       -2.41970401272052
C            3.01607111349801        1.85678216760212       -1.39948187078509
C            1.78709240510615        1.08544836996038       -1.69325585280355
C            1.86292114708637       -0.11176366526256       -2.39940158999198
C            0.75177269038979       -0.93129052066690       -2.49003716471588
C           -0.44432000891060       -0.55778820727542       -1.90680606088320
C           -0.55843315439405        0.68524181764876       -1.28635407835840
N           -1.78676528068732        1.08881252855130       -0.75203501732425
C           -3.02180698396924        0.87473952323938       -1.33878125464088
C           -3.33666119304757        0.37848026118679       -2.59632156364279
C           -4.67068907638237        0.29526878781591       -2.94646923755235
C           -5.67978941187355        0.70578226367026       -2.07882667891408
C           -5.37363590141844        1.23795705840311       -0.84301257607863
C           -4.03916848760247        1.33238065356472       -0.47169780437663
C           -3.38008358105717        1.85268938069820        0.69181070796305
C           -3.84811013515068        2.41696408377512        1.87091326762618
C           -2.93304584253805        2.80920307884083        2.82672580307971
C           -1.56820848788422        2.63023494392928        2.61766752624486
C           -1.08050745992213        2.07010791038152        1.45215366554807
C           -1.99208400796736        1.68981656981018        0.47701911943658
C            0.56341425916211        1.50227329616021       -1.18637799178459
C            2.33244142741035       -0.05608477847639        0.81839539627068
C            1.52840206533488       -0.67799384527885        1.76409967245462
N            0.89982251805609       -1.88342636334223        1.40552226647352
C            1.50067945028041       -2.89585366258239        0.68191187315431
C            2.84940302255865       -3.18560714410458        0.53439440777920
C            3.19329622374497       -4.28882530312618       -0.22311031973849
C            2.22336794916119       -5.09499823308302       -0.81483864994304
C            0.87926969704950       -4.82229023956029       -0.65559103203129
C            0.50986324984560       -3.71670011426121        0.09859639036641
C           -0.75610544809960       -3.14321654829525        0.46079341094394
C           -2.07085866138169       -3.45847177329442        0.14363867948873
C           -3.08116339765639       -2.65022195975888        0.62582517399404
C           -2.79283688553076       -1.54879334797348        1.42716901692180
C           -1.49291486214132       -1.22079933700886        1.76255466130748
C           -0.47265519866661       -2.01707031635339        1.26643231880519
C            1.30103600078364       -0.05890537863738        2.98747425219380
H            1.69148477163208        1.66844336916443        4.17867536357401
H            2.94253986047654        2.84648772993851        2.42219394729638
H            5.04273309853597        2.71730349932361        1.17267241966792
H            6.21673624692154        3.88434384446705       -0.64612944717075
H            5.36279486946507        3.73448856868954       -2.95992403217983
H            3.31568677682369        2.43921436104145       -3.42813105689359
H            2.80710741153457       -0.42191294216244       -2.82350285870692
H            0.82730479797949       -1.88669629889091       -2.98786934027968
H           -1.28638208528661       -1.23194104267457       -1.91138482015837
H           -2.56811142560742        0.08142920642516       -3.29316359831885
H           -4.93621543868349       -0.09250190359120       -3.91902698288624
H           -6.71093500629188        0.61907944089176       -2.38763925100784
H           -6.15134109048377        1.58213802603602       -0.17782229530392
H           -4.90845284235455        2.53991282985987        2.03333108105260
H           -3.27457679919215        3.25235428563790        3.75040080471906
H           -0.86980670809204        2.93060653697351        3.38504759300485
H           -0.02122581459633        1.91659858617499        1.32759815623425
H            0.49025913062887        2.46835869604329       -0.71128550067002
H            2.54233461831335       -0.57800551949809       -0.09979048534102
H            3.60631029336376       -2.57294737175239        1.00137161801600
H            4.23682947179084       -4.53380496689639       -0.35644553352236
H            2.53237503157252       -5.94892195482376       -1.39945002128685
H            0.12762986086908       -5.45475236555578       -1.10385929432006
H           -2.29238517885811       -4.31407808364389       -0.47694533629822
H           -4.10958902702931       -2.86915018435711        0.37976891677403
H           -3.60072425122684       -0.93175062892956        1.79131383258594
H           -1.28625696904529       -0.35903908717965        2.37682066555059
H            0.70014943305889       -0.54667739473916        3.73930116852622

          :  Hamiltonian                  GFN2-xTB          :
         :: gradient norm              0.000027675140 Eh/a0 ::
         :: HOMO-LUMO gap              2.880173842457 eV    ::
         :: SCC energy              -112.251485610740 Eh    ::
         :: -> dispersion             -0.118775848663 Eh    ::
         :: repulsion energy           2.118697529372 Eh    ::

    * Orbital Energies and Occupations

         #    Occupation            Energy/Eh            Energy/eV
      -------------------------------------------------------------
         1        2.0000           -0.6724495             -18.2983
       ...           ...                  ...                  ...
        91        2.0000           -0.4144397             -11.2775
        92        2.0000           -0.4131308             -11.2419
        93        2.0000           -0.4124341             -11.2229
        94        2.0000           -0.4083746             -11.1124
        95        2.0000           -0.4080041             -11.1024
        96        2.0000           -0.4028297             -10.9616
        97        2.0000           -0.4007132             -10.9040
        98        2.0000           -0.4005944             -10.9007
        99        2.0000           -0.3884840             -10.5712
       100        2.0000           -0.3758676             -10.2279
       101        2.0000           -0.3751359             -10.2080
       102        2.0000           -0.3606184              -9.8129
       103        2.0000           -0.3589219              -9.7668 (HOMO)
       104                         -0.2530775              -6.8866 (LUMO)
       105                         -0.2441969              -6.6449
       106                         -0.2422213              -6.5912
       107                         -0.2394601              -6.5160
       108                         -0.2339516              -6.3661
       109                         -0.2298725              -6.2551
       110                         -0.2199123              -5.9841
       111                         -0.2192766              -5.9668
       112                         -0.2176754              -5.9233
       113                         -0.2075024              -5.6464
       114                         -0.1902638              -5.1773
       ...                                ...                  ...
       204                          0.7492473              20.3881
      -------------------------------------------------------------
                  HL-Gap            0.1058444 Eh            2.8802 eV

     #   Z          covCN         q      C6AA      α(0)
     1   6 C        2.919    -0.028    28.700     8.785
     2   6 C        2.923    -0.039    28.973     8.827
     3   6 C        2.975     0.012    27.747     8.640
     4   6 C        2.979     0.006    27.893     8.663
     5   6 C        2.924    -0.033    28.833     8.806
     6   6 C        2.918    -0.031    28.780     8.797
     7   6 C        2.918    -0.030    28.755     8.794
     8   6 C        2.923    -0.033    28.820     8.804
     9   6 C        2.981     0.007    27.858     8.658
    10   6 C        2.977     0.014    27.689     8.631
    11   6 C        2.923    -0.039    28.977     8.828
    12   6 C        2.918    -0.028    28.706     8.786
    13   6 C        2.923    -0.046    29.132     8.851
    14   6 C        2.910     0.064    26.562     8.451
    15   7 N        2.800    -0.043    22.062     6.976
    16   6 C        3.075     0.048    26.853     8.496
    17   6 C        2.910    -0.050    29.241     8.867
    18   6 C        2.924    -0.033    28.833     8.806
    19   6 C        2.920    -0.041    29.008     8.832
    20   6 C        2.913    -0.033    28.817     8.803
    21   6 C        3.068    -0.016    28.335     8.728
    22   6 C        3.069    -0.015    28.321     8.726
    23   6 C        2.913    -0.033    28.825     8.804
    24   6 C        2.920    -0.041    29.016     8.833
    25   6 C        2.924    -0.034    28.853     8.809
    26   6 C        2.911    -0.051    29.265     8.871
    27   6 C        3.071     0.049    26.830     8.493
    28   6 C        2.927    -0.050    29.246     8.869
    29   6 C        2.934    -0.049    29.227     8.866
    30   6 C        2.914     0.065    26.541     8.448
    31   7 N        2.799    -0.056    22.312     7.015
    32   6 C        3.080     0.048    26.845     8.494
    33   6 C        2.910    -0.050    29.236     8.866
    34   6 C        2.924    -0.034    28.848     8.808
    35   6 C        2.920    -0.041    29.026     8.835
    36   6 C        2.913    -0.033    28.833     8.805
    37   6 C        3.066    -0.017    28.362     8.733
    38   6 C        3.068    -0.017    28.362     8.732
    39   6 C        2.913    -0.034    28.842     8.806
    40   6 C        2.920    -0.040    29.003     8.831
    41   6 C        2.924    -0.031    28.785     8.798
    42   6 C        2.910    -0.051    29.260     8.870
    43   6 C        3.078     0.049    26.826     8.491
    44   6 C        2.920    -0.044    29.082     8.843
    45   1 H        0.926     0.035     2.510     2.478
    46   1 H        0.926     0.035     2.518     2.482
    47   1 H        0.926     0.034     2.530     2.487
    48   1 H        0.926     0.032     2.552     2.498
    49   1 H        0.926     0.033     2.546     2.495
    50   1 H        0.926     0.033     2.548     2.496
    51   1 H        0.926     0.032     2.558     2.501
    52   1 H        0.926     0.036     2.508     2.477
    53   1 H        0.926     0.041     2.430     2.438
    54   1 H        0.926     0.029     2.600     2.521
    55   1 H        0.926     0.029     2.598     2.520
    56   1 H        0.926     0.028     2.613     2.528
    57   1 H        0.926     0.031     2.576     2.510
    58   1 H        0.926     0.031     2.579     2.511
    59   1 H        0.926     0.027     2.624     2.533
    60   1 H        0.926     0.026     2.644     2.543
    61   1 H        0.926     0.027     2.635     2.538
    62   1 H        0.926     0.038     2.473     2.459
    63   1 H        0.926     0.041     2.429     2.437
    64   1 H        0.926     0.026     2.645     2.543
    65   1 H        0.926     0.028     2.613     2.528
    66   1 H        0.926     0.027     2.627     2.534
    67   1 H        0.926     0.030     2.589     2.516
    68   1 H        0.926     0.030     2.592     2.518
    69   1 H        0.926     0.027     2.626     2.534
    70   1 H        0.926     0.029     2.606     2.524
    71   1 H        0.926     0.029     2.606     2.524
    72   1 H        0.926     0.041     2.441     2.443

molecular dipole:
                 x           y           z       tot (Debye)
 q only:        0.596       0.360      -0.081
   full:        0.702       0.385      -0.092       2.048

 projected vibrational frequencies (cm⁻¹)
eigval :       -0.00     0.00     0.00     0.00     0.00     0.00
eigval :        9.08    23.26    30.74    33.48    43.58    46.05
eigval :       65.28    68.47    79.85    93.22    98.61   110.19
eigval :      113.04   121.08   144.67   157.36   171.17   177.55
eigval :      204.66   213.01   237.70   242.17   263.12   268.87
eigval :      275.99   278.28   286.35   304.02   320.65   326.80
eigval :      350.66   363.55   381.04   396.09   400.10   403.95
eigval :      423.70   425.57   431.87   437.04   443.83   451.26
eigval :      501.47   514.77   518.86   519.49   532.80   536.51
eigval :      541.29   542.47   559.59   570.15   586.59   588.44
eigval :      592.68   597.21   609.39   612.91   625.02   637.23
eigval :      671.16   674.23   676.22   680.72   683.42   701.05
eigval :      709.58   710.66   714.80   755.09   756.26   770.75
eigval :      771.60   778.80   781.32   782.15   782.90   792.96
eigval :      803.08   806.10   869.78   871.95   873.45   875.43
eigval :      886.01   893.12   893.91   896.20   898.72   899.83
eigval :      901.23   904.98   908.69   909.37   911.91   919.18
eigval :      922.04   923.70   925.08   928.15   929.70   930.82
eigval :      932.87   937.41   948.06   999.11  1003.24  1011.31
eigval :     1012.43  1037.89  1070.29  1074.39  1075.09  1078.42
eigval :     1088.47  1101.29  1119.79  1120.24  1122.63  1130.79
eigval :     1145.67  1152.32  1156.12  1175.26  1176.16  1179.64
eigval :     1180.73  1181.10  1181.90  1183.04  1193.46  1194.65
eigval :     1233.49  1236.75  1236.96  1241.94  1248.27  1257.61
eigval :     1266.75  1276.69  1289.24  1299.52  1300.57  1302.09
eigval :     1305.06  1305.67  1313.17  1318.54  1352.43  1356.50
eigval :     1360.14  1360.81  1362.87  1364.99  1407.76  1418.37
eigval :     1426.66  1427.85  1428.80  1436.63  1453.51  1461.18
eigval :     1472.60  1475.07  1480.53  1488.26  1488.66  1491.51
eigval :     1565.78  1570.13  1571.84  1575.97  1576.71  1587.66
eigval :     1588.80  1589.70  1590.89  1595.48  1599.22  1599.80
eigval :     1615.59  1615.79  3073.94  3074.42  3075.82  3075.89
eigval :     3076.34  3077.34  3077.69  3078.36  3079.29  3081.43
eigval :     3083.38  3084.30  3084.51  3086.71  3088.55  3089.59
eigval :     3090.74  3093.40  3093.55  3093.75  3094.75  3096.80
eigval :     3099.99  3100.55  3106.69  3108.02  3120.51  3132.07

   temp. (K)  partition function   enthalpy   heat capacity  entropy
                                   cal/mol     cal/K/mol   cal/K/mol   J/K/mol
 298.15  VIB  0.419E+14            19131.349    127.414    116.271
         ROT  0.362E+08              888.752      2.981     37.566
         INT  0.151E+22            20020.101    130.395    153.837
         TR   0.128E+29             1481.254      4.968     44.837
         TOT                       21501.3550   135.3635   198.6732   831.2489

       T/K    H(0)-H(T)+PV         H(T)/Eh          T*S/Eh         G(T)/Eh
   ------------------------------------------------------------------------
    298.15    0.342646E-01    0.592992E+00    0.943961E-01    0.498596E+00
   ------------------------------------------------------------------------

         :::::::::::::::::::::::::::::::::::::::::::::::::::::
         ::                  THERMODYNAMIC                  ::
         :::::::::::::::::::::::::::::::::::::::::::::::::::::
         :: total free energy        -109.634192429728 Eh   ::
         ::.................................................::
         :: total energy             -110.132788081369 Eh   ::
         :: zero point energy           0.558727130715 Eh   ::
         :: G(RRHO) w/o ZPVE           -0.060131479073 Eh   ::
         :: G(RRHO) contrib.            0.498595651642 Eh   ::
         :::::::::::::::::::::::::::::::::::::::::::::::::::::

           -------------------------------------------------
          | TOTAL ENERGY             -110.132788081369 Eh   |
          | TOTAL ENTHALPY           -109.539796360353 Eh   |
          | TOTAL FREE ENERGY        -109.634192429728 Eh   |
          | GRADIENT NORM               0.000027678992 Eh/α |
          | HOMO-LUMO GAP               2.880173071204 eV   |
           -------------------------------------------------

 * finished run on 2025/09/08 at 23:46:34.992
