   * xtb version 6.7.1 (edcfbbe) compiled by 'albert@albert-system' on 2024-07-22

   ID    Z sym.   atoms
    1    6 C      1-20, 22-26, 28-31, 33-56
    2    7 N      21, 32
    3    8 O      27
    4    1 H      57-112

          program call               : xtb data2507/gas/t–BuCz2BP/t–BuCz2BP_gas_S0_crest.xyz --gfn 2 --ohess vtight --parallel 40 --molden --ceasefiles --namespace data2507/gas/t–BuCz2BP/t–BuCz2BP_gas_S0_finalOpt
          :  Hamiltonian                  GFN2-xTB          :
 * total energy  :  -152.0947842 Eh     change       -0.3245674E-08 Eh
 * total energy  :  -152.0947856 Eh     change       -0.1395795E-05 Eh
 * total energy  :  -152.0947877 Eh     change       -0.2113745E-05 Eh
 * total energy  :  -152.0947931 Eh     change       -0.5414774E-05 Eh
 * total energy  :  -152.0947969 Eh     change       -0.3719320E-05 Eh
 * total energy  :  -152.0947990 Eh     change       -0.2126978E-05 Eh
 * total energy  :  -152.0948016 Eh     change       -0.2669323E-05 Eh
 * total energy  :  -152.0948062 Eh     change       -0.4591705E-05 Eh
 * total energy  :  -152.0948105 Eh     change       -0.4230709E-05 Eh
 * total energy  :  -152.0948130 Eh     change       -0.2577847E-05 Eh
 * total energy  :  -152.0948236 Eh     change       -0.2697094E-05 Eh
 * total energy  :  -152.0948258 Eh     change       -0.2230312E-05 Eh
 * total energy  :  -152.0948279 Eh     change       -0.2103482E-05 Eh
 * total energy  :  -152.0948298 Eh     change       -0.1962053E-05 Eh
 * total energy  :  -152.0948314 Eh     change       -0.1570957E-05 Eh
 * total energy  :  -152.0948325 Eh     change       -0.1123535E-05 Eh
 * total energy  :  -152.0948334 Eh     change       -0.8957613E-06 Eh
 * total energy  :  -152.0948343 Eh     change       -0.9027282E-06 Eh
 * total energy  :  -152.0948344 Eh     change       -0.1052200E-07 Eh
   *** GEOMETRY OPTIMIZATION CONVERGED AFTER 22 ITERATIONS ***

 final structure:
================
112
 xtb: 6.7.1 (edcfbbe)
C           -6.20420186378295       -5.08483669176201        2.78180740899782
C           -6.58765004904245       -4.75288698448695        1.33278073649716
C           -8.10011176532577       -4.94193096632515        1.18701857063690
C           -5.89210481994420       -5.72911299465191        0.37346703295029
C           -6.14217687571549       -3.33422550088583        1.00910334068897
C           -4.78056115910681       -3.01599518432228        1.09610755728047
C           -4.28349707036771       -1.75969768381552        0.81320771476524
C           -5.17892342951636       -0.77894925249025        0.41682692115278
C           -6.55798233381649       -1.06514195131796        0.35006724314657
C           -7.03095869990020       -2.33770185893216        0.64069975572114
C           -7.21204033473585        0.15809872977286       -0.02713497803713
C           -8.54019301339952        0.48334730650254       -0.26908042599953
C           -8.87297657228613        1.77115468418807       -0.65552804006596
C          -10.30618881083154        2.20185267380977       -0.93127572837829
C          -11.31413993690458        1.07231206253445       -0.70166340805326
C          -10.42305193228929        2.65515848643932       -2.39340208968205
C          -10.67253797982019        3.36266120410561        0.00431117666630
C           -7.84358033635514        2.70878295137506       -0.81188758878137
C           -6.51606554601344        2.41281426068065       -0.57768480203609
C           -6.19940801335841        1.12968979134239       -0.16011211886028
N           -4.96938759276565        0.55402602745206        0.10967007385218
C           -3.73992911621645        1.20950084943445        0.08533069554957
C           -3.59319561825664        2.45017759401985        0.70728326690721
C           -2.38143432250119        3.10323003319290        0.66468365301907
C           -1.28042473484688        2.52723110964736        0.03043073321453
C           -0.01276228712406        3.29384129002641       -0.01149996413481
O           -0.01226581013821        4.51136072971515       -0.01105184889797
C            1.25426129268519        2.52622142708211       -0.05285145524726
C            2.35835987672671        3.10500992622222       -0.67926314702727
C            3.57057990105274        2.45267224132268       -0.71797061606714
C            3.71455545441691        1.20945582795396       -0.10035154104612
N            4.94556930432103        0.55672163284572       -0.11768674308011
C            6.17096166743448        1.13477054774880        0.16836212928112
C            6.47840250614537        2.41701630556447        0.59516404801024
C            7.80212893020223        2.71634554524685        0.84644201107525
C            8.83624894450167        1.78274019086964        0.69907696418872
C           10.26467284878794        2.21721206581455        0.99296535805964
C           10.64092875910215        3.37333922753959        0.05550777679412
C           10.36146741067765        2.67912137774701        2.45386468797268
C           11.27761668021849        1.08816052911433        0.78393896549585
C            8.51225180787696        0.49572748072644        0.30202737435836
C            7.18844600541595        0.16760391900814        0.04221739526616
C            6.54280259573128       -1.05611926819055       -0.34905511177869
C            7.01656307898382       -2.32385711711351       -0.64403405795826
C            6.13394668959060       -3.32470729131753       -1.02917397655378
C            6.68035238060608       -4.71059509384399       -1.34256798632061
C            7.67658684365730       -4.60435434809512       -2.50601692041473
C            5.58829806114645       -5.70631859147182       -1.74269674580423
C            7.39198900887622       -5.26098850280519       -0.09835183041530
C            4.77548648486392       -3.01302868843078       -1.12615749146567
C            4.27551945249099       -1.75541236604544       -0.83843132901670
C            5.16193336013731       -0.77442899160169       -0.42895915851482
C            2.61937965638621        0.63622333601321        0.54673951491288
C            1.40219085949616        1.28521307082600        0.56557993209176
C           -1.43147855414610        1.28949191948827       -0.59367615639071
C           -2.64850534577927        0.64029667938303       -0.57163808134015
H           -6.53659889855237       -6.08900965989467        3.03691764974259
H           -5.12911476704308       -5.03521010476271        2.92998076226558
H           -6.67491361418122       -4.38103682920163        3.46520272344327
H           -8.64324571576049       -4.29521930440048        1.87222999417268
H           -8.36074087700819       -5.97229066598214        1.42098356616571
H           -8.42364967437651       -4.73683270577784        0.16914764322330
H           -4.81158249880631       -5.68704565521626        0.47807172766064
H           -6.14441360237811       -5.48637632187437       -0.65679662531288
H           -6.21397221477632       -6.74838319325962        0.57689469473119
H           -4.07797521694711       -3.77650511648483        1.40119069546676
H           -3.22851664886260       -1.55316455358721        0.91401198069110
H           -8.09064810675660       -2.52000292464847        0.57759456854067
H           -9.28754275869526       -0.28396262460769       -0.15508780588318
H          -11.12296059634805        0.23510621685744       -1.36895578121850
H          -11.28252657097096        0.72363144045145        0.32803962045938
H          -12.31950793685681        1.43752149387191       -0.90203189597801
H          -10.14201861859907        1.84364877163915       -3.06158116662042
H           -9.77668408973573        3.50380582157428       -2.59891553568552
H          -11.44774421613900        2.94630095271039       -2.61512041437178
H          -11.70264159085216        3.66961551830078       -0.16473739691938
H          -10.03087258816321        4.22369545227894       -0.15999471025327
H          -10.57000983576335        3.05448862020876        1.04282485444587
H           -8.08447633800707        3.71023734702344       -1.13415287457097
H           -5.75328318224671        3.16084481733154       -0.73261537599306
H           -4.43087777758755        2.88431546077093        1.23148037803888
H           -2.25795615890750        4.06700042526344        1.13566209960366
H            2.23704070296947        4.07082029652292       -1.14661846411943
H            4.41103095616241        2.88956217175611       -1.23543226544163
H            5.71138378369853        3.16187902365821        0.74422146798935
H            8.03583046514102        3.71736124115006        1.17527982010002
H           11.66730625864122        3.68519269495209        0.23769872619875
H           10.55473141020324        3.05819441680595       -0.98240918339187
H            9.99342327478330        4.23275404817754        0.20490933482743
H           11.38332986374829        2.97046411457175        2.68800624872490
H            9.71364386622852        3.52983731437261        2.64557768576180
H           10.07028360349207        1.87193654224903        3.12292558193409
H           11.26356932377540        0.73562446161025       -0.24483867329895
H           11.07628123628044        0.25328739828206        1.45123757398946
H           12.27912756413161        1.45538743672386        0.99935282260695
H            9.26353662880911       -0.26856411493622        0.19358185968383
H            8.07662857643253       -2.51305309891768       -0.57496977544515
H            8.51402007418640       -3.96012574038832       -2.25333109484957
H            7.18461344506988       -4.19364117130010       -3.38536356821685
H            8.06752978403598       -5.58834255716201       -2.75676197380526
H            4.86271100475255       -5.83479858466197       -0.94276143075983
H            5.07351104086699       -5.38287201038620       -2.64446858665432
H            6.03979105902964       -6.67572765988782       -1.94469981544344
H            7.77951433086318       -6.25801796966341       -0.29757780484915
H            6.69648045770431       -5.32117946845791        0.73629346051340
H            8.22275983652881       -4.62633741676189        0.19685053339301
H            4.07206096740278       -3.76608993034503       -1.44065446327648
H            3.22073489513123       -1.55186233319323       -0.94749157198093
H            2.74053739515461       -0.30773601186465        1.05655963246402
H            0.57134481102297        0.84581265254835        1.09789671761934
H           -0.60326188699824        0.85283535347756       -1.13233213459366
H           -2.77225965416797       -0.30094734417598       -1.08584022919699

          :  Hamiltonian                  GFN2-xTB          :
         :: gradient norm              0.000065256646 Eh/a0 ::
         :: HOMO-LUMO gap              1.971976621694 eV    ::
         :: SCC energy              -154.727946623403 Eh    ::
         :: -> dispersion             -0.138379342459 Eh    ::
         :: repulsion energy           2.633112269996 Eh    ::

    * Orbital Energies and Occupations

         #    Occupation            Energy/Eh            Energy/eV
      -------------------------------------------------------------
         1        2.0000           -0.6983646             -19.0035
       ...           ...                  ...                  ...
       130        2.0000           -0.4114566             -11.1963
       131        2.0000           -0.4112858             -11.1917
       132        2.0000           -0.4088378             -11.1250
       133        2.0000           -0.4084144             -11.1135
       134        2.0000           -0.4070196             -11.0756
       135        2.0000           -0.4065429             -11.0626
       136        2.0000           -0.3963843             -10.7862
       137        2.0000           -0.3957897             -10.7700
       138        2.0000           -0.3867100             -10.5229
       139        2.0000           -0.3740141             -10.1774
       140        2.0000           -0.3731761             -10.1546
       141        2.0000           -0.3587564              -9.7623
       142        2.0000           -0.3578971              -9.7389 (HOMO)
       143                         -0.2854283              -7.7669 (LUMO)
       144                         -0.2454865              -6.6800
       145                         -0.2404622              -6.5433
       146                         -0.2379493              -6.4749
       147                         -0.2363430              -6.4312
       148                         -0.2350759              -6.3967
       149                         -0.2179661              -5.9312
       150                         -0.2173356              -5.9140
       151                         -0.2024931              -5.5101
       152                         -0.1885454              -5.1306
       153                         -0.1832444              -4.9863
       ...                                ...                  ...
       280                          0.7453077              20.2809
      -------------------------------------------------------------
                  HL-Gap            0.0724688 Eh            1.9720 eV

     #   Z          covCN         q      C6AA      α(0)
     1   6 C        3.761    -0.105    22.555     6.770
     2   6 C        3.903     0.026    20.087     6.371
     3   6 C        3.761    -0.107    22.591     6.775
     4   6 C        3.762    -0.105    22.555     6.770
     5   6 C        2.973    -0.001    28.051     8.688
     6   6 C        2.931    -0.039    28.977     8.828
     7   6 C        2.909    -0.053    29.326     8.880
     8   6 C        3.076     0.042    26.977     8.516
     9   6 C        3.067    -0.019    28.409     8.740
    10   6 C        2.918    -0.043    29.079     8.843
    11   6 C        3.067    -0.019    28.414     8.741
    12   6 C        2.918    -0.044    29.080     8.843
    13   6 C        2.973    -0.001    28.043     8.686
    14   6 C        3.903     0.026    20.087     6.371
    15   6 C        3.761    -0.107    22.590     6.775
    16   6 C        3.762    -0.105    22.557     6.770
    17   6 C        3.762    -0.105    22.559     6.771
    18   6 C        2.931    -0.039    28.964     8.826
    19   6 C        2.909    -0.053    29.318     8.879
    20   6 C        3.077     0.042    26.973     8.515
    21   7 N        2.802    -0.042    22.057     6.975
    22   6 C        2.913     0.071    26.414     8.428
    23   6 C        2.920    -0.043    29.075     8.842
    24   6 C        2.925    -0.018    28.463     8.749
    25   6 C        2.971    -0.017    28.442     8.748
    26   6 C        2.829     0.223    23.304     7.911
    27   8 O        0.858    -0.378    21.248     6.180
    28   6 C        2.971    -0.018    28.443     8.748
    29   6 C        2.925    -0.018    28.462     8.749
    30   6 C        2.920    -0.043    29.075     8.842
    31   6 C        2.913     0.071    26.414     8.428
    32   7 N        2.801    -0.043    22.065     6.976
    33   6 C        3.076     0.043    26.965     8.514
    34   6 C        2.909    -0.053    29.319     8.879
    35   6 C        2.931    -0.039    28.960     8.826
    36   6 C        2.973    -0.001    28.043     8.686
    37   6 C        3.903     0.026    20.086     6.371
    38   6 C        3.762    -0.105    22.559     6.771
    39   6 C        3.761    -0.105    22.558     6.771
    40   6 C        3.761    -0.107    22.587     6.775
    41   6 C        2.918    -0.043    29.074     8.842
    42   6 C        3.065    -0.019    28.413     8.741
    43   6 C        3.066    -0.018    28.395     8.738
    44   6 C        2.920    -0.039    28.973     8.827
    45   6 C        2.972    -0.001    28.051     8.688
    46   6 C        3.903     0.026    20.086     6.371
    47   6 C        3.762    -0.105    22.555     6.770
    48   6 C        3.761    -0.107    22.588     6.775
    49   6 C        3.762    -0.105    22.556     6.770
    50   6 C        2.928    -0.044    29.085     8.844
    51   6 C        2.909    -0.054    29.340     8.882
    52   6 C        3.074     0.042    26.975     8.516
    53   6 C        2.921    -0.044    29.092     8.845
    54   6 C        2.920    -0.027    28.686     8.783
    55   6 C        2.920    -0.027    28.687     8.783
    56   6 C        2.921    -0.044    29.092     8.845
    57   1 H        0.925     0.036     2.502     2.473
    58   1 H        0.925     0.035     2.512     2.479
    59   1 H        0.925     0.033     2.540     2.492
    60   1 H        0.925     0.036     2.509     2.477
    61   1 H        0.925     0.035     2.515     2.480
    62   1 H        0.925     0.036     2.509     2.477
    63   1 H        0.925     0.035     2.512     2.478
    64   1 H        0.925     0.033     2.541     2.493
    65   1 H        0.925     0.036     2.503     2.474
    66   1 H        0.926     0.029     2.599     2.521
    67   1 H        0.926     0.024     2.672     2.556
    68   1 H        0.926     0.038     2.474     2.460
    69   1 H        0.926     0.038     2.478     2.462
    70   1 H        0.925     0.035     2.513     2.479
    71   1 H        0.925     0.035     2.510     2.478
    72   1 H        0.925     0.035     2.515     2.480
    73   1 H        0.925     0.033     2.542     2.494
    74   1 H        0.925     0.036     2.504     2.475
    75   1 H        0.925     0.036     2.500     2.473
    76   1 H        0.925     0.036     2.502     2.474
    77   1 H        0.925     0.036     2.502     2.474
    78   1 H        0.925     0.033     2.541     2.493
    79   1 H        0.926     0.031     2.577     2.511
    80   1 H        0.926     0.028     2.618     2.530
    81   1 H        0.926     0.047     2.352     2.398
    82   1 H        0.926     0.058     2.217     2.329
    83   1 H        0.926     0.059     2.216     2.328
    84   1 H        0.926     0.047     2.353     2.399
    85   1 H        0.926     0.028     2.616     2.529
    86   1 H        0.926     0.031     2.575     2.510
    87   1 H        0.925     0.036     2.501     2.473
    88   1 H        0.925     0.033     2.540     2.492
    89   1 H        0.925     0.036     2.502     2.474
    90   1 H        0.925     0.036     2.500     2.473
    91   1 H        0.925     0.036     2.503     2.474
    92   1 H        0.925     0.033     2.542     2.493
    93   1 H        0.925     0.035     2.512     2.479
    94   1 H        0.925     0.035     2.514     2.480
    95   1 H        0.925     0.035     2.514     2.480
    96   1 H        0.926     0.037     2.486     2.466
    97   1 H        0.926     0.031     2.569     2.507
    98   1 H        0.925     0.036     2.501     2.473
    99   1 H        0.925     0.033     2.544     2.494
   100   1 H        0.925     0.036     2.503     2.474
   101   1 H        0.925     0.035     2.518     2.482
   102   1 H        0.925     0.035     2.517     2.481
   103   1 H        0.925     0.035     2.512     2.478
   104   1 H        0.925     0.036     2.505     2.475
   105   1 H        0.925     0.033     2.546     2.495
   106   1 H        0.925     0.036     2.500     2.473
   107   1 H        0.926     0.036     2.503     2.474
   108   1 H        0.926     0.024     2.673     2.557
   109   1 H        0.926     0.045     2.388     2.417
   110   1 H        0.926     0.039     2.455     2.450
   111   1 H        0.926     0.039     2.455     2.450
   112   1 H        0.926     0.045     2.387     2.416

molecular dipole:
                 x           y           z       tot (Debye)
 q only:        0.001      -1.283       0.002
   full:        0.019      -1.332       0.004       3.385

 projected vibrational frequencies (cm⁻¹)
eigval :       -0.00    -0.00     0.00     0.00     0.00     0.00
eigval :        6.14     7.29     7.81    21.59    24.81    29.26
eigval :       30.90    31.70    32.39    33.50    41.99    53.42
eigval :       59.96    73.34    76.21    77.77    81.85    92.21
eigval :      104.95   107.61   119.02   122.92   143.05   158.19
eigval :      159.25   161.77   166.02   178.05   180.01   184.50
eigval :      191.60   194.38   195.91   203.05   217.48   218.97
eigval :      221.38   223.00   230.34   237.28   246.63   251.30
eigval :      259.02   263.42   270.85   274.22   283.92   295.34
eigval :      304.81   317.76   318.64   321.37   323.10   325.54
eigval :      328.23   339.13   341.88   345.34   355.51   357.57
eigval :      359.99   360.92   380.09   386.24   387.90   393.25
eigval :      399.55   401.82   411.43   411.75   421.56   432.72
eigval :      442.38   442.56   443.74   445.18   458.54   460.07
eigval :      465.44   466.11   469.46   473.06   496.63   499.03
eigval :      519.20   520.00   554.97   570.23   575.83   582.01
eigval :      583.44   584.39   594.04   601.28   611.40   622.98
eigval :      628.94   640.09   640.53   648.09   665.58   685.67
eigval :      688.37   688.42   703.82   707.56   708.97   717.82
eigval :      722.62   732.61   735.38   764.80   816.24   818.84
eigval :      822.46   823.44   831.34   831.82   833.08   833.49
eigval :      868.81   870.79   873.84   873.99   874.80   877.85
eigval :      880.60   884.20   899.85   906.80   912.59   914.14
eigval :      914.60   923.47   924.81   925.98   927.49   929.86
eigval :      933.37   938.03   941.51   945.23   960.07   960.37
eigval :      960.44   960.45   962.47   962.72   962.97   963.04
eigval :      963.10   963.11   963.18   963.41   967.31  1015.09
eigval :     1029.22  1031.38  1032.86  1035.74  1035.78  1035.84
eigval :     1035.86  1035.99  1036.06  1040.12  1041.72  1116.14
eigval :     1116.77  1130.29  1130.81  1135.00  1136.49  1143.73
eigval :     1144.30  1176.11  1177.54  1179.36  1182.56  1191.46
eigval :     1211.19  1218.98  1227.92  1228.26  1228.36  1228.38
eigval :     1229.41  1231.75  1232.39  1232.92  1235.86  1237.40
eigval :     1244.92  1249.39  1257.15  1260.77  1262.05  1264.91
eigval :     1268.57  1285.28  1285.77  1301.28  1305.56  1308.35
eigval :     1309.02  1321.54  1324.78  1347.63  1347.92  1358.09
eigval :     1361.11  1375.14  1378.92  1400.87  1401.26  1404.72
eigval :     1404.93  1406.16  1406.23  1406.33  1406.36  1406.54
eigval :     1407.62  1415.60  1416.36  1429.60  1429.64  1429.72
eigval :     1429.73  1438.11  1440.94  1474.98  1482.43  1483.53
eigval :     1484.88  1489.57  1491.00  1492.38  1492.41  1492.42
eigval :     1492.53  1495.07  1495.09  1495.10  1495.17  1501.65
eigval :     1501.74  1501.97  1502.67  1505.72  1505.79  1505.92
eigval :     1506.04  1515.00  1515.16  1515.19  1515.63  1520.32
eigval :     1520.76  1520.78  1521.16  1553.92  1555.40  1571.65
eigval :     1572.56  1581.16  1583.21  1585.90  1587.29  1604.61
eigval :     1605.00  1616.89  1618.49  1679.41  3020.94  3021.35
eigval :     3021.40  3021.47  3022.68  3022.88  3022.94  3023.01
eigval :     3026.77  3026.79  3026.88  3026.99  3029.57  3029.73
eigval :     3030.03  3030.21  3030.89  3030.93  3030.96  3031.06
eigval :     3035.44  3035.54  3035.57  3035.85  3037.89  3038.00
eigval :     3038.13  3038.24  3046.85  3047.50  3047.55  3047.62
eigval :     3050.20  3051.15  3051.17  3051.29  3078.46  3079.91
eigval :     3081.35  3081.92  3082.16  3082.54  3090.36  3090.56
eigval :     3090.70  3092.50  3094.97  3095.09  3095.42  3096.01
eigval :     3100.53  3100.77  3116.05  3117.13  3118.61  3119.53

   temp. (K)  partition function   enthalpy   heat capacity  entropy
                                   cal/mol     cal/K/mol   cal/K/mol   J/K/mol
 298.15  VIB  0.185E+26            32118.927    197.056    199.862
         ROT  0.236E+09              888.752      2.981     41.295
         INT  0.437E+34            33007.679    200.037    241.157
         TR   0.194E+29             1481.254      4.968     45.651
         TOT                       34488.9333   205.0050   286.8083  1200.0060

       T/K    H(0)-H(T)+PV         H(T)/Eh          T*S/Eh         G(T)/Eh
   ------------------------------------------------------------------------
    298.15    0.549616E-01    0.989180E+00    0.136272E+00    0.852908E+00
   ------------------------------------------------------------------------

         :::::::::::::::::::::::::::::::::::::::::::::::::::::
         ::                  THERMODYNAMIC                  ::
         :::::::::::::::::::::::::::::::::::::::::::::::::::::
         :: total free energy        -151.241926385606 Eh   ::
         ::.................................................::
         :: total energy             -152.094834353406 Eh   ::
         :: zero point energy           0.934218240090 Eh   ::
         :: G(RRHO) w/o ZPVE           -0.081310272290 Eh   ::
         :: G(RRHO) contrib.            0.852907967800 Eh   ::
         :::::::::::::::::::::::::::::::::::::::::::::::::::::

           -------------------------------------------------
          | TOTAL ENERGY             -152.094834353406 Eh   |
          | TOTAL ENTHALPY           -151.105654499592 Eh   |
          | TOTAL FREE ENERGY        -151.241926385606 Eh   |
          | GRADIENT NORM               0.000065259071 Eh/α |
          | HOMO-LUMO GAP               1.971976767539 eV   |
           -------------------------------------------------

 * finished run on 2025/08/26 at 04:29:35.815
