   * xtb version 6.7.1 (edcfbbe) compiled by 'albert@albert-system' on 2024-07-22

   ID    Z sym.   atoms
    1    6 C      1-20, 22-26, 28-31, 33-56
    2    7 N      21, 32
    3    8 O      27
    4    1 H      57-112

          program call               : xtb data2507/gas/t–BuCz2BP/t–BuCz2BP_gas_S0_finalOpt.xtbopt.xyz --gfn 2 --spinpol --tblite --uhf 2 --ohess vtight --parallel 40 --molden --ceasefiles --namespace data2507/gas/t–BuCz2BP/t–BuCz2BP_gas_T1_preOpt
 * total energy  :  -152.0083316 Eh     change       -0.5101941E-07 Eh
 * total energy  :  -152.0117919 Eh     change       -0.3460332E-02 Eh
 * total energy  :  -152.0126916 Eh     change       -0.8996706E-03 Eh
 * total energy  :  -152.0128061 Eh     change       -0.1145266E-03 Eh
 * total energy  :  -152.0128831 Eh     change       -0.7693221E-04 Eh
 * total energy  :  -152.0129444 Eh     change       -0.6132739E-04 Eh
 * total energy  :  -152.0130111 Eh     change       -0.6667578E-04 Eh
 * total energy  :  -152.0130527 Eh     change       -0.4164491E-04 Eh
 * total energy  :  -152.0130788 Eh     change       -0.2611007E-04 Eh
 * total energy  :  -152.0131014 Eh     change       -0.2252379E-04 Eh
 * total energy  :  -152.0135791 Eh     change       -0.8385501E-06 Eh
 * total energy  :  -152.0135799 Eh     change       -0.8090362E-06 Eh
 * total energy  :  -152.0135807 Eh     change       -0.8082160E-06 Eh
 * total energy  :  -152.0135815 Eh     change       -0.8029704E-06 Eh
 * total energy  :  -152.0135824 Eh     change       -0.8906998E-06 Eh
 * total energy  :  -152.0135832 Eh     change       -0.7574425E-06 Eh
 * total energy  :  -152.0135841 Eh     change       -0.9109795E-06 Eh
 * total energy  :  -152.0135848 Eh     change       -0.7673118E-06 Eh
 * total energy  :  -152.0135849 Eh     change       -0.7720831E-07 Eh
   *** GEOMETRY OPTIMIZATION CONVERGED AFTER 94 ITERATIONS ***

 final structure:
================
112
 xtb: 6.7.1 (edcfbbe)
C           -6.47130984634876       -4.91412554040721        3.18057393881495
C           -6.77432757710169       -4.67120248575424        1.69511613172530
C           -8.27843307201509       -4.86020088115295        1.47946931228643
C           -6.03693653312613       -5.70950527382471        0.83698774378541
C           -6.29781037350491       -3.27982192251528        1.30831214947164
C           -4.93827516361286       -2.96687387180326        1.44625463987319
C           -4.41334787382062       -1.73769288301785        1.10431801427617
C           -5.27723943632904       -0.77890630477364        0.59320697359014
C           -6.65777312679309       -1.05763171850590        0.47750128441341
C           -7.15842964126115       -2.30143728352548        0.82926427536056
C           -7.27192479903037        0.14301193827947       -0.02357164912832
C           -8.57978216138163        0.47734117534004       -0.33840001029028
C           -8.86687560249644        1.74246714272876       -0.83336680211885
C          -10.27928798968263        2.18371385449593       -1.18344985974753
C          -11.32109047002364        1.09432036485888       -0.91418654197635
C          -10.34091528446534        2.54434377935233       -2.67466006411489
C          -10.64418877759387        3.41111408521705       -0.33583240387110
C           -7.80946239176529        2.64294348957790       -1.02484760485646
C           -6.49920640563547        2.33690528687445       -0.72069254136040
C           -6.22919641342231        1.08205041350440       -0.19129712209832
N           -5.03182718283910        0.51519780287065        0.18784203127549
C           -3.78260373203058        1.14456973479389        0.15565215502344
C           -3.62212336991311        2.43758354654706        0.66749844581799
C           -2.40037482072418        3.05662254269484        0.61371749126148
C           -1.27229069061356        2.39359676861674        0.08818243064668
C           -0.01402827781719        3.10923076437748        0.02257535337166
O           -0.01581755535048        4.37791685469258        0.02560679792348
C            1.24649661523764        2.39780300633308       -0.04762754070409
C            2.37103025968511        3.06536624163504       -0.57490218661605
C            3.59408303073682        2.44949513889463       -0.63504000983225
C            3.75966035118652        1.15539278976903       -0.12753156587727
N            5.01010491378279        0.52879288455363       -0.16739381479783
C            6.20820997022058        1.09770727365630        0.20598029632516
C            6.47764721849472        2.35198198944965        0.73726520650188
C            7.78883392957358        2.66165421685040        1.03329732615160
C            8.84811570226843        1.76550878063841        0.83193221214561
C           10.26143535069074        2.21111829887281        1.17253091575117
C           10.61545439648117        3.44155411799810        0.32467753312786
C           10.33291650014137        2.56896044577830        2.66396920453534
C           11.30517751724143        1.12612523019332        0.89321487781088
C            8.56175393120433        0.50063488488342        0.33580932144903
C            7.25309738713772        0.16280631996032        0.02902756379442
C            6.63957373611376       -1.03863587331288       -0.47180775547696
C            7.13482727353936       -2.27879893615167       -0.83145966336731
C            6.27261825860092       -3.26167815474491       -1.30985427616960
C            6.84099028128425       -4.62323258490825       -1.67992054296212
C            7.88360548965237       -4.44583776376350       -2.79314366561099
C            5.77334563231357       -5.60002655445741       -2.17988474201649
C            7.50501781015468       -5.23919296248074       -0.43960634694907
C            4.91521891754762       -2.95387540472784       -1.43853058991235
C            4.39336222715496       -1.72231234819397       -1.08713607107386
C            5.25611193386637       -0.76369997211247       -0.57864361702469
C            2.66426374527952        0.50385744424774        0.44986361460260
C            1.43413433584583        1.11292546884918        0.49424362305203
C           -1.45466681172281        1.10957993073032       -0.45753728913115
C           -2.68334915566996        0.49720533331891       -0.41907879667831
H           -6.82567629852834       -5.89874150078063        3.47828390300871
H           -5.40535057212583       -4.86132404331982        3.38304874757927
H           -6.97180268964023       -4.16696119805887        3.79299884843730
H           -8.85217016106705       -4.16934565387173        2.09287858750826
H           -8.56016113168797       -5.87241874018027        1.76253880967173
H           -8.54499025593554       -4.71791697421858        0.43468893594469
H           -4.96334978832718       -5.66828537126860        0.99751418087512
H           -6.23091321955066       -5.53013108869411       -0.21855630539763
H           -6.37966892965745       -6.71169979192316        1.08557395832917
H           -4.26213290774828       -3.71071147447107        1.83882400781375
H           -3.36339407098710       -1.52955833350916        1.24211316711310
H           -8.21506101983415       -2.48230125257733        0.72424901887253
H           -9.35171783367514       -0.25976328902097       -0.19314627241297
H          -11.12870797254356        0.21023084380667       -1.51767267912904
H          -11.33286541288428        0.81511887243077        0.13689657553267
H          -12.30990560293320        1.46757796396433       -1.17298099341619
H          -10.05911966757355        1.68582354101139       -3.28081211024983
H           -9.67002982601897        3.36449926958888       -2.91380043391738
H          -11.35169538821732        2.84188933445347       -2.94566155296195
H          -11.65982768943726        3.73112530645398       -0.55878717545759
H           -9.97489990526129        4.24374021138972       -0.53265315447055
H          -10.58330744097035        3.16786518148493        0.72297284956506
H           -8.01540351364840        3.62091845658467       -1.43158458664317
H           -5.71061017846268        3.05030515309181       -0.90364657316936
H           -4.46447137223703        2.93178089142377        1.12892312387530
H           -2.26649886589687        4.05502058531526        1.00099230008228
H            2.23327525724048        4.06449901349868       -0.95889195851880
H            4.43336605267755        2.94702592148436       -1.09846028883291
H            5.68789203696518        3.06213049312217        0.92760555617090
H            7.99421333891576        3.63919197525018        1.44135818465309
H           11.63144850295760        3.76502399711230        0.54089141016161
H           10.54781306633544        3.20014458916755       -0.73414145186632
H            9.94442502910240        4.27120668466057        0.52800069030737
H           11.34469887310719        2.86931300638951        2.92802478800436
H            9.66116328046383        3.38643673824478        2.90973052148515
H           10.05847364378851        1.70832326501993        3.27049407996878
H           11.31009991023635        0.84914893998203       -0.15853167779772
H           11.12059715133492        0.24014710434146        1.49640292825800
H           12.29453518199248        1.50249526245938        1.14531603168715
H            9.33526907606382       -0.23338171346488        0.18338726893197
H            8.19306998572564       -2.46708987727692       -0.73701073807857
H            8.70642628011467       -3.81437851733794       -2.47008888979920
H            7.42542534192755       -3.98769663127200       -3.66720390428216
H            8.29003908636368       -5.41257212576813       -3.08279161941267
H            5.01711865510900       -5.77761501320831       -1.41872121285859
H            5.29309681314680       -5.22876563254709       -3.08221478122244
H            6.23986325774746       -6.55399559860857       -2.41758255422413
H            7.90637435570044       -6.22173657470245       -0.67872545549708
H            6.77625869716735       -5.34936837796067        0.36082167646921
H            8.31916180907360       -4.61920533169911       -0.07505916862843
H            4.23217875861477       -3.69027201239127       -1.82782151188193
H            3.34207731466161       -1.51626110162752       -1.21796703499308
H            2.80510581437924       -0.46888540190840        0.89878579136854
H            0.61452415339330        0.61629748079983        0.99133004139234
H           -0.63209960954367        0.61629821820698       -0.95306563489062
H           -2.82002251755761       -0.47478895062406       -0.87092745829259

 projected vibrational frequencies (cm⁻¹)
eigval :       -0.00    -0.00     0.00     0.00     0.00     0.00
eigval :        6.58     7.77     8.11    22.06    24.44    30.42
eigval :       30.82    31.80    33.11    33.86    42.53    53.13
eigval :       59.94    73.03    76.40    77.97    81.63    92.68
eigval :      108.84   112.35   119.50   122.57   143.06   157.58
eigval :      159.07   165.61   168.10   178.72   181.01   186.88
eigval :      191.87   192.55   194.70   201.66   217.08   218.63
eigval :      221.12   222.41   229.80   236.70   245.12   250.33
eigval :      257.36   261.18   268.07   275.18   286.35   292.53
eigval :      304.16   316.81   318.26   319.35   322.50   323.41
eigval :      326.02   337.42   338.87   347.62   354.47   355.68
eigval :      357.94   358.15   378.08   385.04   386.28   387.02
eigval :      394.93   401.21   402.35   406.59   406.99   418.07
eigval :      440.14   441.27   442.34   443.15   448.91   454.58
eigval :      464.49   465.87   466.73   469.26   490.48   491.29
eigval :      515.98   517.54   541.69   543.84   572.26   576.36
eigval :      579.69   583.43   584.46   592.18   597.38   607.40
eigval :      625.73   628.37   639.46   640.40   640.82   660.73
eigval :      671.02   690.21   690.35   701.67   707.17   708.74
eigval :      717.03   717.47   726.81   759.34   801.76   812.92
eigval :      820.01   823.39   824.34   827.08   831.00   832.21
eigval :      846.89   862.82   869.37   869.74   871.06   872.97
eigval :      873.15   877.90   886.56   902.88   907.68   908.69
eigval :      912.07   918.53   919.01   921.09   922.86   925.66
eigval :      926.09   931.32   936.24   941.88   948.37   960.05
eigval :      960.34   960.40   960.41   962.81   962.89   963.05
eigval :      963.08   963.28   963.42   963.52   963.55  1002.84
eigval :     1008.82  1030.29  1031.64  1035.02  1035.03  1035.09
eigval :     1035.12  1035.76  1035.87  1039.28  1040.95  1110.67
eigval :     1113.39  1128.19  1128.85  1131.38  1134.48  1139.23
eigval :     1140.73  1158.93  1165.17  1165.83  1167.26  1191.79
eigval :     1204.80  1218.43  1226.13  1226.45  1226.46  1226.59
eigval :     1227.31  1230.09  1230.78  1231.15  1231.86  1232.95
eigval :     1239.08  1244.63  1247.31  1256.05  1257.08  1257.73
eigval :     1262.98  1282.23  1283.31  1293.10  1294.03  1298.06
eigval :     1299.55  1323.50  1329.20  1342.00  1343.01  1348.87
eigval :     1350.36  1365.82  1368.00  1401.49  1401.86  1404.68
eigval :     1404.92  1405.75  1405.86  1406.00  1406.03  1407.09
eigval :     1409.12  1411.43  1414.97  1426.72  1429.12  1429.35
eigval :     1429.43  1429.50  1431.33  1434.85  1454.15  1460.29
eigval :     1462.08  1463.95  1476.04  1479.83  1486.20  1489.24
eigval :     1491.63  1491.65  1491.83  1491.85  1494.19  1494.22
eigval :     1494.32  1494.36  1500.65  1500.70  1500.82  1501.55
eigval :     1504.92  1504.93  1505.14  1505.21  1514.99  1515.12
eigval :     1515.18  1515.24  1519.78  1520.15  1520.17  1520.58
eigval :     1531.51  1559.23  1560.02  1571.50  1573.54  1576.75
eigval :     1579.64  1580.45  1600.56  1604.80  3022.46  3022.72
eigval :     3022.86  3022.90  3024.48  3024.49  3024.66  3024.74
eigval :     3027.54  3027.64  3027.70  3027.89  3030.83  3030.88
eigval :     3030.97  3031.21  3031.86  3031.88  3031.93  3032.06
eigval :     3035.89  3035.96  3036.20  3036.39  3038.93  3038.98
eigval :     3039.09  3039.23  3048.10  3048.59  3049.24  3049.30
eigval :     3051.28  3051.73  3052.44  3052.51  3074.27  3075.24
eigval :     3080.23  3080.30  3085.80  3088.41  3088.68  3088.86
eigval :     3089.60  3090.36  3090.99  3097.23  3099.79  3099.96
eigval :     3100.11  3100.54  3116.42  3117.46  3119.57  3121.64

   temp. (K)  partition function   enthalpy   heat capacity  entropy
                                   cal/mol     cal/K/mol   cal/K/mol   J/K/mol
 298.15  VIB  0.162E+26            32306.627    198.538    200.553
         ROT  0.240E+09              888.752      2.981     41.331
         INT  0.390E+34            33195.379    201.519    241.883
         TR   0.194E+29             1481.254      4.968     45.651
         TOT                       34676.6330   206.4871   287.5346  1203.0449

       T/K    H(0)-H(T)+PV         H(T)/Eh          T*S/Eh         G(T)/Eh
   ------------------------------------------------------------------------
    298.15    0.552607E-01    0.985978E+00    0.136617E+00    0.849361E+00
   ------------------------------------------------------------------------

         :::::::::::::::::::::::::::::::::::::::::::::::::::::
         ::                  THERMODYNAMIC                  ::
         :::::::::::::::::::::::::::::::::::::::::::::::::::::
         :: total free energy        -151.164223529372 Eh   ::
         ::.................................................::
         :: total energy             -152.013584860328 Eh   ::
         :: zero point energy           0.930717580983 Eh   ::
         :: G(RRHO) w/o ZPVE           -0.081356250027 Eh   ::
         :: G(RRHO) contrib.            0.849361330957 Eh   ::
         :::::::::::::::::::::::::::::::::::::::::::::::::::::

           -------------------------------------------------
          | TOTAL ENERGY             -152.013584860328 Eh   |
          | TOTAL ENTHALPY           -151.027606547208 Eh   |
          | TOTAL FREE ENERGY        -151.164223529372 Eh   |
          | GRADIENT NORM               0.000126119775 Eh/α |
           -------------------------------------------------

 * finished run on 2025/08/26 at 04:30:04.091
