   * xtb version 6.7.1 (edcfbbe) compiled by 'albert@albert-system' on 2024-07-22

   ID    Z sym.   atoms
    1    6 C      1-20, 22-26, 28-31, 33-56
    2    7 N      21, 32
    3    8 O      27
    4    1 H      57-112

          program call               : xtb data2507/gas/t–BuCz2BP/t–BuCz2BP.xyz --gfn 2 --ohess vtight --parallel 40 --molden --ceasefiles --namespace data2507/gas/t–BuCz2BP/t–BuCz2BP_gas_S0_preOpt
          :  Hamiltonian                  GFN2-xTB          :
 * total energy  :  -152.0663384 Eh     change       -0.3403045E-08 Eh
 * total energy  :  -152.0840665 Eh     change       -0.1772807E-01 Eh
 * total energy  :  -152.0892378 Eh     change       -0.5171265E-02 Eh
 * total energy  :  -152.0906327 Eh     change       -0.1394906E-02 Eh
 * total energy  :  -152.0914060 Eh     change       -0.7733694E-03 Eh
 * total energy  :  -152.0916788 Eh     change       -0.2727270E-03 Eh
 * total energy  :  -152.0918268 Eh     change       -0.1480729E-03 Eh
 * total energy  :  -152.0919379 Eh     change       -0.1110380E-03 Eh
 * total energy  :  -152.0920408 Eh     change       -0.1029702E-03 Eh
 * total energy  :  -152.0921425 Eh     change       -0.1016317E-03 Eh
 * total energy  :  -152.0939300 Eh     change       -0.8548347E-06 Eh
 * total energy  :  -152.0939309 Eh     change       -0.8353370E-06 Eh
 * total energy  :  -152.0939317 Eh     change       -0.8098979E-06 Eh
 * total energy  :  -152.0939325 Eh     change       -0.8001950E-06 Eh
 * total energy  :  -152.0939333 Eh     change       -0.7887436E-06 Eh
 * total energy  :  -152.0939340 Eh     change       -0.7950395E-06 Eh
 * total energy  :  -152.0939349 Eh     change       -0.8026088E-06 Eh
 * total energy  :  -152.0939357 Eh     change       -0.8277799E-06 Eh
 * total energy  :  -152.0939357 Eh     change       -0.7295597E-08 Eh
   *** GEOMETRY OPTIMIZATION CONVERGED AFTER 185 ITERATIONS ***

 final structure:
================
112
 xtb: 6.7.1 (edcfbbe)
C           -9.29348216251521       -3.52541737579521       -2.68479767260971
C           -8.72278288607448       -3.49837984268434       -1.25983075910447
C           -8.05282762395335       -4.84258773470450       -0.94174690071589
C           -9.88836460045436       -3.30778372816066       -0.28526328438646
C           -7.68793470292551       -2.38725874465951       -1.15778872122438
C           -6.55918532445225       -2.43566925163223       -1.98644108256335
C           -5.56821831173033       -1.47511166527146       -1.96250617917739
C           -5.70214417988717       -0.42443784748321       -1.06877072455444
C           -6.84070498101334       -0.33827044093326       -0.24146156325559
C           -7.82244395197824       -1.31881694798831       -0.28642401803656
C           -6.70564181936739        0.87681356476055        0.51526240389554
C           -7.48035412373003        1.47538565095869        1.49569770244405
C           -7.06580517817607        2.66489176254050        2.08062337051489
C           -7.93589601545727        3.30391589024545        3.15397680277848
C           -8.08487770127628        2.32379407382285        4.32640908866523
C           -9.31624192615528        3.61598406105136        2.55873880621401
C           -7.34915902111943        4.60890330807069        3.69904346040425
C           -5.85353195845011        3.22369144909829        1.66757033712602
C           -5.06082775990960        2.64804151493021        0.69115416500675
C           -5.49786647061707        1.47611736203908        0.09835252228350
N           -4.89540071799392        0.67959023457879       -0.85960654848577
C           -3.68208694152077        0.95158462758717       -1.49205190937834
C           -2.69350117960081       -0.02844562214207       -1.57728208164507
C           -1.47864467632840        0.25945207576458       -2.16524555566989
C           -1.23173603353067        1.52680019423441       -2.68938606711516
C            0.05887200557578        1.87920743394125       -3.33336706834282
O            0.10133980458331        2.57424965828712       -4.33096220276425
C            1.29293516649199        1.37566949530599       -2.68686875962695
C            1.35162281219987        1.06364204548849       -1.32835674064517
C            2.53986539614742        0.66437866580338       -0.75435322342249
C            3.69843324834712        0.56529471154105       -1.52578390889861
N            4.90066872619088        0.17826639388600       -0.93820987801440
C            5.08206840899738       -0.89121897614456       -0.07868091174557
C            4.19419048924485       -1.87003947153014        0.33262287217271
C            4.65747815729443       -2.86182882980180        1.17867810951654
C            5.98129419725183       -2.91673031212291        1.62202538927378
C            6.48561780234071       -4.00540250564451        2.55896841370017
C            5.39400535275959       -5.00191197557073        2.95841055041599
C            7.60946761696362       -4.78568354646084        1.86227449265137
C            7.02385842659865       -3.35161124581419        3.83971369149344
C            6.86872077863217       -1.94410797641620        1.17953390201572
C            6.43139323046184       -0.93919662476154        0.33236761456698
C            7.09179093092755        0.16983653880284       -0.30162021973623
C            8.39326316631009        0.65016455291673       -0.24752401506041
C            8.73494098565274        1.79128176792316       -0.95484366204253
C           10.13914359969854        2.37739866044270       -0.94028956655917
C           10.68308542603732        2.41971498104690       -2.37520905410478
C           11.11066391476554        1.55557746401354       -0.08866819941794
C           10.08454533727048        3.79868488441016       -0.36213807874470
C            7.74018403856998        2.43867331540550       -1.69911450379005
C            6.43927794952029        1.98294545427537       -1.77067240379805
C            6.11616484949638        0.82675362762330       -1.07843915385728
C            3.64449510450143        0.87689746182960       -2.88524819851809
C            2.45745806821405        1.28604858219232       -3.45110191624326
C           -2.23886600289908        2.48884998313419       -2.64258033566946
C           -3.44724790205806        2.21244225475616       -2.04004695233002
H           -8.51862724693997       -3.72606559741494       -3.41935352415537
H          -10.05241267170034       -4.30044391638676       -2.77035087553595
H           -9.74962452341044       -2.56708189099555       -2.92452206358479
H           -7.25547753856265       -5.06566578510970       -1.64507039991502
H           -8.78401294642993       -5.64688589724619       -0.99079080141140
H           -7.62811924794756       -4.82252597211568        0.05988711386845
H          -10.42303712352830       -2.38326650577569       -0.49057633240595
H           -9.53935766344990       -3.29822903158918        0.74479375923778
H          -10.59046460300364       -4.13208438613879       -0.39435965700353
H           -6.44940051953121       -3.25234260739995       -2.68358633413275
H           -4.72521813135667       -1.54001850121350       -2.63404351928107
H           -8.67850301335216       -1.22058871417941        0.35994711135040
H           -8.40013802158322        0.99822384707288        1.79690174332355
H           -8.56210949623588        1.39970192091528        4.01259299942581
H           -7.10760018194870        2.07944655255178        4.73781549524071
H           -8.68966741417362        2.76908790541918        5.11372850907021
H           -9.81097929560965        2.71384249545889        2.21013495735878
H           -9.21618858962222        4.29663143277718        1.71573838978752
H           -9.95111436753327        4.08487059297766        3.30775703462320
H           -8.01809473333172        5.01839916633737        4.45353846815209
H           -7.24054830342818        5.34969778824192        2.91022227449714
H           -6.38185880551329        4.43929179632506        4.16639871831639
H           -5.50073407849523        4.13669654739250        2.11768175813169
H           -4.12094440468895        3.10249023352385        0.41527200959626
H           -2.87722361468996       -1.00587161485771       -1.15704322973312
H           -0.71956966576480       -0.50651466881219       -2.23117026659228
H            0.47225669075018        1.17051833579838       -0.71065368180397
H            2.58968199357805        0.45554798479269        0.30374094555352
H            3.16765485632323       -1.87609957776069       -0.00230181646602
H            3.95344221784463       -3.61456600002831        1.49245620682959
H            5.81408892979159       -5.74755653942746        3.63066574072714
H            4.57907886226274       -4.50355514146501        3.47840381363844
H            4.99906042916095       -5.52092222564051        2.08807874691172
H            7.97153938090703       -5.58132916531518        2.51016450222425
H            7.24148671123872       -5.23133119699301        0.94035439139716
H            8.44765613339990       -4.13980169197041        1.61652825440558
H            6.23667382992140       -2.78258300864072        4.33017778618936
H            7.84726758718818       -2.67647767555521        3.62439440133955
H            7.37997125700595       -4.11394916580010        4.52958799459743
H            7.90482668652861       -1.95799255183320        1.48050024572726
H            9.11238314611565        0.12307021704760        0.35690811347615
H           11.69471345186874        2.82029412467450       -2.38098872117085
H           10.06705212195397        3.04469336889689       -3.01554845442278
H           10.70608894338851        1.41722816391350       -2.79764631958990
H           12.09732753467273        2.01352524362126       -0.12086695018950
H           10.79003035074839        1.52384950274494        0.95009380514124
H           11.19955815009032        0.53982083439747       -0.46707430584225
H            9.67619237666986        3.77830968597618        0.64625397551563
H            9.46134214120205        4.45046663786796       -0.96792691950045
H           11.08449347319802        4.22568816075893       -0.32147430466039
H            7.98625318626073        3.33906021118211       -2.24089630210932
H            5.69925522032094        2.52729978973334       -2.33759130319804
H            4.53491016915364        0.78191820766394       -3.48795865453921
H            2.40330552192960        1.53601606806208       -4.50023024754517
H           -2.05180950234261        3.45764564242159       -3.08107142817316
H           -4.22582048759782        2.95938653458843       -2.00636052647405

          :  Hamiltonian                  GFN2-xTB          :
         :: gradient norm              0.000071079436 Eh/a0 ::
         :: HOMO-LUMO gap              1.946682999911 eV    ::
         :: SCC energy              -154.727264694801 Eh    ::
         :: -> dispersion             -0.138209987438 Eh    ::
         :: repulsion energy           2.633329007754 Eh    ::

    * Orbital Energies and Occupations

         #    Occupation            Energy/Eh            Energy/eV
      -------------------------------------------------------------
         1        2.0000           -0.6996745             -19.0391
       ...           ...                  ...                  ...
       130        2.0000           -0.4123960             -11.2219
       131        2.0000           -0.4107722             -11.1777
       132        2.0000           -0.4088992             -11.1267
       133        2.0000           -0.4079185             -11.1000
       134        2.0000           -0.4074817             -11.0881
       135        2.0000           -0.4063333             -11.0569
       136        2.0000           -0.3962889             -10.7836
       137        2.0000           -0.3950519             -10.7499
       138        2.0000           -0.3872788             -10.5384
       139        2.0000           -0.3745487             -10.1920
       140        2.0000           -0.3732089             -10.1555
       141        2.0000           -0.3589613              -9.7678
       142        2.0000           -0.3570588              -9.7161 (HOMO)
       143                         -0.2855195              -7.7694 (LUMO)
       144                         -0.2453796              -6.6771
       145                         -0.2406293              -6.5479
       146                         -0.2384786              -6.4893
       147                         -0.2366367              -6.4392
       148                         -0.2353801              -6.4050
       149                         -0.2184675              -5.9448
       150                         -0.2171443              -5.9088
       151                         -0.2030921              -5.5264
       152                         -0.1886054              -5.1322
       153                         -0.1833330              -4.9887
       ...                                ...                  ...
       280                          0.7461650              20.3042
      -------------------------------------------------------------
                  HL-Gap            0.0715393 Eh            1.9467 eV

     #   Z          covCN         q      C6AA      α(0)
     1   6 C        3.762    -0.105    22.556     6.770
     2   6 C        3.903     0.026    20.086     6.371
     3   6 C        3.762    -0.105    22.555     6.770
     4   6 C        3.761    -0.107    22.586     6.775
     5   6 C        2.973    -0.001    28.056     8.688
     6   6 C        2.931    -0.039    28.967     8.827
     7   6 C        2.908    -0.053    29.324     8.880
     8   6 C        3.076     0.043    26.962     8.513
     9   6 C        3.066    -0.019    28.418     8.741
    10   6 C        2.918    -0.043    29.075     8.842
    11   6 C        3.065    -0.019    28.405     8.739
    12   6 C        2.920    -0.039    28.976     8.827
    13   6 C        2.972    -0.001    28.055     8.688
    14   6 C        3.903     0.026    20.087     6.371
    15   6 C        3.762    -0.105    22.554     6.770
    16   6 C        3.762    -0.105    22.556     6.770
    17   6 C        3.761    -0.107    22.588     6.775
    18   6 C        2.929    -0.044    29.081     8.844
    19   6 C        2.909    -0.054    29.344     8.883
    20   6 C        3.076     0.042    26.971     8.515
    21   7 N        2.802    -0.044    22.087     6.980
    22   6 C        2.913     0.070    26.431     8.430
    23   6 C        2.921    -0.044    29.089     8.845
    24   6 C        2.920    -0.027    28.682     8.782
    25   6 C        2.972    -0.016    28.409     8.743
    26   6 C        2.828     0.224    23.286     7.907
    27   8 O        0.858    -0.376    21.197     6.173
    28   6 C        2.971    -0.019    28.468     8.752
    29   6 C        2.920    -0.027    28.687     8.783
    30   6 C        2.921    -0.044    29.085     8.844
    31   6 C        2.913     0.072    26.397     8.425
    32   7 N        2.801    -0.043    22.062     6.976
    33   6 C        3.074     0.042    26.976     8.516
    34   6 C        2.909    -0.054    29.336     8.881
    35   6 C        2.929    -0.044    29.082     8.844
    36   6 C        2.972    -0.001    28.046     8.687
    37   6 C        3.903     0.026    20.086     6.371
    38   6 C        3.761    -0.107    22.589     6.775
    39   6 C        3.762    -0.105    22.557     6.770
    40   6 C        3.762    -0.105    22.556     6.770
    41   6 C        2.920    -0.039    28.972     8.827
    42   6 C        3.066    -0.018    28.394     8.738
    43   6 C        3.066    -0.019    28.409     8.740
    44   6 C        2.918    -0.043    29.072     8.842
    45   6 C        2.973    -0.001    28.041     8.686
    46   6 C        3.903     0.026    20.086     6.371
    47   6 C        3.762    -0.105    22.560     6.771
    48   6 C        3.761    -0.107    22.588     6.775
    49   6 C        3.762    -0.105    22.559     6.771
    50   6 C        2.931    -0.039    28.959     8.825
    51   6 C        2.909    -0.053    29.319     8.879
    52   6 C        3.076     0.043    26.964     8.514
    53   6 C        2.920    -0.043    29.071     8.842
    54   6 C        2.924    -0.018    28.453     8.748
    55   6 C        2.924    -0.019    28.482     8.752
    56   6 C        2.921    -0.043    29.056     8.839
    57   1 H        0.925     0.036     2.507     2.476
    58   1 H        0.925     0.036     2.503     2.474
    59   1 H        0.925     0.033     2.538     2.491
    60   1 H        0.925     0.035     2.510     2.477
    61   1 H        0.925     0.036     2.505     2.475
    62   1 H        0.925     0.033     2.544     2.494
    63   1 H        0.925     0.035     2.511     2.478
    64   1 H        0.925     0.035     2.514     2.479
    65   1 H        0.925     0.035     2.517     2.481
    66   1 H        0.926     0.030     2.593     2.518
    67   1 H        0.926     0.025     2.651     2.546
    68   1 H        0.926     0.037     2.488     2.467
    69   1 H        0.926     0.031     2.575     2.509
    70   1 H        0.925     0.036     2.503     2.474
    71   1 H        0.925     0.033     2.548     2.496
    72   1 H        0.925     0.036     2.505     2.475
    73   1 H        0.925     0.036     2.502     2.473
    74   1 H        0.925     0.033     2.541     2.493
    75   1 H        0.925     0.036     2.506     2.476
    76   1 H        0.925     0.035     2.513     2.479
    77   1 H        0.925     0.035     2.513     2.479
    78   1 H        0.925     0.035     2.519     2.482
    79   1 H        0.926     0.036     2.498     2.472
    80   1 H        0.926     0.025     2.665     2.553
    81   1 H        0.926     0.045     2.388     2.417
    82   1 H        0.926     0.039     2.464     2.455
    83   1 H        0.926     0.040     2.446     2.446
    84   1 H        0.926     0.045     2.384     2.414
    85   1 H        0.926     0.024     2.669     2.555
    86   1 H        0.926     0.036     2.498     2.472
    87   1 H        0.925     0.035     2.510     2.478
    88   1 H        0.925     0.035     2.518     2.481
    89   1 H        0.925     0.035     2.516     2.480
    90   1 H        0.925     0.036     2.502     2.473
    91   1 H        0.925     0.033     2.542     2.493
    92   1 H        0.925     0.036     2.500     2.473
    93   1 H        0.925     0.033     2.545     2.495
    94   1 H        0.925     0.036     2.500     2.473
    95   1 H        0.925     0.036     2.503     2.474
    96   1 H        0.926     0.031     2.567     2.505
    97   1 H        0.926     0.037     2.483     2.464
    98   1 H        0.925     0.036     2.500     2.473
    99   1 H        0.925     0.036     2.502     2.474
   100   1 H        0.925     0.033     2.539     2.492
   101   1 H        0.925     0.035     2.513     2.479
   102   1 H        0.925     0.035     2.514     2.480
   103   1 H        0.925     0.035     2.511     2.478
   104   1 H        0.925     0.033     2.542     2.493
   105   1 H        0.925     0.036     2.503     2.474
   106   1 H        0.925     0.036     2.498     2.472
   107   1 H        0.926     0.031     2.574     2.509
   108   1 H        0.926     0.028     2.619     2.531
   109   1 H        0.926     0.048     2.348     2.396
   110   1 H        0.926     0.061     2.189     2.314
   111   1 H        0.926     0.055     2.257     2.349
   112   1 H        0.926     0.047     2.353     2.399

molecular dipole:
                 x           y           z       tot (Debye)
 q only:        0.154      -0.702       1.132
   full:        0.145      -0.740       1.158       3.512

 projected vibrational frequencies (cm⁻¹)
eigval :       -0.00    -0.00    -0.00     0.00     0.00     0.00
eigval :        5.16     6.99     7.88    21.46    23.07    30.42
eigval :       30.86    32.15    32.21    36.03    39.48    54.09
eigval :       61.00    70.23    74.69    78.58    82.85    91.44
eigval :      103.28   106.95   120.56   123.09   141.93   156.30
eigval :      158.69   160.39   165.67   177.42   179.43   185.10
eigval :      187.26   193.82   194.78   195.32   217.50   217.60
eigval :      221.10   223.50   236.44   237.94   244.66   251.61
eigval :      262.36   266.25   271.73   278.64   282.34   298.65
eigval :      306.38   314.94   319.10   319.48   324.38   325.91
eigval :      326.67   336.68   338.93   346.30   356.70   356.94
eigval :      359.13   359.77   377.14   384.11   387.78   390.35
eigval :      398.56   400.91   411.61   411.68   423.10   432.65
eigval :      441.97   443.57   443.83   445.04   458.52   460.45
eigval :      464.92   466.23   470.95   476.60   495.38   496.99
eigval :      519.43   519.47   553.86   570.20   576.56   582.27
eigval :      583.18   583.52   594.17   600.59   608.99   625.45
eigval :      630.00   639.93   640.17   647.94   664.79   686.39
eigval :      688.06   688.37   703.86   707.50   708.78   715.38
eigval :      721.75   732.86   736.04   764.95   816.13   817.38
eigval :      821.92   822.34   829.93   832.02   833.12   833.61
eigval :      870.20   871.15   873.93   874.00   877.65   879.52
eigval :      882.12   883.76   899.18   906.98   907.22   913.96
eigval :      914.11   923.06   924.83   925.89   927.60   929.54
eigval :      932.29   935.02   940.67   945.06   960.10   960.16
eigval :      960.45   960.46   962.14   962.71   962.73   962.78
eigval :      963.07   963.12   963.18   963.25   967.08  1015.43
eigval :     1029.00  1032.62  1032.81  1035.82  1035.87  1035.89
eigval :     1035.90  1035.92  1035.98  1040.12  1040.27  1116.54
eigval :     1116.57  1130.44  1130.82  1134.02  1135.81  1143.55
eigval :     1144.07  1175.64  1179.09  1179.23  1182.55  1191.63
eigval :     1211.53  1218.79  1227.94  1228.03  1228.33  1228.35
eigval :     1229.25  1229.72  1232.91  1232.98  1235.83  1236.22
eigval :     1248.33  1249.93  1256.06  1260.64  1261.99  1264.60
eigval :     1267.36  1285.72  1285.94  1301.29  1302.04  1308.29
eigval :     1308.85  1320.40  1325.53  1347.68  1347.87  1361.00
eigval :     1361.37  1375.60  1379.26  1400.63  1401.26  1404.72
eigval :     1404.74  1405.78  1405.99  1406.19  1406.23  1406.31
eigval :     1407.88  1415.71  1416.57  1429.58  1429.69  1429.71
eigval :     1429.74  1437.98  1440.76  1474.88  1475.21  1483.34
eigval :     1483.76  1489.51  1490.86  1492.37  1492.43  1492.46
eigval :     1492.53  1495.02  1495.07  1495.10  1495.18  1501.69
eigval :     1501.85  1502.67  1502.75  1505.68  1505.81  1506.05
eigval :     1506.10  1515.14  1515.25  1515.74  1515.78  1520.71
eigval :     1520.74  1520.80  1520.88  1554.18  1556.78  1572.43
eigval :     1572.60  1581.93  1584.55  1586.59  1589.12  1604.95
eigval :     1605.20  1618.32  1618.79  1685.06  3020.73  3020.96
eigval :     3021.11  3021.52  3022.48  3022.57  3022.74  3023.12
eigval :     3026.70  3026.77  3026.80  3026.82  3029.56  3029.76
eigval :     3029.96  3030.22  3030.86  3030.90  3030.95  3031.01
eigval :     3035.34  3035.41  3035.51  3035.57  3037.77  3037.86
eigval :     3038.13  3038.15  3047.16  3047.39  3047.53  3047.61
eigval :     3050.79  3051.00  3051.17  3051.31  3078.49  3079.91
eigval :     3080.83  3081.06  3082.19  3083.85  3089.72  3090.07
eigval :     3090.23  3090.51  3093.06  3095.10  3095.25  3096.50
eigval :     3099.93  3100.16  3117.40  3117.42  3119.27  3119.68

   temp. (K)  partition function   enthalpy   heat capacity  entropy
                                   cal/mol     cal/K/mol   cal/K/mol   J/K/mol
 298.15  VIB  0.249E+26            32142.715    197.097    200.313
         ROT  0.242E+09              888.752      2.981     41.341
         INT  0.602E+34            33031.467    200.078    241.654
         TR   0.194E+29             1481.254      4.968     45.651
         TOT                       34512.7211   205.0460   287.3054  1202.0859

       T/K    H(0)-H(T)+PV         H(T)/Eh          T*S/Eh         G(T)/Eh
   ------------------------------------------------------------------------
    298.15    0.549995E-01    0.989132E+00    0.136508E+00    0.852624E+00
   ------------------------------------------------------------------------

         :::::::::::::::::::::::::::::::::::::::::::::::::::::
         ::                  THERMODYNAMIC                  ::
         :::::::::::::::::::::::::::::::::::::::::::::::::::::
         :: total free energy        -151.241311564969 Eh   ::
         ::.................................................::
         :: total energy             -152.093935687047 Eh   ::
         :: zero point energy           0.934132677203 Eh   ::
         :: G(RRHO) w/o ZPVE           -0.081508555125 Eh   ::
         :: G(RRHO) contrib.            0.852624122078 Eh   ::
         :::::::::::::::::::::::::::::::::::::::::::::::::::::

           -------------------------------------------------
          | TOTAL ENERGY             -152.093935687047 Eh   |
          | TOTAL ENTHALPY           -151.104803487858 Eh   |
          | TOTAL FREE ENERGY        -151.241311564969 Eh   |
          | GRADIENT NORM               0.000071079639 Eh/α |
          | HOMO-LUMO GAP               1.946683247674 eV   |
           -------------------------------------------------

 * finished run on 2025/08/26 at 04:03:49.446
