   * xtb version 6.7.1 (edcfbbe) compiled by 'albert@albert-system' on 2024-07-22

   ID    Z sym.   atoms
    1    6 C      1-20, 22-26, 28-31, 33-56
    2    7 N      21, 32
    3    8 O      27
    4    1 H      57-112

          program call               : xtb data2507/gas/t–BuCz2BP/t–BuCz2BP_gas_T1_crest.xyz --gfn 2 --spinpol --tblite --uhf 2 --ohess vtight --parallel 40 --molden --ceasefiles --namespace data2507/gas/t–BuCz2BP/t–BuCz2BP_gas_T1_finalOpt
 * total energy  :  -152.0138357 Eh     change       -0.7641364E-07 Eh
 * total energy  :  -152.0138877 Eh     change       -0.5206076E-04 Eh
 * total energy  :  -152.0139056 Eh     change       -0.1785386E-04 Eh
 * total energy  :  -152.0139080 Eh     change       -0.2364118E-05 Eh
 * total energy  :  -152.0139111 Eh     change       -0.3120327E-05 Eh
 * total energy  :  -152.0139160 Eh     change       -0.4952760E-05 Eh
 * total energy  :  -152.0139226 Eh     change       -0.6561258E-05 Eh
 * total energy  :  -152.0139290 Eh     change       -0.6373312E-05 Eh
 * total energy  :  -152.0139358 Eh     change       -0.6791154E-05 Eh
 * total energy  :  -152.0139436 Eh     change       -0.7884742E-05 Eh
 * total energy  :  -152.0140004 Eh     change       -0.1928645E-06 Eh
 * total energy  :  -152.0140009 Eh     change       -0.5381397E-06 Eh
 * total energy  :  -152.0140014 Eh     change       -0.5203242E-06 Eh
 * total energy  :  -152.0140018 Eh     change       -0.4023312E-06 Eh
 * total energy  :  -152.0140018 Eh     change        0.1066107E-07 Eh
 * total energy  :  -152.0140020 Eh     change       -0.1792509E-06 Eh
 * total energy  :  -152.0140022 Eh     change       -0.1575039E-06 Eh
 * total energy  :  -152.0140023 Eh     change       -0.1131306E-06 Eh
 * total energy  :  -152.0140023 Eh     change       -0.4447702E-07 Eh
   *** GEOMETRY OPTIMIZATION CONVERGED AFTER 58 ITERATIONS ***

 final structure:
================
112
 xtb: 6.7.1 (edcfbbe)
C           -6.08040256724956       -5.57310874628024        1.35954723191359
C           -6.83689641597893       -4.45081405938063        2.08486114554071
C           -6.58280441390361       -4.54432472897810        3.59629967017643
C           -8.33481857434976       -4.65433261258148        1.84124397856413
C           -6.33856265084529       -3.10638727014097        1.57799222425744
C           -4.98149776739784       -2.78770273235231        1.72731707253331
C           -4.43921618954101       -1.59618470834263        1.29209483140730
C           -5.28319354268257       -0.68378777413269        0.67440469419679
C           -6.65997840296077       -0.96950470943938        0.53455053188392
C           -7.17790725286319       -2.17525597599487        0.98103772712768
C           -7.25008222580363        0.18422019571150       -0.09098399925158
C           -8.54175819972055        0.48954096666179       -0.49041967496848
C           -8.80293438175348        1.70773907100497       -1.10372721829281
C          -10.19539281290299        2.11035373041069       -1.56342455319160
C          -10.17750963518083        2.33745218415431       -3.08198522596631
C          -10.60560149203303        3.40580771138032       -0.84838033986367
C          -11.24971951797467        1.04365525216425       -1.25480058513578
C           -7.73736701164463        2.59374272179389       -1.31694437875163
C           -6.44263585526738        2.31628499960759       -0.93008656237230
C           -6.19869296113947        1.10652862907134       -0.29421978926283
N           -5.01883516828451        0.57149792804568        0.17274522910733
C           -3.76540714084043        1.19416152063989        0.13879107297411
C           -3.60814419595376        2.50689168661110        0.59768790058533
C           -2.37774852411402        3.10928146725300        0.55921823837626
C           -1.24122054536656        2.41538566695092        0.09284406218937
C            0.02500003430873        3.11757977304813        0.05386824551195
O            0.03427108675708        4.38680050272444        0.05861324216319
C            1.28365066394663        2.40013488257369        0.00375126615770
C            2.42018390120614        3.07439125380368       -0.48893331516739
C            3.63971122663211        2.45185345183823       -0.55151044699691
C            3.78621782318519        1.13931657899679       -0.08860494893896
N            5.02647735570520        0.49366607399101       -0.15529119269844
C            6.23168931172438        1.01324228070167        0.26193467263861
C            6.51918435899954        2.22338523387565        0.87863594282087
C            7.83259556857430        2.48416509067932        1.21022617697229
C            8.87552941240214        1.58101893749466        0.96023595031966
C           10.29206462894529        1.96774764113791        1.35548427352238
C           10.68872992604012        3.24966764315457        0.60901693084769
C           10.34372379465138        2.21081682710360        2.87074937475282
C           11.31687275614340        0.88276583121364        1.01296774452409
C            8.57130645588421        0.36183251518047        0.36923564698191
C            7.26002055197993        0.07312047886891        0.02519729756874
C            6.62842364880910       -1.07572921998386       -0.56784848219665
C            7.11053055825966       -2.29231426433663       -1.02505234055262
C            6.23501316426949       -3.21419193026375       -1.58302770895312
C            6.69295125049666       -4.56949039094704       -2.09898188677129
C            6.37513369871335       -4.67121781046424       -3.59779208319905
C            5.95136589078370       -5.67496611865874       -1.33356526409704
C            8.19671622894802       -4.79256502241613       -1.91604021625736
C            4.87832683898121       -2.87536815588372       -1.68282810324933
C            4.37140603226173       -1.67252236846570       -1.23626035389777
C            5.25195775735309       -0.76930995509446       -0.65736301861551
C            2.68222060031936        0.48315386600884        0.46500258147013
C            1.45801323404278        1.10384794659913        0.52186895730674
C           -1.42459185412476        1.11676705472015       -0.41723139808351
C           -2.65912540503500        0.51562487053999       -0.38250012206689
H           -6.43868528319463       -6.54373767139760        1.69593102303802
H           -6.23903981520324       -5.49964215858064        0.28558789435088
H           -5.01225439337528       -5.52098289485334        1.55022655362165
H           -5.52348771595172       -4.47492243148461        3.82671608235663
H           -6.95298221900873       -5.49277763576849        3.97979570770790
H           -7.09750001029444       -3.73765198146568        4.11418710873139
H           -8.56762265382739       -4.61562294900871        0.77956467882662
H           -8.92249555652232       -3.90362623751619        2.36450544372547
H           -8.63244961554573       -5.63220492663681        2.21440099980567
H           -4.32221687047775       -3.49534471307377        2.20598708596736
H           -3.39230900652626       -1.37893415678279        1.43944123179610
H           -8.23137462861750       -2.36318052613668        0.85809780207256
H           -9.32130194817004       -0.23372539184652       -0.31870725911449
H           -9.49457747092205        3.13623613841962       -3.35676731032733
H           -9.86382688852467        1.42996370926061       -3.59384877224789
H          -11.17234758523282        2.60512292676763       -3.43169395732854
H           -9.92793366341424        4.22167836865328       -1.08295636258410
H          -10.60048087003163        3.25760785808671        0.22953828665342
H          -11.60839692679868        3.69893008878521       -1.15190633778959
H          -12.22358528936175        1.38810151060989       -1.59683185503075
H          -11.31681244653440        0.85729541997354       -0.18539658957408
H          -11.02571960332162        0.11115051818093       -1.76771505271724
H           -7.92392635135205        3.53563765378305       -1.80919702788318
H           -5.64479454341564        3.01497857828723       -1.12966730677802
H           -4.46045067155939        3.02894286350713        1.00752711750794
H           -2.24292340451657        4.12024840299283        0.91214503303113
H            2.29371747367119        4.08509114641494       -0.84562418301498
H            4.49023582311354        2.95743020492695       -0.98492095028708
H            5.74068346925068        2.93548342324113        1.10537127255823
H            8.05292585600671        3.42673607714370        1.68699446405466
H           11.70768362760353        3.53168871251427        0.86560261123898
H           10.63479602348476        3.09022331996800       -0.46596756093511
H           10.03307787205727        4.07747174279307        0.86355805632976
H           11.35663710341330        2.46738576403321        3.17379004381114
H            9.68503331895450        3.02246442209692        3.16623715011845
H           10.03980688140722        1.31342425875641        3.40576471852548
H           11.33546806088145        0.68534330156794       -0.05639914412788
H           11.10169703269345       -0.04145573933662        1.54432476847177
H           12.30932099138959        1.21605852073014        1.30963648964066
H            9.33231109786805       -0.37454908993599        0.17201947738012
H            8.16495218090227       -2.49564303499005       -0.94098298378422
H            6.87815341507443       -3.87535664045780       -4.14314837323112
H            5.30815939593293       -4.58983289152634       -3.78483842006097
H            6.71693257636919       -5.62735494399700       -3.98848477493816
H            6.15642084490403       -5.59618115142543       -0.26787695987637
H            4.87698184853194       -5.60789469693918       -1.47934686266552
H            6.28064781168888       -6.65330797521815       -1.67716882742382
H            8.46511277622894       -5.77688488906248       -2.29439079068510
H            8.47387583457535       -4.75043137426528       -0.86521091611178
H            8.77242999037595       -4.05347297493421       -2.46834566739233
H            4.19039662296456       -3.57585122334176       -2.13072878445844
H            3.32320319480604       -1.44007664608356       -1.34628188467550
H            2.81127253023172       -0.50486131018174        0.88348706032399
H            0.63392520905678        0.60428657201190        1.00812404527489
H           -0.59836244577065        0.60008357396139       -0.88135307012231
H           -2.79428460205653       -0.47401885861756       -0.79524503041202

 projected vibrational frequencies (cm⁻¹)
eigval :       -0.00     0.00     0.00     0.00     0.00     0.00
eigval :        6.66     7.48     8.59    21.67    24.43    30.63
eigval :       30.84    32.14    33.40    33.73    41.87    52.71
eigval :       58.87    72.69    75.68    81.09    81.54    89.19
eigval :      107.07   111.63   117.94   119.14   143.60   158.38
eigval :      159.01   165.65   168.33   180.35   181.25   189.46
eigval :      191.39   195.80   201.23   201.46   218.26   219.14
eigval :      221.29   222.08   229.24   230.41   247.07   248.11
eigval :      257.16   257.21   264.30   273.56   282.36   294.28
eigval :      305.13   315.82   318.19   318.59   322.84   322.91
eigval :      330.82   338.77   338.84   346.40   356.61   356.76
eigval :      357.85   357.89   377.44   385.48   386.74   389.01
eigval :      395.20   400.79   402.16   406.19   406.42   419.40
eigval :      439.82   440.52   441.95   441.98   447.12   455.64
eigval :      465.40   465.81   466.55   467.11   489.78   491.09
eigval :      516.00   517.75   540.90   544.29   572.73   576.89
eigval :      579.47   583.50   584.43   592.61   597.95   608.25
eigval :      625.98   628.57   640.10   640.70   640.81   660.91
eigval :      671.23   690.24   690.27   702.21   707.28   708.46
eigval :      716.82   717.18   727.47   759.35   800.99   813.88
eigval :      823.29   823.47   824.02   826.60   830.75   831.54
eigval :      845.84   862.87   868.71   869.56   869.66   871.97
eigval :      872.96   873.28   887.47   903.78   907.96   910.11
eigval :      914.27   918.01   919.01   920.64   921.95   925.51
eigval :      925.55   930.31   937.35   943.36   948.79   960.33
eigval :      960.34   960.40   960.41   962.88   962.89   963.28
eigval :      963.29   963.41   963.42   963.50   963.51  1003.44
eigval :     1008.45  1030.18  1030.23  1035.02  1035.03  1035.10
eigval :     1035.11  1035.86  1035.87  1040.97  1041.01  1110.34
eigval :     1112.91  1127.78  1128.29  1130.04  1133.99  1138.53
eigval :     1139.68  1158.49  1164.49  1164.87  1165.61  1191.46
eigval :     1204.11  1217.62  1226.44  1226.45  1226.58  1226.59
eigval :     1229.83  1230.24  1230.72  1230.76  1233.18  1233.24
eigval :     1237.70  1241.17  1246.85  1255.35  1257.30  1257.86
eigval :     1263.26  1282.07  1282.72  1294.30  1294.60  1298.86
eigval :     1299.97  1323.74  1329.16  1341.54  1342.24  1349.25
eigval :     1350.40  1366.36  1368.17  1401.95  1401.99  1404.88
eigval :     1404.89  1405.86  1405.90  1405.98  1406.00  1407.04
eigval :     1408.79  1411.80  1414.18  1426.21  1429.43  1429.44
eigval :     1429.54  1429.55  1431.62  1435.72  1455.07  1462.87
eigval :     1463.74  1464.24  1479.60  1479.69  1487.38  1490.44
eigval :     1491.65  1491.66  1491.82  1491.83  1494.20  1494.21
eigval :     1494.33  1494.33  1500.63  1500.64  1500.80  1500.81
eigval :     1504.92  1504.93  1505.11  1505.11  1515.01  1515.03
eigval :     1515.21  1515.22  1519.77  1519.78  1520.51  1520.59
eigval :     1533.09  1559.51  1559.59  1572.08  1573.23  1577.38
eigval :     1579.62  1579.82  1599.93  1603.83  3022.76  3022.78
eigval :     3022.92  3022.94  3024.53  3024.53  3024.66  3024.66
eigval :     3027.65  3027.68  3027.74  3027.75  3030.87  3030.90
eigval :     3030.97  3031.22  3031.91  3031.93  3031.94  3032.09
eigval :     3035.99  3036.01  3036.23  3036.24  3039.05  3039.07
eigval :     3039.12  3039.34  3048.69  3048.73  3049.24  3049.30
eigval :     3051.82  3051.88  3052.45  3052.52  3073.27  3074.15
eigval :     3079.34  3079.85  3085.48  3085.61  3088.06  3088.11
eigval :     3089.39  3091.43  3096.92  3097.23  3099.18  3099.33
eigval :     3099.82  3100.34  3116.62  3116.65  3119.69  3119.77

   temp. (K)  partition function   enthalpy   heat capacity  entropy
                                   cal/mol     cal/K/mol   cal/K/mol   J/K/mol
 298.15  VIB  0.168E+26            32314.791    198.508    200.629
         ROT  0.241E+09              888.752      2.981     41.333
         INT  0.405E+34            33203.543    201.489    241.962
         TR   0.194E+29             1481.254      4.968     45.651
         TOT                       34684.7973   206.4575   287.6131  1203.3734

       T/K    H(0)-H(T)+PV         H(T)/Eh          T*S/Eh         G(T)/Eh
   ------------------------------------------------------------------------
    298.15    0.552737E-01    0.985977E+00    0.136654E+00    0.849323E+00
   ------------------------------------------------------------------------

         :::::::::::::::::::::::::::::::::::::::::::::::::::::
         ::                  THERMODYNAMIC                  ::
         :::::::::::::::::::::::::::::::::::::::::::::::::::::
         :: total free energy        -151.164679587983 Eh   ::
         ::.................................................::
         :: total energy             -152.014002395267 Eh   ::
         :: zero point energy           0.930703351859 Eh   ::
         :: G(RRHO) w/o ZPVE           -0.081380544576 Eh   ::
         :: G(RRHO) contrib.            0.849322807283 Eh   ::
         :::::::::::::::::::::::::::::::::::::::::::::::::::::

           -------------------------------------------------
          | TOTAL ENERGY             -152.014002395267 Eh   |
          | TOTAL ENTHALPY           -151.028025300613 Eh   |
          | TOTAL FREE ENERGY        -151.164679587983 Eh   |
          | GRADIENT NORM               0.000103303602 Eh/α |
           -------------------------------------------------

 * finished run on 2025/08/26 at 05:00:36.131
