   * xtb version 6.7.1 (edcfbbe) compiled by 'albert@albert-system' on 2024-07-22

   ID    Z sym.   atoms
    1    8 O      1, 3, 22
    2   16 S      2
    3    6 C      4-7, 9-14, 16-21, 23-29
    4    7 N      8, 15
    5    1 H      30-45

          program call               : xtb data2507/gas/PSPP/PSPP_gas_S0_crest.xyz --gfn 2 --ohess vtight --parallel 40 --molden --ceasefiles --namespace data2507/gas/PSPP/PSPP_gas_S0_finalOpt
          :  Hamiltonian                  GFN2-xTB          :
 * total energy  :   -78.6805525 Eh     change       -0.5053948E-09 Eh
 * total energy  :   -78.6805531 Eh     change       -0.6079112E-06 Eh
 * total energy  :   -78.6805537 Eh     change       -0.5690253E-06 Eh
 * total energy  :   -78.6805548 Eh     change       -0.1168248E-05 Eh
 * total energy  :   -78.6805555 Eh     change       -0.6480080E-06 Eh
 * total energy  :   -78.6805560 Eh     change       -0.5226485E-06 Eh
 * total energy  :   -78.6805564 Eh     change       -0.3756593E-06 Eh
 * total energy  :   -78.6805566 Eh     change       -0.1843672E-06 Eh
 * total energy  :   -78.6805568 Eh     change       -0.2204535E-06 Eh
 * total energy  :   -78.6805572 Eh     change       -0.4424903E-06 Eh
 * total energy  :   -78.6805579 Eh     change       -0.6898773E-06 Eh
 * total energy  :   -78.6805587 Eh     change       -0.7449921E-06 Eh
 * total energy  :   -78.6805592 Eh     change       -0.5558286E-06 Eh
 * total energy  :   -78.6805596 Eh     change       -0.3899207E-06 Eh
 * total energy  :   -78.6805599 Eh     change       -0.2704192E-06 Eh
 * total energy  :   -78.6805600 Eh     change       -0.1395852E-06 Eh
 * total energy  :   -78.6805601 Eh     change       -0.7911882E-07 Eh
   *** GEOMETRY OPTIMIZATION CONVERGED AFTER 17 ITERATIONS ***

 final structure:
================
45
 xtb: 6.7.1 (edcfbbe)
O            2.86484509934984        1.67881222384958       -2.12394389904730
S            3.10650640998904        1.51478900002733       -0.71622102951754
O            4.16448818013451        2.27013308107754       -0.10532263490649
C            3.34601605491799       -0.23876003975179       -0.38912961325356
C            3.13618218198520       -1.17209752506413       -1.38782785581801
C            3.24248168511116       -2.51510609156183       -1.06103765425849
C            3.54615808730978       -2.84383492075310        0.25324086809151
N            3.74637222022140       -1.94779094840034        1.20611984379282
C            3.64974096927640       -0.66900307736353        0.89154116969683
C            1.58378090430876        1.78606848829058        0.19782846803762
C            1.52940890015530        2.67061143136637        1.25594830242930
C            0.35598058787479        2.76116429485185        1.99011931008068
C           -0.72282305158237        1.94966466288987        1.68598680914573
C           -0.65619300769951        1.05517122400111        0.61753018514489
N           -1.72656969319471        0.19380730597352        0.32493238739716
C           -2.98230062171052        0.69730523170193       -0.03704961379310
C           -3.23807356329131        2.05884396199313       -0.13210038288301
C           -4.49607305224558        2.52172440611779       -0.48748395129204
C           -5.51442150377737        1.63256153026925       -0.76500560987223
C           -5.26458093961877        0.26971013271618       -0.71081430904041
C           -4.01099176457913       -0.19666477209672       -0.35995798095581
O           -3.83117006622259       -1.55739238989279       -0.36593190809397
C           -2.58772762178594       -2.03488584276668       -0.04245228029045
C           -2.42078555601581       -3.40764940554521       -0.06413799748111
C           -1.20485268364048       -3.97214750453382        0.29079669534458
C           -0.16716235188535       -3.15406461659002        0.68846587734566
C           -0.32817765722153       -1.77690196567587        0.70727936168348
C           -1.52683153795199       -1.19240824315519        0.31665890722364
C            0.50903946527925        0.99344498238975       -0.14249047770805
H            2.90319714167023       -0.83212570004262       -2.38581974760220
H            3.08954178840655       -3.28369287594618       -1.80184355817253
H            3.63755631520155       -3.87619673348881        0.56409204047204
H            3.82390787864775        0.04499436266922        1.68473450856406
H            2.39896613195230        3.26467965901597        1.48639939874657
H            0.29036052945638        3.44929251834854        2.81888217470440
H           -1.62147436054228        1.99169231170185        2.28320872801076
H           -2.44647983969350        2.76566240108569        0.06032367210353
H           -4.66757763481369        3.58518634462029       -0.54843566349356
H           -6.49596557824125        1.98742630909384       -1.03606133458886
H           -6.03013685133084       -0.45242345126145       -0.94502698678560
H           -3.26038785642550       -4.01795202338874       -0.35572936443615
H           -1.08392986722625       -5.04345399328016        0.26831351687326
H            0.77855056115866       -3.57318450553669        0.99567525574083
H            0.48906558873880       -1.15772849756007        1.04383748118375
H            0.57966361965070        0.32877973060462       -0.98986991952255

          :  Hamiltonian                  GFN2-xTB          :
         :: gradient norm              0.000044032393 Eh/a0 ::
         :: HOMO-LUMO gap              1.896848172512 eV    ::
         :: SCC energy               -79.915301436201 Eh    ::
         :: -> dispersion             -0.064031029558 Eh    ::
         :: repulsion energy           1.234741324275 Eh    ::

    * Orbital Energies and Occupations

         #    Occupation            Energy/Eh            Energy/eV
      -------------------------------------------------------------
         1        2.0000           -0.7796223             -21.2146
       ...           ...                  ...                  ...
        59        2.0000           -0.4473303             -12.1725
        60        2.0000           -0.4444276             -12.0935
        61        2.0000           -0.4436045             -12.0711
        62        2.0000           -0.4420592             -12.0290
        63        2.0000           -0.4399095             -11.9705
        64        2.0000           -0.4346862             -11.8284
        65        2.0000           -0.4325600             -11.7706
        66        2.0000           -0.4241611             -11.5420
        67        2.0000           -0.4211275             -11.4595
        68        2.0000           -0.4195508             -11.4166
        69        2.0000           -0.3986594             -10.8481
        70        2.0000           -0.3927966             -10.6885
        71        2.0000           -0.3530956              -9.6082 (HOMO)
        72                         -0.2833876              -7.7114 (LUMO)
        73                         -0.2735121              -7.4426
        74                         -0.2655891              -7.2270
        75                         -0.2612344              -7.1086
        76                         -0.2467393              -6.7141
        77                         -0.2381277              -6.4798
        78                         -0.2226547              -6.0587
        79                         -0.2043738              -5.5613
        80                         -0.1580437              -4.3006
        81                         -0.1412586              -3.8438
        82                         -0.1272839              -3.4636
       ...                                ...                  ...
       137                          1.2093434              32.9079
      -------------------------------------------------------------
                  HL-Gap            0.0697080 Eh            1.8969 eV

     #   Z          covCN         q      C6AA      α(0)
     1   8 O        0.860    -0.535    24.576     6.647
     2  16 S        3.812     0.955   107.962    17.488
     3   8 O        0.860    -0.532    24.504     6.637
     4   6 C        2.964    -0.087    30.169     9.009
     5   6 C        2.959    -0.006    28.173     8.706
     6   6 C        2.916    -0.031    28.784     8.798
     7   6 C        2.913     0.064    26.575     8.453
     8   7 N        1.837    -0.197    26.105     7.572
     9   6 C        2.944     0.062    26.616     8.461
    10   6 C        2.971    -0.075    29.875     8.965
    11   6 C        2.947    -0.029    28.724     8.790
    12   6 C        2.922    -0.023    28.576     8.766
    13   6 C        2.921    -0.038    28.949     8.823
    14   6 C        2.922     0.075    26.332     8.415
    15   7 N        2.751    -0.069    22.575     7.057
    16   6 C        2.921     0.042    27.064     8.531
    17   6 C        2.924    -0.059    29.476     8.903
    18   6 C        2.919    -0.037    28.932     8.821
    19   6 C        2.919    -0.038    28.957     8.824
    20   6 C        2.920    -0.055    29.363     8.886
    21   6 C        2.884     0.126    25.243     8.237
    22   8 O        1.709    -0.250    18.149     5.752
    23   6 C        2.884     0.127    25.217     8.233
    24   6 C        2.920    -0.056    29.380     8.889
    25   6 C        2.919    -0.039    28.966     8.826
    26   6 C        2.919    -0.039    28.981     8.828
    27   6 C        2.924    -0.060    29.498     8.907
    28   6 C        2.922     0.041    27.074     8.533
    29   6 C        2.977    -0.043    29.063     8.843
    30   1 H        0.926     0.069     2.101     2.267
    31   1 H        0.926     0.058     2.228     2.334
    32   1 H        0.925     0.059     2.213     2.326
    33   1 H        0.925     0.057     2.233     2.337
    34   1 H        0.926     0.070     2.090     2.261
    35   1 H        0.926     0.058     2.217     2.328
    36   1 H        0.926     0.059     2.207     2.323
    37   1 H        0.926     0.036     2.498     2.471
    38   1 H        0.926     0.040     2.448     2.447
    39   1 H        0.926     0.042     2.420     2.432
    40   1 H        0.926     0.054     2.270     2.356
    41   1 H        0.926     0.055     2.254     2.348
    42   1 H        0.926     0.042     2.418     2.432
    43   1 H        0.926     0.036     2.507     2.476
    44   1 H        0.926     0.024     2.675     2.558
    45   1 H        0.926     0.051     2.305     2.374

molecular dipole:
                 x           y           z       tot (Debye)
 q only:       -1.333      -1.029       0.961
   full:       -1.267      -0.864       0.627       4.210

 projected vibrational frequencies (cm⁻¹)
eigval :       -0.00    -0.00    -0.00    -0.00     0.00     0.00
eigval :       10.34    23.02    26.19    33.28    44.76    52.72
eigval :       68.24   101.37   114.86   122.79   137.68   185.37
eigval :      201.80   229.73   246.42   255.31   261.52   275.57
eigval :      286.40   292.53   322.66   342.63   357.53   386.49
eigval :      396.84   412.16   427.88   433.35   441.83   451.13
eigval :      495.25   510.35   516.36   525.53   529.51   568.49
eigval :      572.85   594.99   601.56   632.06   659.73   661.83
eigval :      668.30   671.02   686.11   705.66   731.98   779.31
eigval :      780.40   783.66   799.59   809.15   856.15   865.98
eigval :      867.51   891.12   897.94   901.41   902.63   907.61
eigval :      916.08   917.95   918.62   924.36   932.76   934.21
eigval :      935.60   993.04   995.68  1080.68  1090.40  1091.93
eigval :     1095.46  1106.42  1109.05  1110.85  1119.57  1128.67
eigval :     1139.21  1171.23  1172.93  1175.04  1183.91  1188.60
eigval :     1202.83  1221.20  1237.90  1238.97  1245.25  1252.17
eigval :     1262.79  1278.82  1305.74  1309.71  1315.05  1337.56
eigval :     1353.04  1389.85  1413.83  1425.66  1427.58  1440.72
eigval :     1456.06  1487.65  1503.86  1554.13  1555.12  1568.36
eigval :     1574.27  1580.50  1588.83  1592.90  1602.86  3064.59
eigval :     3072.65  3089.04  3089.47  3089.71  3092.25  3097.10
eigval :     3098.56  3099.60  3101.29  3102.95  3105.14  3108.11
eigval :     3114.23  3114.82  3115.35

   temp. (K)  partition function   enthalpy   heat capacity  entropy
                                   cal/mol     cal/K/mol   cal/K/mol   J/K/mol
 298.15  VIB  0.149E+11            13165.166     83.123     81.072
         ROT  0.157E+08              888.752      2.981     35.905
         INT  0.233E+18            14053.919     86.104    116.977
         TR   0.775E+28             1481.254      4.968     43.834
         TOT                       15535.1725    91.0722   160.8106   672.8315

       T/K    H(0)-H(T)+PV         H(T)/Eh          T*S/Eh         G(T)/Eh
   ------------------------------------------------------------------------
    298.15    0.247569E-01    0.352874E+00    0.764063E-01    0.276468E+00
   ------------------------------------------------------------------------

         :::::::::::::::::::::::::::::::::::::::::::::::::::::
         ::                  THERMODYNAMIC                  ::
         :::::::::::::::::::::::::::::::::::::::::::::::::::::
         :: total free energy         -78.404092539960 Eh   ::
         ::.................................................::
         :: total energy              -78.680560111924 Eh   ::
         :: zero point energy           0.328116996202 Eh   ::
         :: G(RRHO) w/o ZPVE           -0.051649424238 Eh   ::
         :: G(RRHO) contrib.            0.276467571964 Eh   ::
         :::::::::::::::::::::::::::::::::::::::::::::::::::::

           -------------------------------------------------
          | TOTAL ENERGY              -78.680560111924 Eh   |
          | TOTAL ENTHALPY            -78.327686242565 Eh   |
          | TOTAL FREE ENERGY         -78.404092539960 Eh   |
          | GRADIENT NORM               0.000044073919 Eh/α |
          | HOMO-LUMO GAP               1.896851305498 eV   |
           -------------------------------------------------

 * finished run on 2025/08/24 at 14:27:24.446
