   * xtb version 6.7.1 (edcfbbe) compiled by 'albert@albert-system' on 2024-07-22

   ID    Z sym.   atoms
    1    8 O      1, 3, 22
    2   16 S      2
    3    6 C      4-7, 9-14, 16-21, 23-29
    4    7 N      8, 15
    5    1 H      30-45

          program call               : xtb data2507/gas/PSPP/PSPP.xyz --gfn 2 --ohess vtight --parallel 40 --molden --ceasefiles --namespace data2507/gas/PSPP/PSPP_gas_S0_preOpt
          :  Hamiltonian                  GFN2-xTB          :
 * total energy  :   -78.6663020 Eh     change       -0.7146639E-09 Eh
 * total energy  :   -78.6746961 Eh     change       -0.8394113E-02 Eh
 * total energy  :   -78.6770536 Eh     change       -0.2357435E-02 Eh
 * total energy  :   -78.6774629 Eh     change       -0.4093463E-03 Eh
 * total energy  :   -78.6776407 Eh     change       -0.1777624E-03 Eh
 * total energy  :   -78.6776954 Eh     change       -0.5469869E-04 Eh
 * total energy  :   -78.6777455 Eh     change       -0.5014852E-04 Eh
 * total energy  :   -78.6777997 Eh     change       -0.5420947E-04 Eh
 * total energy  :   -78.6778398 Eh     change       -0.4008760E-04 Eh
 * total energy  :   -78.6779144 Eh     change       -0.7455659E-04 Eh
 * total energy  :   -78.6802556 Eh     change       -0.6727498E-06 Eh
 * total energy  :   -78.6802562 Eh     change       -0.5790601E-06 Eh
 * total energy  :   -78.6802567 Eh     change       -0.5667947E-06 Eh
 * total energy  :   -78.6802571 Eh     change       -0.4057509E-06 Eh
 * total energy  :   -78.6802575 Eh     change       -0.3236548E-06 Eh
 * total energy  :   -78.6802578 Eh     change       -0.3029814E-06 Eh
 * total energy  :   -78.6802581 Eh     change       -0.3066172E-06 Eh
 * total energy  :   -78.6802585 Eh     change       -0.4248051E-06 Eh
 * total energy  :   -78.6802585 Eh     change       -0.6211920E-08 Eh
   *** GEOMETRY OPTIMIZATION CONVERGED AFTER 94 ITERATIONS ***

 final structure:
================
45
 xtb: 6.7.1 (edcfbbe)
O            3.87783027335247       -2.81551395061314       -1.36073398756268
S            2.96863059693064       -1.71550134432126       -1.53456302925567
O            2.46815152440577       -1.42407501367144       -2.84876681260937
C            3.73037531640392       -0.23055986114881       -0.86065158143686
C            4.74555516971898       -0.34687407451442        0.07151844254699
C            5.25195293172240        0.81288509411459        0.63690347124947
C            4.69668948352363        2.02467576689372        0.24694751206340
N            3.72863593816071        2.13233510705850       -0.64798438818320
C            3.25820974978696        1.02732969891871       -1.19800160542534
C            1.59327486808726       -1.88503228536424       -0.39344077049387
C            1.69227727492902       -2.72075207728555        0.70166142704811
C            0.66325172888255       -2.72642964068555        1.63108560999421
C           -0.42000962914008       -1.87895842449357        1.47816565578566
C           -0.51060482675260       -1.03656948922794        0.36930942894443
N           -1.58724949100632       -0.14825940663336        0.22539107373008
C           -1.35109571687429        1.22703743668648        0.08608412257314
C           -0.08080663810188        1.78142134586618        0.18180475441838
C            0.11799117599049        3.14507724980666        0.02889927540428
C           -0.95519533182325        3.98213245155366       -0.20042755437682
C           -2.23569400938711        3.45243664198998       -0.25115214161021
C           -2.43686906251774        2.09209734554836       -0.10165361833397
O           -3.73575930369991        1.65173416166028       -0.12513570472764
C           -3.94981561218187        0.30115849859044       -0.01895475420648
C           -5.26112977183012       -0.13180009373414       -0.09489265851394
C           -5.55665288241812       -1.48507054143933       -0.03416345091273
C           -4.52981853902780       -2.40026060034108        0.07874296406414
C           -3.21366918224041       -1.97104069296828        0.15846669113125
C           -2.90410270043110       -0.61731930683461        0.13947387896039
C            0.50603167356353       -1.06045214489189       -0.58347467481266
H            5.12215924254579       -1.32709948507548        0.32159552706191
H            6.05034649732721        0.77871290862007        1.36120471778518
H            5.04412763959343        2.95911189843821        0.66719295422696
H            2.48408121680471        1.14557828135348       -1.94278508336927
H            2.55852526533430       -3.35449623225641        0.80158908137394
H            0.71607892311850       -3.37674730877788        2.49082224798876
H           -1.20135747012749       -1.85538125529766        2.22318647756693
H            0.76926629212745        1.14864584885266        0.38521751601501
H            1.12195669540753        3.53548463239306        0.08809700631059
H           -0.80833711009892        5.04275046403073       -0.32785998525413
H           -3.09889797880939        4.08037159471858       -0.40343762989594
H           -6.03645089786815        0.60871634682725       -0.20870119791133
H           -6.58237685900526       -1.81322260905257       -0.09005510682456
H           -4.74066519812962       -3.45818951552872        0.10148878346610
H           -2.42073801579939       -2.69935471666041        0.22343963285697
H            0.45189374954198       -0.45072870309767       -1.47145351682296

          :  Hamiltonian                  GFN2-xTB          :
         :: gradient norm              0.000058569248 Eh/a0 ::
         :: HOMO-LUMO gap              1.761508210017 eV    ::
         :: SCC energy               -79.914834396650 Eh    ::
         :: -> dispersion             -0.063011760170 Eh    ::
         :: repulsion energy           1.234575886414 Eh    ::

    * Orbital Energies and Occupations

         #    Occupation            Energy/Eh            Energy/eV
      -------------------------------------------------------------
         1        2.0000           -0.7791336             -21.2013
       ...           ...                  ...                  ...
        59        2.0000           -0.4437335             -12.0746
        60        2.0000           -0.4431981             -12.0600
        61        2.0000           -0.4424016             -12.0384
        62        2.0000           -0.4399758             -11.9723
        63        2.0000           -0.4390498             -11.9472
        64        2.0000           -0.4323831             -11.7657
        65        2.0000           -0.4292476             -11.6804
        66        2.0000           -0.4202738             -11.4362
        67        2.0000           -0.4190074             -11.4018
        68        2.0000           -0.4172649             -11.3544
        69        2.0000           -0.3952281             -10.7547
        70        2.0000           -0.3922449             -10.6735
        71        2.0000           -0.3499046              -9.5214 (HOMO)
        72                         -0.2851702              -7.7599 (LUMO)
        73                         -0.2747607              -7.4766
        74                         -0.2609811              -7.1017
        75                         -0.2597278              -7.0676
        76                         -0.2429449              -6.6109
        77                         -0.2343620              -6.3773
        78                         -0.2191971              -5.9647
        79                         -0.2007172              -5.4618
        80                         -0.1586589              -4.3173
        81                         -0.1368093              -3.7228
        82                         -0.1264910              -3.4420
       ...                                ...                  ...
       137                          1.2039652              32.7616
      -------------------------------------------------------------
                  HL-Gap            0.0647344 Eh            1.7615 eV

     #   Z          covCN         q      C6AA      α(0)
     1   8 O        0.860    -0.533    24.539     6.642
     2  16 S        3.811     0.953   107.999    17.491
     3   8 O        0.860    -0.533    24.528     6.640
     4   6 C        2.963    -0.089    30.223     9.017
     5   6 C        2.963    -0.009    28.234     8.716
     6   6 C        2.916    -0.033    28.819     8.803
     7   6 C        2.913     0.062    26.610     8.459
     8   7 N        1.837    -0.198    26.115     7.573
     9   6 C        2.939     0.063    26.582     8.456
    10   6 C        2.971    -0.077    29.926     8.973
    11   6 C        2.951    -0.033    28.824     8.806
    12   6 C        2.921    -0.024    28.614     8.772
    13   6 C        2.922    -0.039    28.975     8.827
    14   6 C        2.922     0.075    26.333     8.415
    15   7 N        2.751    -0.068    22.565     7.055
    16   6 C        2.921     0.041    27.090     8.535
    17   6 C        2.924    -0.059    29.463     8.901
    18   6 C        2.919    -0.038    28.956     8.824
    19   6 C        2.919    -0.038    28.936     8.821
    20   6 C        2.920    -0.055    29.370     8.887
    21   6 C        2.884     0.126    25.228     8.234
    22   8 O        1.709    -0.251    18.157     5.753
    23   6 C        2.884     0.126    25.233     8.235
    24   6 C        2.920    -0.055    29.372     8.887
    25   6 C        2.919    -0.039    28.963     8.825
    26   6 C        2.919    -0.038    28.944     8.822
    27   6 C        2.924    -0.060    29.483     8.904
    28   6 C        2.921     0.042    27.070     8.532
    29   6 C        2.972    -0.043    29.065     8.843
    30   1 H        0.926     0.065     2.137     2.286
    31   1 H        0.926     0.056     2.242     2.342
    32   1 H        0.925     0.059     2.212     2.326
    33   1 H        0.926     0.065     2.143     2.289
    34   1 H        0.926     0.064     2.152     2.294
    35   1 H        0.926     0.056     2.250     2.346
    36   1 H        0.926     0.058     2.224     2.332
    37   1 H        0.926     0.024     2.673     2.557
    38   1 H        0.926     0.047     2.359     2.402
    39   1 H        0.926     0.043     2.405     2.425
    40   1 H        0.926     0.054     2.266     2.354
    41   1 H        0.926     0.054     2.276     2.359
    42   1 H        0.926     0.041     2.431     2.438
    43   1 H        0.926     0.039     2.463     2.454
    44   1 H        0.926     0.035     2.513     2.479
    45   1 H        0.926     0.064     2.153     2.295

molecular dipole:
                 x           y           z       tot (Debye)
 q only:       -0.349       0.744       2.059
   full:       -0.068       0.316       2.145       5.515

 projected vibrational frequencies (cm⁻¹)
eigval :       -0.00    -0.00    -0.00     0.00     0.00     0.00
eigval :       11.59    19.55    26.53    38.60    46.77    52.59
eigval :       71.01   105.64   115.85   130.01   134.17   184.52
eigval :      203.96   226.24   247.69   257.39   260.75   275.01
eigval :      289.50   297.43   321.75   351.98   364.77   387.13
eigval :      396.05   413.09   419.19   431.69   442.02   449.98
eigval :      490.96   510.16   517.67   525.88   529.77   568.61
eigval :      572.64   594.71   600.98   632.34   659.69   661.82
eigval :      668.07   671.25   686.56   704.81   731.88   778.85
eigval :      781.48   781.77   800.11   809.38   856.27   866.82
eigval :      867.59   894.36   897.17   902.26   905.05   910.65
eigval :      915.73   917.61   921.10   924.29   929.97   933.27
eigval :      935.74   992.73   994.49  1081.12  1090.17  1091.45
eigval :     1093.02  1107.28  1108.93  1110.38  1119.86  1127.65
eigval :     1140.15  1171.82  1172.53  1175.02  1184.24  1188.70
eigval :     1202.87  1220.01  1235.01  1238.80  1245.16  1253.60
eigval :     1262.70  1277.36  1305.69  1309.57  1314.85  1336.51
eigval :     1352.21  1389.76  1414.04  1425.77  1427.18  1440.05
eigval :     1454.97  1486.94  1503.43  1553.03  1553.47  1568.98
eigval :     1573.68  1580.20  1588.41  1592.41  1602.35  3066.18
eigval :     3080.32  3088.58  3090.84  3091.10  3091.36  3098.04
eigval :     3098.58  3100.49  3101.92  3106.53  3107.32  3109.10
eigval :     3113.78  3114.45  3114.98

   temp. (K)  partition function   enthalpy   heat capacity  entropy
                                   cal/mol     cal/K/mol   cal/K/mol   J/K/mol
 298.15  VIB  0.115E+11            13134.207     83.256     80.790
         ROT  0.163E+08              888.752      2.981     35.988
         INT  0.188E+18            14022.959     86.237    116.777
         TR   0.775E+28             1481.254      4.968     43.834
         TOT                       15504.2130    91.2049   160.6108   671.9956

       T/K    H(0)-H(T)+PV         H(T)/Eh          T*S/Eh         G(T)/Eh
   ------------------------------------------------------------------------
    298.15    0.247075E-01    0.352905E+00    0.763114E-01    0.276593E+00
   ------------------------------------------------------------------------

         :::::::::::::::::::::::::::::::::::::::::::::::::::::
         ::                  THERMODYNAMIC                  ::
         :::::::::::::::::::::::::::::::::::::::::::::::::::::
         :: total free energy         -78.403665315009 Eh   ::
         ::.................................................::
         :: total energy              -78.680258510232 Eh   ::
         :: zero point energy           0.328197038911 Eh   ::
         :: G(RRHO) w/o ZPVE           -0.051603843688 Eh   ::
         :: G(RRHO) contrib.            0.276593195223 Eh   ::
         :::::::::::::::::::::::::::::::::::::::::::::::::::::

           -------------------------------------------------
          | TOTAL ENERGY              -78.680258510232 Eh   |
          | TOTAL ENTHALPY            -78.327353935230 Eh   |
          | TOTAL FREE ENERGY         -78.403665315009 Eh   |
          | GRADIENT NORM               0.000058524748 Eh/α |
          | HOMO-LUMO GAP               1.761511565851 eV   |
           -------------------------------------------------

 * finished run on 2025/08/24 at 14:25:18.034
