   * xtb version 6.7.1 (edcfbbe) compiled by 'albert@albert-system' on 2024-07-22

   ID    Z sym.   atoms
    1    8 O      1, 3, 22
    2   16 S      2
    3    6 C      4-7, 9-14, 16-21, 23-29
    4    7 N      8, 15
    5    1 H      30-45

          program call               : xtb data2507/gas/PSPP/PSPP_gas_S0_finalOpt.xtbopt.xyz --gfn 2 --spinpol --tblite --uhf 2 --ohess vtight --parallel 40 --molden --ceasefiles --namespace data2507/gas/PSPP/PSPP_gas_T1_preOpt
 * total energy  :   -78.5830891 Eh     change        0.1031920E-07 Eh
 * total energy  :   -78.5881396 Eh     change       -0.5050441E-02 Eh
 * total energy  :   -78.5900327 Eh     change       -0.1893156E-02 Eh
 * total energy  :   -78.5901920 Eh     change       -0.1592917E-03 Eh
 * total energy  :   -78.5903177 Eh     change       -0.1256481E-03 Eh
 * total energy  :   -78.5903647 Eh     change       -0.4709519E-04 Eh
 * total energy  :   -78.5904590 Eh     change       -0.9423392E-04 Eh
 * total energy  :   -78.5905141 Eh     change       -0.5515475E-04 Eh
 * total energy  :   -78.5905476 Eh     change       -0.3351064E-04 Eh
 * total energy  :   -78.5905841 Eh     change       -0.3642903E-04 Eh
 * total energy  :   -78.5909709 Eh     change       -0.3429872E-06 Eh
 * total energy  :   -78.5909712 Eh     change       -0.3108029E-06 Eh
 * total energy  :   -78.5909714 Eh     change       -0.2347109E-06 Eh
 * total energy  :   -78.5909717 Eh     change       -0.2887408E-06 Eh
 * total energy  :   -78.5909721 Eh     change       -0.3742421E-06 Eh
 * total energy  :   -78.5909727 Eh     change       -0.6011392E-06 Eh
 * total energy  :   -78.5909735 Eh     change       -0.8414272E-06 Eh
 * total energy  :   -78.5909746 Eh     change       -0.1048481E-05 Eh
 * total energy  :   -78.5909746 Eh     change       -0.8111698E-08 Eh
   *** GEOMETRY OPTIMIZATION CONVERGED AFTER 68 ITERATIONS ***

 final structure:
================
45
 xtb: 6.7.1 (edcfbbe)
O            2.62149409800303        1.47213265710129       -2.38480372141747
S            3.00223006956848        1.52051781640624       -0.99661458562751
O            4.01098306955413        2.45814423987417       -0.58406800999962
C            3.42488339981847       -0.12582262961912       -0.45823523233038
C            2.97368624099199       -1.22929133399312       -1.17753838601278
C            3.17030478838908       -2.48641353375734       -0.63518627840546
C            3.79730759513059       -2.57968005631609        0.60116164958749
N            4.23126411669687       -1.52372236069801        1.28507589646157
C            4.04750281136132       -0.32781417650576        0.76597089891684
C            1.54537000094462        1.74708553813899        0.00804137811447
C            1.59231830417945        2.48679175304475        1.18621035366969
C            0.50483163039915        2.48371156533792        2.03483204798539
C           -0.62031882484510        1.71946700801921        1.73792680286189
C           -0.64603892334691        0.96965528009898        0.55872546685001
N           -1.76073965092320        0.13995621960155        0.26571895536993
C           -2.97281066850856        0.69805744235875       -0.04942534273769
C           -3.18439961894265        2.08185608262650       -0.11792323180877
C           -4.41977758389787        2.58555360639295       -0.43198463846409
C           -5.50443682860895        1.71787774906755       -0.70462633870773
C           -5.32112859071281        0.35765025279808       -0.67790014088039
C           -4.07333653783381       -0.17841680255261       -0.36285262682998
O           -3.92265793608737       -1.51673291266637       -0.38006895277233
C           -2.72223504149012       -2.05192703785905       -0.08433197040174
C           -2.58385840776545       -3.43830853362324       -0.11391371571289
C           -1.38541979376341       -4.02358925847728        0.21230732935912
C           -0.28644324488045       -3.21880781654275        0.60021285286654
C           -0.39610521222294       -1.85371756313258        0.62910847463386
C           -1.59650368946797       -1.22230524027824        0.27037584859002
C            0.42691690277656        0.98991236669180       -0.31219828326297
H            2.50275884214159       -1.07679905291400       -2.13624278153543
H            2.84441694172108       -3.37351485251499       -1.15609270857896
H            3.96887212658239       -3.53704004740030        1.07373578091642
H            4.41182252288396        0.51656549298999        1.33462667455195
H            2.48412431721852        3.05324503337305        1.40008518042084
H            0.52545971138678        3.06166182983124        2.94580480516125
H           -1.46188970234056        1.68676309108908        2.41187572319621
H           -2.35745548661650        2.74681750585027        0.07587398729103
H           -4.56943633937854        3.65173964928716       -0.47954487623422
H           -6.46975201552704        2.13103494916858       -0.94629167579583
H           -6.12456294302935       -0.32612570145611       -0.90179616248323
H           -3.44291266396890       -4.02704528326594       -0.39450032731335
H           -1.27935789161872       -5.09544649969825        0.18713448782284
H            0.64398127734326       -3.68528276749596        0.87981258743894
H            0.44616936462807       -1.25198139687010        0.93352755947597
H            0.41198045821314        0.42972711780826       -1.23372340429616

 projected vibrational frequencies (cm⁻¹)
eigval :       -0.00     0.00     0.00     0.00     0.00     0.00
eigval :       10.14    21.76    30.74    36.09    47.69    65.36
eigval :       71.69    96.26   106.94   123.84   133.13   179.86
eigval :      193.94   216.47   231.53   248.57   258.59   277.37
eigval :      296.09   297.54   325.76   351.46   363.62   370.98
eigval :      387.66   400.71   405.91   409.02   422.97   435.69
eigval :      451.08   476.21   501.14   505.77   517.18   558.92
eigval :      569.89   581.75   591.92   614.33   616.95   625.75
eigval :      645.24   654.48   670.74   700.83   715.78   742.21
eigval :      743.09   766.99   770.41   797.26   836.93   837.48
eigval :      840.35   853.55   873.48   886.69   889.38   890.16
eigval :      891.03   893.36   895.74   900.11   914.49   917.28
eigval :      919.13   977.45   985.65  1033.56  1046.18  1073.37
eigval :     1077.01  1088.62  1103.96  1113.18  1118.33  1120.48
eigval :     1124.86  1158.09  1162.82  1166.99  1175.65  1177.79
eigval :     1188.73  1224.32  1230.54  1238.52  1243.48  1246.83
eigval :     1259.66  1290.84  1305.49  1315.99  1326.46  1328.38
eigval :     1341.23  1372.14  1376.78  1381.27  1414.70  1416.53
eigval :     1419.55  1426.88  1440.11  1442.67  1452.77  1464.28
eigval :     1467.64  1475.66  1491.72  1506.26  1557.50  3066.73
eigval :     3072.08  3086.70  3092.07  3097.18  3097.58  3100.41
eigval :     3102.81  3103.07  3103.53  3105.27  3110.62  3111.22
eigval :     3114.21  3118.82  3119.04

   temp. (K)  partition function   enthalpy   heat capacity  entropy
                                   cal/mol     cal/K/mol   cal/K/mol   J/K/mol
 298.15  VIB  0.149E+11            13465.986     85.650     82.820
         ROT  0.158E+08              888.752      2.981     35.915
         INT  0.235E+18            14354.738     88.631    118.735
         TR   0.775E+28             1481.254      4.968     43.834
         TOT                       15835.9924    93.5994   162.5683   680.1856

       T/K    H(0)-H(T)+PV         H(T)/Eh          T*S/Eh         G(T)/Eh
   ------------------------------------------------------------------------
    298.15    0.252363E-01    0.348341E+00    0.772414E-01    0.271100E+00
   ------------------------------------------------------------------------

         :::::::::::::::::::::::::::::::::::::::::::::::::::::
         ::                  THERMODYNAMIC                  ::
         :::::::::::::::::::::::::::::::::::::::::::::::::::::
         :: total free energy         -78.319874801419 Eh   ::
         ::.................................................::
         :: total energy              -78.590974624818 Eh   ::
         :: zero point energy           0.323104985816 Eh   ::
         :: G(RRHO) w/o ZPVE           -0.052005162416 Eh   ::
         :: G(RRHO) contrib.            0.271099823400 Eh   ::
         :::::::::::::::::::::::::::::::::::::::::::::::::::::

           -------------------------------------------------
          | TOTAL ENERGY              -78.590974624818 Eh   |
          | TOTAL ENTHALPY            -78.242633378825 Eh   |
          | TOTAL FREE ENERGY         -78.319874801419 Eh   |
          | GRADIENT NORM               0.000060831360 Eh/α |
           -------------------------------------------------

 * finished run on 2025/08/24 at 14:27:29.882
