   * xtb version 6.7.1 (edcfbbe) compiled by 'albert@albert-system' on 2024-07-22

   ID    Z sym.   atoms
    1    8 O      1, 3, 22
    2   16 S      2
    3    6 C      4-7, 9-14, 16-21, 23-29
    4    7 N      8, 15
    5    1 H      30-45

          program call               : xtb data2507/gas/PSPP/PSPP_gas_T1_crest.xyz --gfn 2 --spinpol --tblite --uhf 2 --ohess vtight --parallel 40 --molden --ceasefiles --namespace data2507/gas/PSPP/PSPP_gas_T1_finalOpt
 * total energy  :   -78.5918961 Eh     change        0.8564896E-08 Eh
 * total energy  :   -78.5919176 Eh     change       -0.2151074E-04 Eh
 * total energy  :   -78.5919271 Eh     change       -0.9543029E-05 Eh
 * total energy  :   -78.5919289 Eh     change       -0.1737466E-05 Eh
 * total energy  :   -78.5919312 Eh     change       -0.2360995E-05 Eh
 * total energy  :   -78.5919339 Eh     change       -0.2632200E-05 Eh
 * total energy  :   -78.5919377 Eh     change       -0.3791947E-05 Eh
 * total energy  :   -78.5919415 Eh     change       -0.3847913E-05 Eh
 * total energy  :   -78.5919439 Eh     change       -0.2377294E-05 Eh
 * total energy  :   -78.5919457 Eh     change       -0.1791220E-05 Eh
 * total energy  :   -78.5919529 Eh     change       -0.1181044E-05 Eh
 * total energy  :   -78.5919540 Eh     change       -0.1147202E-05 Eh
 * total energy  :   -78.5919551 Eh     change       -0.1048424E-05 Eh
 * total energy  :   -78.5919559 Eh     change       -0.8313152E-06 Eh
 * total energy  :   -78.5919563 Eh     change       -0.4250067E-06 Eh
 * total energy  :   -78.5919566 Eh     change       -0.3267655E-06 Eh
 * total energy  :   -78.5919569 Eh     change       -0.2391093E-06 Eh
 * total energy  :   -78.5919571 Eh     change       -0.1683335E-06 Eh
 * total energy  :   -78.5919572 Eh     change       -0.9548222E-07 Eh
   *** GEOMETRY OPTIMIZATION CONVERGED AFTER 22 ITERATIONS ***

 final structure:
================
45
 xtb: 6.7.1 (edcfbbe)
O            2.54478991314603        1.14003663706847       -2.40369233869550
S            2.98463020443859        1.39286466927267       -1.05647507324592
O            3.95129343806028        2.43285042657724       -0.82122543308543
C            3.55180407010077       -0.12643759026344       -0.31975612855321
C            4.46064109660262       -0.09592686117864        0.73532392262526
C            4.74025050869897       -1.28044653439108        1.38985353154123
C            4.08497556100952       -2.43562443930560        0.97609879845872
N            3.21817606097018       -2.46397510634203       -0.03318967230293
C            2.96475216093867       -1.33776865959234       -0.66663262118649
C            1.55867778041436        1.65142719918047       -0.02061566821923
C            1.66575579966721        2.34529232245121        1.18364727586526
C            0.60936399388149        2.33644553460343        2.06923299304763
C           -0.54674166740204        1.61317168010466        1.78522797491205
C           -0.63758407311126        0.91599031757738        0.57564778676705
N           -1.78760073861455        0.13623582122417        0.28763053373569
C           -3.00703751758202        0.74029933027707        0.10973591510603
C           -3.19103878578937        2.12846327907084        0.16841904761053
C           -4.43559848584676        2.67758203397443       -0.00236561431197
C           -5.55815470928723        1.85476849921426       -0.25344277510850
C           -5.40356023367912        0.49410012930116       -0.35650155781737
C           -4.14723974612997       -0.08599225152069       -0.19094661283165
O           -4.02937943943515       -1.41991193757942       -0.34277284243147
C           -2.82013650268418       -1.99684369856743       -0.19713235512890
C           -2.71286897803201       -3.37377846757076       -0.38190718934986
C           -1.50374019280542       -4.00470306329924       -0.21611483847648
C           -0.36521880524943       -3.26186596139511        0.17312712652527
C           -0.44919720103966       -1.90771855531898        0.36128813787132
C           -1.65693922548919       -1.22408572350933        0.15357076777847
C            0.40536848360229        0.94256031286611       -0.33073967616687
H            4.92649336067162        0.84046680423572        1.00018855915448
H            5.44538717808103       -1.31355813251346        2.20589935957182
H            4.25754206724310       -3.38432070595314        1.46506259731331
H            2.27300386683162       -1.38863018241951       -1.49601577897877
H            2.57702609129223        2.88379077909256        1.38735171855855
H            0.67721034197652        2.87732532331727        3.00065107131791
H           -1.36137017985144        1.57200127864945        2.49096414750081
H           -2.33629583257166        2.76218219945373        0.34481431113104
H           -4.56231541694420        3.74671400254332        0.04700769144730
H           -6.53027678096708        2.30196765422776       -0.37976125217005
H           -6.23708016974793       -0.15524212805063       -0.57269443613038
H           -3.60266767621361       -3.91806386534465       -0.65657453639231
H           -1.42134342663197       -5.06794194554131       -0.36965839277960
H            0.58038790983794       -3.75796137083470        0.31769488454636
H            0.42488548047998       -1.35604366273510        0.66884382966844
H            0.34395862136016        0.43060110294091       -1.27790659699360

 projected vibrational frequencies (cm⁻¹)
eigval :       -0.00    -0.00    -0.00    -0.00     0.00     0.00
eigval :       18.08    20.14    31.13    37.35    53.12    69.06
eigval :       72.44    99.88   108.43   129.35   131.82   180.52
eigval :      196.91   216.31   232.17   252.94   257.77   278.49
eigval :      296.12   302.18   324.67   355.25   370.50   373.13
eigval :      390.78   398.06   404.54   410.07   421.61   438.64
eigval :      450.58   477.10   500.18   504.67   519.32   557.38
eigval :      569.72   581.62   591.88   617.85   618.84   629.89
eigval :      643.80   654.87   670.49   699.94   716.40   743.69
eigval :      748.73   764.18   768.39   798.52   838.74   840.81
eigval :      846.53   852.45   875.90   883.31   887.86   890.53
eigval :      892.01   894.02   898.51   908.14   910.94   916.23
eigval :      919.56   975.83   984.90  1037.74  1049.18  1071.17
eigval :     1074.58  1087.38  1104.04  1110.68  1117.25  1120.70
eigval :     1127.52  1158.53  1162.67  1167.49  1175.26  1178.07
eigval :     1190.95  1223.40  1230.12  1237.99  1244.02  1246.25
eigval :     1257.94  1290.97  1302.40  1313.43  1328.01  1332.90
eigval :     1341.98  1369.32  1371.82  1378.47  1411.63  1414.83
eigval :     1418.23  1423.62  1436.28  1439.88  1449.07  1464.66
eigval :     1465.43  1469.59  1491.49  1509.25  1558.58  3068.18
eigval :     3071.60  3088.66  3089.97  3099.56  3100.89  3102.32
eigval :     3102.90  3103.45  3103.88  3107.00  3111.24  3113.33
eigval :     3113.59  3118.68  3121.16

   temp. (K)  partition function   enthalpy   heat capacity  entropy
                                   cal/mol     cal/K/mol   cal/K/mol   J/K/mol
 298.15  VIB  0.679E+10            13406.006     85.758     81.911
         ROT  0.160E+08              888.752      2.981     35.944
         INT  0.109E+18            14294.758     88.739    117.855
         TR   0.775E+28             1481.254      4.968     43.834
         TOT                       15776.0119    93.7071   161.6885   676.5049

       T/K    H(0)-H(T)+PV         H(T)/Eh          T*S/Eh         G(T)/Eh
   ------------------------------------------------------------------------
    298.15    0.251407E-01    0.348383E+00    0.768234E-01    0.271559E+00
   ------------------------------------------------------------------------

         :::::::::::::::::::::::::::::::::::::::::::::::::::::
         ::                  THERMODYNAMIC                  ::
         :::::::::::::::::::::::::::::::::::::::::::::::::::::
         :: total free energy         -78.320397757662 Eh   ::
         ::.................................................::
         :: total energy              -78.591957159482 Eh   ::
         :: zero point energy           0.323242171819 Eh   ::
         :: G(RRHO) w/o ZPVE           -0.051682769999 Eh   ::
         :: G(RRHO) contrib.            0.271559401820 Eh   ::
         :::::::::::::::::::::::::::::::::::::::::::::::::::::

           -------------------------------------------------
          | TOTAL ENERGY              -78.591957159482 Eh   |
          | TOTAL ENTHALPY            -78.243574312476 Eh   |
          | TOTAL FREE ENERGY         -78.320397757662 Eh   |
          | GRADIENT NORM               0.000047503565 Eh/α |
           -------------------------------------------------

 * finished run on 2025/08/24 at 14:30:06.163
