   * xtb version 6.7.1 (edcfbbe) compiled by 'albert@albert-system' on 2024-07-22

   ID    Z sym.   atoms
    1    8 O      1, 3, 22
    2   16 S      2
    3    6 C      4-7, 9-14, 16-21, 23-29
    4    7 N      8, 15
    5    1 H      30-45

          program call               : xtb data2507/toluene/PSPP/PSPP_toluene_S0_finalOpt.xtbopt.xyz --gfn 2 --uhf 2 --gbsa toluene --ohess vtight --parallel 40 --molden --ceasefiles --namespace data2507/toluene/PSPP/PSPP_toluene_T1_preOpt
      * Solvation model:               GBSA
        Solvent                        toluene
        Solvent mass                       9.2140E+01 g/mol
          :  Hamiltonian                  GFN2-xTB          :
 * total energy  :   -78.6213915 Eh     change       -0.1283681E-08 Eh
 * total energy  :   -78.6261390 Eh     change       -0.4747537E-02 Eh
 * total energy  :   -78.6276875 Eh     change       -0.1548486E-02 Eh
 * total energy  :   -78.6278544 Eh     change       -0.1669186E-03 Eh
 * total energy  :   -78.6279793 Eh     change       -0.1248863E-03 Eh
 * total energy  :   -78.6280507 Eh     change       -0.7143716E-04 Eh
 * total energy  :   -78.6281539 Eh     change       -0.1031614E-03 Eh
 * total energy  :   -78.6282480 Eh     change       -0.9410244E-04 Eh
 * total energy  :   -78.6283155 Eh     change       -0.6752480E-04 Eh
 * total energy  :   -78.6283611 Eh     change       -0.4561490E-04 Eh
 * total energy  :   -78.6285715 Eh     change       -0.1900658E-05 Eh
 * total energy  :   -78.6285726 Eh     change       -0.1139486E-05 Eh
 * total energy  :   -78.6285736 Eh     change       -0.9743562E-06 Eh
 * total energy  :   -78.6285747 Eh     change       -0.1122698E-05 Eh
 * total energy  :   -78.6285761 Eh     change       -0.1393512E-05 Eh
 * total energy  :   -78.6285775 Eh     change       -0.1446300E-05 Eh
 * total energy  :   -78.6285786 Eh     change       -0.1050013E-05 Eh
 * total energy  :   -78.6285792 Eh     change       -0.5806349E-06 Eh
 * total energy  :   -78.6285792 Eh     change       -0.9800772E-08 Eh
   *** GEOMETRY OPTIMIZATION CONVERGED AFTER 44 ITERATIONS ***

 final structure:
================
45
 xtb: 6.7.1 (edcfbbe)
O            3.74367746048307       -2.60807610054827       -0.81707046205679
S            2.88617754709050       -1.45257085435091       -1.01086466743675
O            2.44162799580264       -1.17654415751198       -2.36595311435598
C            3.68371100893298       -0.01569578563433       -0.35643182517769
C            4.64446842631905       -0.12961053287268        0.65570970896876
C            5.11651939597561        1.02918690441040        1.23752551844488
C            4.60839663895340        2.24991360256500        0.80133157821620
N            3.68892849818041        2.35685943990845       -0.16323412209693
C            3.24142944316386        1.25412759982845       -0.71933603726431
C            1.46558655745060       -1.58786277284017        0.03721816912733
C            1.55034992028537       -2.25806851229148        1.26175058318560
C            0.49276500380993       -2.20517748903949        2.14133799438067
C           -0.65454826961998       -1.47610092649352        1.82954349929185
C           -0.72170014881589       -0.80123986462811        0.60421085625175
N           -1.88234935367936       -0.04644794779481        0.28044736407699
C           -1.81111429079937        1.32375995656426        0.23038120601247
C           -0.64719996946093        2.04072881428797        0.54189379374874
C           -0.63036277714284        3.41165411260367        0.46868720151723
C           -1.78283731433974        4.12507091190186        0.08709787152312
C           -2.94719158864647        3.45162575204299       -0.20183012998221
C           -2.98619648863187        2.06116343434252       -0.13066999899825
O           -4.15131627686569        1.43881380183007       -0.40207662505046
C           -4.21055460275872        0.09290957334104       -0.34227291823138
C           -5.42329699232006       -0.52894974707192       -0.63163350699752
C           -5.51901902951031       -1.90089026745628       -0.60372156806136
C           -4.38743585826565       -2.68135684731681       -0.29976972414123
C           -3.18278068267642       -2.08792990211046       -0.01090174818454
C           -3.06019858003843       -0.69199125911446       -0.00544893327241
C            0.33004561438770       -0.84974592668850       -0.28931870939794
H            4.99675215699234       -1.11037890442041        0.93519498805618
H            5.86418961382631        0.99593767026056        2.01485145966323
H            4.94166221455175        3.18548891495921        1.22673616311661
H            2.50581668032043        1.36228205956755       -1.50514117907795
H            2.44687867269894       -2.81684314157720        1.47683910924837
H            0.54771587195712       -2.72618263043624        3.08458027080914
H           -1.47909308164579       -1.41959216937329        2.52126244859703
H            0.23940087411818        1.50227306090294        0.83651333365678
H            0.27537490182186        3.94563779915340        0.70551202538400
H           -1.75144998625661        5.20063921781228        0.02887728434620
H           -3.84836836694729        3.97194123841159       -0.48460226082132
H           -6.26847308742047        0.09399665760242       -0.87725432872882
H           -6.45764288346078       -2.38171913102255       -0.82572002760760
H           -4.46646768073959       -3.75642804501597       -0.29879544234730
H           -2.31623068992740       -2.69011813166986        0.20986003429941
H            0.28998721674277       -0.35142657749707       -1.24493058336674

          :  Hamiltonian                  GFN2-xTB          :
         :: gradient norm              0.000064771899 Eh/a0 ::
         :: HOMO-LUMO gap              0.039274251646 eV    ::
         :: SCC energy               -79.838347139255 Eh    ::
         :: -> dispersion             -0.061738684437 Eh    ::
         :: -> Gsolv                  -0.046011764800 Eh    ::
         :: repulsion energy           1.209767954461 Eh    ::

    * Orbital Energies and Occupations

         #    Occupation            Energy/Eh            Energy/eV
      -------------------------------------------------------------
         1        2.0000           -0.7704867             -20.9660
       ...           ...                  ...                  ...
        60        2.0000           -0.4415546             -12.0153
        61        2.0000           -0.4382945             -11.9266
        62        2.0000           -0.4372715             -11.8988
        63        2.0000           -0.4347216             -11.8294
        64        2.0000           -0.4341575             -11.8140
        65        2.0000           -0.4288772             -11.6703
        66        2.0000           -0.4236261             -11.5275
        67        2.0000           -0.4199273             -11.4268
        68        2.0000           -0.4156722             -11.3110
        69        2.0000           -0.4067859             -11.0692
        70        1.9896           -0.3747928             -10.1986
        71        1.0104           -0.3661303              -9.9629
        72        0.6813           -0.2707674              -7.3680 (HOMO)
        73        0.3187           -0.2693237              -7.3287 (LUMO)
        74                         -0.2528065              -6.8792
        75                         -0.2499566              -6.8017
        76                         -0.2489526              -6.7743
        77                         -0.2433054              -6.6207
        78                         -0.2335427              -6.3550
        79                         -0.2210064              -6.0139
        80                         -0.1443228              -3.9272
        81                         -0.1288367              -3.5058
        82                         -0.1221601              -3.3241
        83                         -0.1023491              -2.7851
       ...                                ...                  ...
       137                          1.1526425              31.3650
      -------------------------------------------------------------
                  HL-Gap            0.0014438 Eh            0.0393 eV

     #   Z          covCN         q      C6AA      α(0)
     1   8 O        0.860    -0.584    25.723     6.800
     2  16 S        3.826     0.890   109.864    17.641
     3   8 O        0.860    -0.587    25.811     6.812
     4   6 C        2.962    -0.102    30.580     9.070
     5   6 C        2.958    -0.024    28.598     8.771
     6   6 C        2.913    -0.037    28.927     8.819
     7   6 C        2.908     0.039    27.121     8.539
     8   7 N        1.835    -0.232    26.932     7.691
     9   6 C        2.944     0.059    26.677     8.471
    10   6 C        2.968    -0.090    30.264     9.024
    11   6 C        2.950    -0.034    28.851     8.810
    12   6 C        2.918    -0.025    28.638     8.775
    13   6 C        2.917    -0.055    29.372     8.887
    14   6 C        2.928     0.053    26.819     8.493
    15   7 N        2.752     0.024    20.825     6.778
    16   6 C        2.926     0.034    27.251     8.561
    17   6 C        2.913    -0.043    29.060     8.840
    18   6 C        2.915    -0.029    28.734     8.790
    19   6 C        2.916    -0.027    28.674     8.781
    20   6 C        2.910    -0.047    29.170     8.856
    21   6 C        2.886     0.127    25.207     8.231
    22   8 O        1.711    -0.177    16.973     5.563
    23   6 C        2.886     0.127    25.213     8.232
    24   6 C        2.910    -0.047    29.172     8.856
    25   6 C        2.916    -0.028    28.694     8.784
    26   6 C        2.915    -0.031    28.770     8.796
    27   6 C        2.913    -0.044    29.088     8.844
    28   6 C        2.926     0.034    27.237     8.559
    29   6 C        2.966    -0.044    29.080     8.845
    30   1 H        0.926     0.042     2.427     2.436
    31   1 H        0.926     0.051     2.312     2.378
    32   1 H        0.926     0.046     2.371     2.408
    33   1 H        0.925     0.038     2.481     2.463
    34   1 H        0.926     0.047     2.356     2.400
    35   1 H        0.926     0.061     2.188     2.313
    36   1 H        0.926     0.059     2.205     2.322
    37   1 H        0.926     0.051     2.307     2.375
    38   1 H        0.926     0.063     2.165     2.301
    39   1 H        0.926     0.066     2.132     2.283
    40   1 H        0.926     0.073     2.054     2.241
    41   1 H        0.926     0.072     2.068     2.249
    42   1 H        0.926     0.064     2.150     2.293
    43   1 H        0.926     0.061     2.193     2.316
    44   1 H        0.926     0.059     2.214     2.327
    45   1 H        0.926     0.050     2.318     2.381

molecular dipole:
                 x           y           z       tot (Debye)
 q only:       -4.986       1.723       2.420
   full:       -4.618       1.286       2.378      13.602

 projected vibrational frequencies (cm⁻¹)
eigval :       -0.00    -0.00    -0.00     0.00     0.00     0.00
eigval :       14.91    21.51    34.04    34.96    41.12    65.28
eigval :       70.05    99.61   112.10   128.25   135.51   179.53
eigval :      197.29   201.56   235.12   245.97   262.10   281.89
eigval :      294.36   302.97   325.25   353.67   369.06   373.28
eigval :      392.16   398.86   404.87   408.87   416.35   452.14
eigval :      457.19   479.03   493.33   499.37   526.22   553.75
eigval :      567.92   581.55   585.02   621.05   638.43   638.90
eigval :      650.35   656.02   657.61   696.50   717.04   748.46
eigval :      752.90   756.54   760.08   800.02   834.83   848.66
eigval :      855.52   857.29   859.79   864.01   891.67   894.42
eigval :      897.18   898.62   901.01   901.28   906.13   908.77
eigval :      920.02   966.72   976.03  1049.91  1051.36  1056.60
eigval :     1063.04  1066.01  1091.84  1103.40  1115.97  1120.83
eigval :     1121.37  1157.76  1160.89  1163.60  1166.23  1173.88
eigval :     1180.77  1199.41  1216.03  1229.78  1239.80  1243.42
eigval :     1249.96  1291.93  1296.30  1311.89  1323.69  1339.58
eigval :     1351.46  1360.25  1370.72  1375.18  1397.73  1403.38
eigval :     1408.93  1415.98  1422.30  1435.33  1438.85  1463.80
eigval :     1469.89  1471.09  1498.65  1508.79  1559.61  3059.77
eigval :     3072.61  3084.80  3091.63  3095.89  3102.98  3103.52
eigval :     3104.80  3106.17  3106.66  3107.56  3112.27  3113.59
eigval :     3113.91  3119.27  3121.02

   temp. (K)  partition function   enthalpy   heat capacity  entropy
                                   cal/mol     cal/K/mol   cal/K/mol   J/K/mol
 298.15  VIB  0.102E+11            13442.109     85.616     82.187
         ROT  0.168E+08              888.752      2.981     36.047
         INT  0.171E+18            14330.861     88.597    118.234
         TR   0.775E+28             1481.254      4.968     43.834
         TOT                       15812.1149    93.5655   162.0673   678.0894

       T/K    H(0)-H(T)+PV         H(T)/Eh          T*S/Eh         G(T)/Eh
   ------------------------------------------------------------------------
    298.15    0.251982E-01    0.347845E+00    0.770034E-01    0.270842E+00
   ------------------------------------------------------------------------

         :::::::::::::::::::::::::::::::::::::::::::::::::::::
         ::                  THERMODYNAMIC                  ::
         :::::::::::::::::::::::::::::::::::::::::::::::::::::
         :: total free energy         -78.357737648870 Eh   ::
         ::.................................................::
         :: total energy              -78.628579182977 Eh   ::
         :: zero point energy           0.322646706893 Eh   ::
         :: G(RRHO) w/o ZPVE           -0.051805172787 Eh   ::
         :: G(RRHO) contrib.            0.270841534106 Eh   ::
         :::::::::::::::::::::::::::::::::::::::::::::::::::::

           -------------------------------------------------
          | TOTAL ENERGY              -78.628579182977 Eh   |
          | TOTAL ENTHALPY            -78.280734267128 Eh   |
          | TOTAL FREE ENERGY         -78.357737648870 Eh   |
          | GRADIENT NORM               0.000067489340 Eh/α |
          | HOMO-LUMO GAP               0.039286609567 eV   |
           -------------------------------------------------

 * finished run on 2025/08/24 at 14:32:21.344
