   * xtb version 6.7.1 (edcfbbe) compiled by 'albert@albert-system' on 2024-07-22

   ID    Z sym.   atoms
    1    8 O      1, 3, 22
    2   16 S      2
    3    6 C      4-7, 9-14, 16-21, 23-29
    4    7 N      8, 15
    5    1 H      30-45

          program call               : xtb data2507/toluene/PSPP/PSPP_toluene_T1_crest.xyz --gfn 2 --uhf 2 --gbsa toluene --ohess vtight --parallel 40 --molden --ceasefiles --namespace data2507/toluene/PSPP/PSPP_toluene_T1_finalOpt
      * Solvation model:               GBSA
        Solvent                        toluene
        Solvent mass                       9.2140E+01 g/mol
          :  Hamiltonian                  GFN2-xTB          :
 * total energy  :   -78.6277230 Eh     change       -0.1150795E-07 Eh
 * total energy  :   -78.6279627 Eh     change       -0.2396739E-03 Eh
 * total energy  :   -78.6281203 Eh     change       -0.1575906E-03 Eh
 * total energy  :   -78.6281382 Eh     change       -0.1792715E-04 Eh
 * total energy  :   -78.6281669 Eh     change       -0.2872681E-04 Eh
 * total energy  :   -78.6281809 Eh     change       -0.1398283E-04 Eh
 * total energy  :   -78.6282071 Eh     change       -0.2615119E-04 Eh
 * total energy  :   -78.6282336 Eh     change       -0.2656954E-04 Eh
 * total energy  :   -78.6282462 Eh     change       -0.1256104E-04 Eh
 * total energy  :   -78.6282679 Eh     change       -0.2166623E-04 Eh
 * total energy  :   -78.6285820 Eh     change       -0.1586982E-05 Eh
 * total energy  :   -78.6285832 Eh     change       -0.1241653E-05 Eh
 * total energy  :   -78.6285841 Eh     change       -0.8086817E-06 Eh
 * total energy  :   -78.6285845 Eh     change       -0.4420832E-06 Eh
 * total energy  :   -78.6285847 Eh     change       -0.2243474E-06 Eh
 * total energy  :   -78.6285849 Eh     change       -0.1441975E-06 Eh
 * total energy  :   -78.6285850 Eh     change       -0.1396685E-06 Eh
 * total energy  :   -78.6285851 Eh     change       -0.1321750E-06 Eh
 * total energy  :   -78.6285852 Eh     change       -0.6481801E-07 Eh
   *** GEOMETRY OPTIMIZATION CONVERGED AFTER 66 ITERATIONS ***

 final structure:
================
45
 xtb: 6.7.1 (edcfbbe)
O            3.78968978371349       -2.56144490090950       -0.74812348933337
S            2.91820037833848       -1.41947824567003       -0.95917811373842
O            2.46880251974031       -1.17071991395592       -2.31791506027642
C            3.69876294058721        0.03693968709788       -0.32821063915165
C            4.65617575443722       -0.04963119212771        0.68986301171826
C            5.11341062250877        1.12382691099951        1.25383437035760
C            4.59418279768973        2.33146842356180        0.79496543681655
N            3.67767078898249        2.41233365945300       -0.17505816691923
C            3.24448893961978        1.29560029998835       -0.71438582449443
C            1.50048044633728       -1.55394302170729        0.09279751035999
C            1.59799126809706       -2.19035256177508        1.33436365578589
C            0.54045394122621       -2.13259980224556        2.21371673575172
C           -0.61986488142375       -1.43259580025950        1.88414005374137
C           -0.70060637376376       -0.79278429770882        0.64089142774700
N           -1.87614193191451       -0.07056374471526        0.29756522684448
C           -1.83205126547069        1.29862325607696        0.20536941650464
C           -0.68140288033616        2.04736898082212        0.49017342055127
C           -0.69250497056353        3.41578473414340        0.37816284811410
C           -1.86101005048530        4.09482837981934       -0.01705083004688
C           -3.01270430953037        3.39015047685307       -0.28118912907437
C           -3.02306568729851        2.00163258874248       -0.17157554766294
O           -4.17644583360690        1.34861065263975       -0.42010266213896
C           -4.20854211695945        0.00408874617283       -0.32075674909709
C           -5.40923737723079       -0.65006546318973       -0.58828192177476
C           -5.47748535425259       -2.02227311978915       -0.51993216189401
C           -4.32992437170880       -2.77073912414813       -0.19621922183711
C           -3.13679569267755       -2.14512908214265        0.07180615909931
C           -3.04191458685087       -0.74748933842053        0.03533483399886
C            0.35147181147938       -0.84567413532242       -0.25200664589095
H            5.01769542083992       -1.02166576834217        0.98749083387903
H            5.85782186332593        1.11167402438227        2.03491997164520
H            4.91567175139643        3.27748424621738        1.20610102864254
H            2.51090200647167        1.38231675704731       -1.50477908262238
H            2.50411210286871       -2.72786633526097        1.56293135997916
H            0.60547666208177       -2.62718675898938        3.17045783898930
H           -1.44446546199248       -1.37195381841329        2.57544993147915
H            0.21717656044542        1.53546174940033        0.79561473612096
H            0.20354836188626        3.97417693195691        0.59476715313553
H           -1.85176678040488        5.16877417980264       -0.10545223035489
H           -3.92555206832238        3.88394631650479       -0.57397632628861
H           -6.26728207179433       -0.05164121181854       -0.84976187258732
H           -6.40675638894532       -2.52802736399963       -0.72524415237568
H           -4.38733372459381       -3.84667138543734       -0.16321603027873
H           -2.25793435046189       -2.72326952740782        0.30758638889653
H            0.30205496181886       -0.37390509852178       -1.22058943943385

          :  Hamiltonian                  GFN2-xTB          :
         :: gradient norm              0.000057732374 Eh/a0 ::
         :: HOMO-LUMO gap              0.039003233228 eV    ::
         :: SCC energy               -79.838307825510 Eh    ::
         :: -> dispersion             -0.061724716494 Eh    ::
         :: -> Gsolv                  -0.046021585276 Eh    ::
         :: repulsion energy           1.209722626757 Eh    ::

    * Orbital Energies and Occupations

         #    Occupation            Energy/Eh            Energy/eV
      -------------------------------------------------------------
         1        2.0000           -0.7704935             -20.9662
       ...           ...                  ...                  ...
        60        2.0000           -0.4415677             -12.0157
        61        2.0000           -0.4382875             -11.9264
        62        2.0000           -0.4372575             -11.8984
        63        2.0000           -0.4347480             -11.8301
        64        2.0000           -0.4341616             -11.8141
        65        2.0000           -0.4288819             -11.6705
        66        2.0000           -0.4236080             -11.5270
        67        2.0000           -0.4199072             -11.4263
        68        2.0000           -0.4156694             -11.3109
        69        2.0000           -0.4067998             -11.0696
        70        1.9895           -0.3747854             -10.1984
        71        1.0105           -0.3661517              -9.9635
        72        0.6801           -0.2707755              -7.3682 (HOMO)
        73        0.3199           -0.2693423              -7.3292 (LUMO)
        74                         -0.2527816              -6.8785
        75                         -0.2499810              -6.8023
        76                         -0.2489747              -6.7749
        77                         -0.2432600              -6.6194
        78                         -0.2335493              -6.3552
        79                         -0.2210122              -6.0140
        80                         -0.1443031              -3.9267
        81                         -0.1288541              -3.5063
        82                         -0.1221294              -3.3233
        83                         -0.1023465              -2.7850
       ...                                ...                  ...
       137                          1.1527265              31.3673
      -------------------------------------------------------------
                  HL-Gap            0.0014333 Eh            0.0390 eV

     #   Z          covCN         q      C6AA      α(0)
     1   8 O        0.860    -0.584    25.725     6.800
     2  16 S        3.827     0.890   109.862    17.641
     3   8 O        0.860    -0.587    25.807     6.811
     4   6 C        2.962    -0.102    30.581     9.071
     5   6 C        2.958    -0.024    28.600     8.772
     6   6 C        2.913    -0.037    28.927     8.819
     7   6 C        2.908     0.039    27.121     8.539
     8   7 N        1.835    -0.232    26.933     7.691
     9   6 C        2.944     0.059    26.677     8.471
    10   6 C        2.968    -0.090    30.265     9.024
    11   6 C        2.950    -0.034    28.853     8.810
    12   6 C        2.918    -0.025    28.637     8.775
    13   6 C        2.917    -0.055    29.373     8.887
    14   6 C        2.928     0.053    26.819     8.493
    15   7 N        2.752     0.024    20.824     6.778
    16   6 C        2.926     0.034    27.250     8.561
    17   6 C        2.913    -0.043    29.060     8.840
    18   6 C        2.915    -0.029    28.735     8.790
    19   6 C        2.916    -0.027    28.674     8.781
    20   6 C        2.910    -0.047    29.170     8.856
    21   6 C        2.886     0.127    25.207     8.231
    22   8 O        1.711    -0.177    16.974     5.563
    23   6 C        2.886     0.127    25.212     8.232
    24   6 C        2.910    -0.047    29.172     8.856
    25   6 C        2.916    -0.028    28.694     8.784
    26   6 C        2.915    -0.031    28.770     8.796
    27   6 C        2.913    -0.044    29.089     8.844
    28   6 C        2.926     0.034    27.237     8.559
    29   6 C        2.966    -0.044    29.079     8.845
    30   1 H        0.926     0.042     2.428     2.437
    31   1 H        0.926     0.051     2.313     2.378
    32   1 H        0.926     0.046     2.371     2.408
    33   1 H        0.925     0.038     2.479     2.462
    34   1 H        0.926     0.047     2.358     2.401
    35   1 H        0.926     0.061     2.188     2.313
    36   1 H        0.926     0.059     2.205     2.322
    37   1 H        0.926     0.051     2.306     2.375
    38   1 H        0.926     0.063     2.165     2.301
    39   1 H        0.926     0.066     2.132     2.283
    40   1 H        0.926     0.073     2.054     2.241
    41   1 H        0.926     0.072     2.068     2.249
    42   1 H        0.926     0.064     2.150     2.293
    43   1 H        0.926     0.061     2.192     2.315
    44   1 H        0.926     0.059     2.213     2.326
    45   1 H        0.926     0.050     2.315     2.379

molecular dipole:
                 x           y           z       tot (Debye)
 q only:       -5.021       1.679       2.380
   full:       -4.648       1.247       2.346      13.608

 projected vibrational frequencies (cm⁻¹)
eigval :       -0.00    -0.00    -0.00    -0.00     0.00     0.00
eigval :       14.58    21.43    33.61    34.80    40.64    68.98
eigval :       69.81    98.03   110.45   128.94   135.62   179.55
eigval :      196.97   203.20   233.36   247.47   261.49   281.72
eigval :      293.80   303.17   325.29   354.09   370.50   373.80
eigval :      394.19   399.22   404.32   408.83   416.66   450.81
eigval :      457.01   478.30   493.33   499.83   526.40   554.40
eigval :      568.11   582.38   585.29   621.30   638.35   640.15
eigval :      650.04   656.20   657.40   696.70   717.37   749.97
eigval :      752.96   756.47   758.11   799.89   837.00   848.49
eigval :      855.27   857.38   858.88   866.92   890.19   893.79
eigval :      894.81   896.93   900.18   901.73   906.66   909.13
eigval :      920.21   966.71   976.25  1049.95  1051.80  1057.25
eigval :     1063.21  1066.30  1092.60  1104.07  1115.90  1120.97
eigval :     1121.69  1159.19  1162.59  1164.58  1167.83  1174.08
eigval :     1181.19  1199.01  1216.07  1230.44  1240.80  1243.57
eigval :     1249.99  1291.87  1296.28  1312.12  1323.85  1339.49
eigval :     1351.71  1360.19  1370.90  1375.23  1397.64  1403.43
eigval :     1408.72  1415.66  1422.08  1435.56  1439.13  1464.00
eigval :     1469.63  1471.01  1498.42  1508.53  1559.45  3059.64
eigval :     3072.65  3084.68  3092.35  3095.79  3103.54  3103.91
eigval :     3104.60  3106.84  3107.02  3107.69  3112.47  3113.74
eigval :     3114.23  3119.54  3120.63

   temp. (K)  partition function   enthalpy   heat capacity  entropy
                                   cal/mol     cal/K/mol   cal/K/mol   J/K/mol
 298.15  VIB  0.104E+11            13438.939     85.608     82.182
         ROT  0.169E+08              888.752      2.981     36.049
         INT  0.175E+18            14327.692     88.589    118.232
         TR   0.775E+28             1481.254      4.968     43.834
         TOT                       15808.9456    93.5573   162.0653   678.0812

       T/K    H(0)-H(T)+PV         H(T)/Eh          T*S/Eh         G(T)/Eh
   ------------------------------------------------------------------------
    298.15    0.251932E-01    0.347880E+00    0.770025E-01    0.270878E+00
   ------------------------------------------------------------------------

         :::::::::::::::::::::::::::::::::::::::::::::::::::::
         ::                  THERMODYNAMIC                  ::
         :::::::::::::::::::::::::::::::::::::::::::::::::::::
         :: total free energy         -78.357707632807 Eh   ::
         ::.................................................::
         :: total energy              -78.628585197558 Eh   ::
         :: zero point energy           0.322686863006 Eh   ::
         :: G(RRHO) w/o ZPVE           -0.051809298255 Eh   ::
         :: G(RRHO) contrib.            0.270877564751 Eh   ::
         :::::::::::::::::::::::::::::::::::::::::::::::::::::

           -------------------------------------------------
          | TOTAL ENERGY              -78.628585197558 Eh   |
          | TOTAL ENTHALPY            -78.280705176063 Eh   |
          | TOTAL FREE ENERGY         -78.357707632807 Eh   |
          | GRADIENT NORM               0.000057473101 Eh/α |
          | HOMO-LUMO GAP               0.039000854696 eV   |
           -------------------------------------------------

 * finished run on 2025/08/24 at 14:34:50.588
