   * xtb version 6.7.1 (edcfbbe) compiled by 'albert@albert-system' on 2024-07-22

   ID    Z sym.   atoms
    1    8 O      1, 3, 22
    2   16 S      2
    3    6 C      4-7, 9-14, 16-21, 23-29
    4    7 N      8, 15
    5    1 H      30-45

          program call               : xtb data2507/toluene/PSPP/PSPP.xyz --gfn 2 --gbsa toluene --ohess vtight --parallel 40 --molden --ceasefiles --namespace data2507/toluene/PSPP/PSPP_toluene_S0_preOpt
      * Solvation model:               GBSA
        Solvent                        toluene
        Solvent mass                       9.2140E+01 g/mol
          :  Hamiltonian                  GFN2-xTB          :
 * total energy  :   -78.7043715 Eh     change       -0.2456488E-09 Eh
 * total energy  :   -78.7122347 Eh     change       -0.7863252E-02 Eh
 * total energy  :   -78.7144657 Eh     change       -0.2230999E-02 Eh
 * total energy  :   -78.7148610 Eh     change       -0.3952953E-03 Eh
 * total energy  :   -78.7150308 Eh     change       -0.1698438E-03 Eh
 * total energy  :   -78.7150751 Eh     change       -0.4424370E-04 Eh
 * total energy  :   -78.7151074 Eh     change       -0.3235838E-04 Eh
 * total energy  :   -78.7151343 Eh     change       -0.2687325E-04 Eh
 * total energy  :   -78.7151538 Eh     change       -0.1946440E-04 Eh
 * total energy  :   -78.7151923 Eh     change       -0.3853283E-04 Eh
 * total energy  :   -78.7163348 Eh     change       -0.5786670E-06 Eh
 * total energy  :   -78.7163352 Eh     change       -0.3778120E-06 Eh
 * total energy  :   -78.7163353 Eh     change       -0.1840985E-06 Eh
 * total energy  :   -78.7163355 Eh     change       -0.1640151E-06 Eh
 * total energy  :   -78.7163357 Eh     change       -0.1895463E-06 Eh
 * total energy  :   -78.7163359 Eh     change       -0.1832148E-06 Eh
 * total energy  :   -78.7163360 Eh     change       -0.1423079E-06 Eh
 * total energy  :   -78.7163362 Eh     change       -0.1441281E-06 Eh
 * total energy  :   -78.7163362 Eh     change       -0.3904361E-08 Eh
   *** GEOMETRY OPTIMIZATION CONVERGED AFTER 94 ITERATIONS ***

 final structure:
================
45
 xtb: 6.7.1 (edcfbbe)
O            3.67623182245903       -2.85639037933218       -1.43229158903744
S            2.89935602835680       -1.63879265606864       -1.49738769899766
O            2.37037540720331       -1.25308788096842       -2.78562188391588
C            3.90624867733490       -0.28998822262575       -0.86735555414879
C            5.00372225393831       -0.55739424300708       -0.06813074520503
C            5.72492977844503        0.51634156286952        0.43149090600494
C            5.29700614636961        1.79758721937457        0.10793412486494
N            4.24733176250053        2.04808113553331       -0.65937642249363
C            3.56574021763617        1.02481985914989       -1.14152804620865
C            1.55486948938080       -1.72559831234938       -0.31231573583361
C            1.66557323295761       -2.54781322326399        0.79286024343668
C            0.63924050207099       -2.55300671642178        1.72528091213878
C           -0.46359033893404       -1.73452378952048        1.55263346346953
C           -0.56846414536264       -0.91158329193632        0.43063354690598
N           -1.69001029211515       -0.08163821884085        0.25368472564394
C           -1.53535052834016        1.30664003256287        0.14665477259294
C           -0.30884811831164        1.93477897597606        0.32571870934039
C           -0.19169328964813        3.31295955785683        0.22248740808721
C           -1.30141003264840        4.08863301741287       -0.04737696201404
C           -2.53984586221239        3.48116904257117       -0.19313798377168
C           -2.66048421593388        2.10703373595637       -0.09012845489755
O           -3.92632928351744        1.58485036583372       -0.21144982279615
C           -4.06138778400774        0.22053760520231       -0.11068355534468
C           -5.33886639196845       -0.29106348691122       -0.25083978369714
C           -5.55534245811395       -1.65993022507994       -0.19553826225116
C           -4.48197568679242       -2.51009053621911       -0.02034497096600
C           -3.19963893765114       -2.00131116041665        0.12252789804297
C           -2.97004377758142       -0.63110225649105        0.10508984856501
C            0.45817153495407       -0.91448687011066       -0.51247593095400
H            5.27531681175524       -1.58271318617699        0.13132165542505
H            6.59217715113956        0.36374928181197        1.05352796003849
H            5.81769750864257        2.67159284513524        0.47569092565468
H            2.72287117614518        1.25286909568785       -1.77885247335716
H            2.53565574328362       -3.17546075984744        0.89623939228653
H            0.70457962407952       -3.18791758785984        2.59502192572308
H           -1.25377924180006       -1.72437739191609        2.28829933650426
H            0.56516661202133        1.34540492052240        0.55433331887194
H            0.77644899498554        3.76969764991311        0.35718414424315
H           -1.21701265915353        5.16023371408369       -0.13460156103315
H           -3.43107073374230        4.05795915975704       -0.38448939393617
H           -6.15074263271266        0.40130864451234       -0.40911338328963
H           -6.55553178711450       -2.04916124501792       -0.30199801567983
H           -4.62980076572188       -3.57873532496028        0.00292903052519
H           -2.36972648512379       -2.68012472434110        0.23761057594101
H            0.40223197283079       -0.30995173203904       -1.40411759445446

          :  Hamiltonian                  GFN2-xTB          :
         :: gradient norm              0.000046457670 Eh/a0 ::
         :: HOMO-LUMO gap              1.721812670937 eV    ::
         :: SCC energy               -79.945319925054 Eh    ::
         :: -> dispersion             -0.061264718299 Eh    ::
         :: -> Gsolv                  -0.038622610804 Eh    ::
         :: repulsion energy           1.228983755433 Eh    ::

    * Orbital Energies and Occupations

         #    Occupation            Energy/Eh            Energy/eV
      -------------------------------------------------------------
         1        2.0000           -0.7863930             -21.3988
       ...           ...                  ...                  ...
        59        2.0000           -0.4509706             -12.2715
        60        2.0000           -0.4455495             -12.1240
        61        2.0000           -0.4418703             -12.0239
        62        2.0000           -0.4404337             -11.9848
        63        2.0000           -0.4383401             -11.9278
        64        2.0000           -0.4312443             -11.7348
        65        2.0000           -0.4285349             -11.6610
        66        2.0000           -0.4232179             -11.5163
        67        2.0000           -0.4188795             -11.3983
        68        2.0000           -0.4161486             -11.3240
        69        2.0000           -0.3942754             -10.7288
        70        2.0000           -0.3926867             -10.6855
        71        2.0000           -0.3487865              -9.4910 (HOMO)
        72                         -0.2855111              -7.7692 (LUMO)
        73                         -0.2741531              -7.4601
        74                         -0.2623093              -7.1378
        75                         -0.2586497              -7.0382
        76                         -0.2416889              -6.5767
        77                         -0.2331566              -6.3445
        78                         -0.2184179              -5.9435
        79                         -0.1996727              -5.4334
        80                         -0.1595042              -4.3403
        81                         -0.1391688              -3.7870
        82                         -0.1311272              -3.5682
       ...                                ...                  ...
       137                          1.1634270              31.6585
      -------------------------------------------------------------
                  HL-Gap            0.0632754 Eh            1.7218 eV

     #   Z          covCN         q      C6AA      α(0)
     1   8 O        0.860    -0.567    25.317     6.746
     2  16 S        3.811     0.948   108.153    17.503
     3   8 O        0.860    -0.573    25.459     6.765
     4   6 C        2.964    -0.087    30.170     9.009
     5   6 C        2.960    -0.006    28.172     8.706
     6   6 C        2.916    -0.030    28.740     8.791
     7   6 C        2.912     0.063    26.597     8.457
     8   7 N        1.837    -0.200    26.165     7.580
     9   6 C        2.941     0.062    26.603     8.459
    10   6 C        2.971    -0.074    29.830     8.959
    11   6 C        2.953    -0.030    28.742     8.793
    12   6 C        2.921    -0.020    28.495     8.754
    13   6 C        2.921    -0.035    28.879     8.813
    14   6 C        2.921     0.075    26.328     8.414
    15   7 N        2.750    -0.068    22.549     7.053
    16   6 C        2.921     0.039    27.119     8.540
    17   6 C        2.924    -0.061    29.506     8.908
    18   6 C        2.919    -0.038    28.954     8.824
    19   6 C        2.919    -0.039    28.970     8.826
    20   6 C        2.919    -0.057    29.412     8.893
    21   6 C        2.883     0.124    25.280     8.243
    22   8 O        1.708    -0.267    18.433     5.797
    23   6 C        2.883     0.124    25.281     8.243
    24   6 C        2.920    -0.057    29.414     8.894
    25   6 C        2.919    -0.040    28.985     8.829
    26   6 C        2.919    -0.038    28.951     8.823
    27   6 C        2.924    -0.061    29.517     8.910
    28   6 C        2.920     0.040    27.102     8.537
    29   6 C        2.966    -0.040    29.001     8.833
    30   1 H        0.926     0.071     2.074     2.252
    31   1 H        0.926     0.076     2.019     2.222
    32   1 H        0.925     0.071     2.077     2.254
    33   1 H        0.926     0.059     2.211     2.325
    34   1 H        0.926     0.066     2.126     2.280
    35   1 H        0.926     0.074     2.042     2.235
    36   1 H        0.926     0.072     2.061     2.245
    37   1 H        0.926     0.034     2.531     2.488
    38   1 H        0.926     0.047     2.353     2.399
    39   1 H        0.926     0.047     2.362     2.403
    40   1 H        0.926     0.052     2.300     2.372
    41   1 H        0.926     0.051     2.309     2.376
    42   1 H        0.926     0.045     2.385     2.415
    43   1 H        0.926     0.044     2.396     2.421
    44   1 H        0.926     0.041     2.436     2.441
    45   1 H        0.926     0.061     2.183     2.310

molecular dipole:
                 x           y           z       tot (Debye)
 q only:        0.066       0.689       2.722
   full:        0.259       0.260       2.615       6.712

 projected vibrational frequencies (cm⁻¹)
eigval :       -0.00    -0.00    -0.00    -0.00     0.00     0.00
eigval :        9.59    19.44    27.91    36.12    39.38    51.41
eigval :       72.53   104.25   113.32   131.23   135.67   182.87
eigval :      200.94   217.61   247.85   250.96   261.72   276.20
eigval :      286.58   298.12   320.48   350.02   363.08   388.40
eigval :      395.50   413.27   415.87   428.21   439.50   447.84
eigval :      487.47   509.21   516.01   524.89   526.89   568.18
eigval :      572.04   594.23   600.48   631.01   656.78   661.89
eigval :      667.87   668.20   684.73   703.45   731.63   776.74
eigval :      779.40   779.87   798.75   806.02   853.79   864.55
eigval :      865.02   893.29   896.59   900.17   902.85   906.06
eigval :      914.37   916.90   918.83   919.79   928.82   932.02
eigval :      933.70   990.61   993.19  1073.74  1079.67  1089.72
eigval :     1092.64  1102.71  1105.48  1107.23  1116.46  1123.22
eigval :     1130.13  1168.22  1168.93  1173.72  1180.65  1184.86
eigval :     1198.68  1200.06  1215.71  1233.30  1239.00  1243.38
eigval :     1259.76  1275.17  1300.12  1302.89  1310.16  1331.05
eigval :     1349.44  1386.92  1411.40  1422.21  1422.91  1437.55
eigval :     1450.21  1479.74  1500.63  1548.94  1549.29  1567.25
eigval :     1569.41  1578.54  1584.66  1589.64  1600.92  3068.37
eigval :     3076.03  3089.69  3090.32  3093.48  3094.08  3096.69
eigval :     3098.58  3102.75  3103.02  3106.80  3106.83  3107.10
eigval :     3110.18  3111.56  3114.82

   temp. (K)  partition function   enthalpy   heat capacity  entropy
                                   cal/mol     cal/K/mol   cal/K/mol   J/K/mol
 298.15  VIB  0.180E+11            13199.428     83.352     81.290
         ROT  0.173E+08              888.752      2.981     36.103
         INT  0.311E+18            14088.180     86.333    117.392
         TR   0.775E+28             1481.254      4.968     43.834
         TOT                       15569.4338    91.3007   161.2259   674.5691

       T/K    H(0)-H(T)+PV         H(T)/Eh          T*S/Eh         G(T)/Eh
   ------------------------------------------------------------------------
    298.15    0.248115E-01    0.352250E+00    0.766036E-01    0.275646E+00
   ------------------------------------------------------------------------

         :::::::::::::::::::::::::::::::::::::::::::::::::::::
         ::                  THERMODYNAMIC                  ::
         :::::::::::::::::::::::::::::::::::::::::::::::::::::
         :: total free energy         -78.440689991857 Eh   ::
         ::.................................................::
         :: total energy              -78.716336170302 Eh   ::
         :: zero point energy           0.327438324106 Eh   ::
         :: G(RRHO) w/o ZPVE           -0.051792145661 Eh   ::
         :: G(RRHO) contrib.            0.275646178445 Eh   ::
         :::::::::::::::::::::::::::::::::::::::::::::::::::::

           -------------------------------------------------
          | TOTAL ENERGY              -78.716336170302 Eh   |
          | TOTAL ENTHALPY            -78.364086374076 Eh   |
          | TOTAL FREE ENERGY         -78.440689991857 Eh   |
          | GRADIENT NORM               0.000046443527 Eh/α |
          | HOMO-LUMO GAP               1.721811349583 eV   |
           -------------------------------------------------

 * finished run on 2025/08/24 at 14:30:16.292
