   * xtb version 6.7.1 (edcfbbe) compiled by 'albert@albert-system' on 2024-07-22

   ID    Z sym.   atoms
    1    8 O      1, 3, 22
    2   16 S      2
    3    6 C      4-7, 9-14, 16-21, 23-29
    4    7 N      8, 15
    5    1 H      30-45

          program call               : xtb data2507/toluene/PSPP/PSPP_toluene_S0_crest.xyz --gfn 2 --gbsa toluene --ohess vtight --parallel 40 --molden --ceasefiles --namespace data2507/toluene/PSPP/PSPP_toluene_S0_finalOpt
      * Solvation model:               GBSA
        Solvent                        toluene
        Solvent mass                       9.2140E+01 g/mol
          :  Hamiltonian                  GFN2-xTB          :
 * total energy  :   -78.7154950 Eh     change       -0.1676881E-09 Eh
 * total energy  :   -78.7156005 Eh     change       -0.1054902E-03 Eh
 * total energy  :   -78.7156681 Eh     change       -0.6754614E-04 Eh
 * total energy  :   -78.7156981 Eh     change       -0.3003864E-04 Eh
 * total energy  :   -78.7157272 Eh     change       -0.2914520E-04 Eh
 * total energy  :   -78.7157705 Eh     change       -0.4328359E-04 Eh
 * total energy  :   -78.7158076 Eh     change       -0.3710930E-04 Eh
 * total energy  :   -78.7158538 Eh     change       -0.4617063E-04 Eh
 * total energy  :   -78.7159159 Eh     change       -0.6206337E-04 Eh
 * total energy  :   -78.7159792 Eh     change       -0.6329682E-04 Eh
 * total energy  :   -78.7163047 Eh     change       -0.2997914E-06 Eh
 * total energy  :   -78.7163049 Eh     change       -0.1771919E-06 Eh
 * total energy  :   -78.7163050 Eh     change       -0.1200598E-06 Eh
 * total energy  :   -78.7163051 Eh     change       -0.1326978E-06 Eh
 * total energy  :   -78.7163053 Eh     change       -0.1771005E-06 Eh
 * total energy  :   -78.7163055 Eh     change       -0.1540875E-06 Eh
 * total energy  :   -78.7163056 Eh     change       -0.1020987E-06 Eh
 * total energy  :   -78.7163057 Eh     change       -0.1100166E-06 Eh
 * total energy  :   -78.7163057 Eh     change       -0.1357918E-08 Eh
   *** GEOMETRY OPTIMIZATION CONVERGED AFTER 44 ITERATIONS ***

 final structure:
================
45
 xtb: 6.7.1 (edcfbbe)
O            3.85150786497137       -2.52425800025881       -0.59668887789331
S            2.94197708076542       -1.43879427472507       -0.88802010741282
O            2.54156387059696       -1.25529110162239       -2.26410712849612
C            3.67541595031477        0.09243257806232       -0.29932697287676
C            4.51079727142441        0.07479556243250        0.80411291291776
C            5.01976075712387        1.28231256033677        1.25681790276015
C            4.65457019102759        2.43968480846791        0.58059901088557
N            3.85878983924311        2.45053601316406       -0.47730377357968
C            3.37891244012204        1.29923412798194       -0.91168563487428
C            1.47801504110740       -1.59993725957432        0.13782036496221
C            1.49652579195210       -2.42037776569440        1.24933124226181
C            0.36987210510416       -2.47599989971491        2.05603526571263
C           -0.74140857861499       -1.70810452866922        1.75471362437678
C           -0.75205140332410       -0.88553482609733        0.62738306224781
N           -1.88067000151856       -0.10350144055860        0.32270037737842
C           -1.77445952101176        1.29058010806089        0.23385365473515
C           -0.60321844687047        1.96936829266338        0.54756438933566
C           -0.53351048392592        3.35148254501563        0.45582533026812
C           -1.63815784246310        4.08078569701210        0.06379334844064
C           -2.82607761770604        3.42230004402126       -0.21742731414478
C           -2.89948631665822        2.04402169312454       -0.12608999836383
O           -4.12086241201061        1.46973036828563       -0.38583863822570
C           -4.20742680786335        0.10017111260785       -0.30438822430813
C           -5.43777578133683       -0.46395660076001       -0.58949487121307
C           -5.60000919052700       -1.84112585945715       -0.56257596648038
C           -4.51752827521871       -2.64620884797319       -0.26978912355538
C           -3.28262753686957       -2.08463382810112        0.01897501912820
C           -3.11143873267103       -0.70584618398441        0.03039839621746
C            0.37625014297171       -0.83834230776519       -0.18995269895566
H            4.75511715356756       -0.86709713498342        1.27063329221859
H            5.67902798519464        1.32473348945627        2.10883088494076
H            5.01706358132658        3.40943024424927        0.89450576342690
H            2.74169539005451        1.32797623752975       -1.78461899921948
H            2.37803785079999       -3.00570843628812        1.45477267486639
H            0.36292055132191       -3.11020358160137        2.92869889670354
H           -1.61121106109309       -1.73631000311572        2.39368290008822
H            0.26366875798438        1.41601938702298        0.87278624438606
H            0.39331237411207        3.84862638156076        0.69627621880154
H           -1.58942834307070        5.15517245542985       -0.01532926621355
H           -3.71433806259757        3.96173477362948       -0.50636061770437
H           -6.25551372348359        0.19476115897040       -0.83627543382826
H           -6.56408209942750       -2.27155748294096       -0.78275557371907
H           -4.62099764209879       -3.72033087511799       -0.26606154275834
H           -2.44282106989155       -2.72864061132292        0.22563025845286
H            0.39587108067607       -0.23113811905763       -1.08129334369711

          :  Hamiltonian                  GFN2-xTB          :
         :: gradient norm              0.000034306607 Eh/a0 ::
         :: HOMO-LUMO gap              1.730210167597 eV    ::
         :: SCC energy               -79.945302883009 Eh    ::
         :: -> dispersion             -0.061308190165 Eh    ::
         :: -> Gsolv                  -0.038813558019 Eh    ::
         :: repulsion energy           1.228997207585 Eh    ::

    * Orbital Energies and Occupations

         #    Occupation            Energy/Eh            Energy/eV
      -------------------------------------------------------------
         1        2.0000           -0.7864281             -21.3998
       ...           ...                  ...                  ...
        59        2.0000           -0.4512793             -12.2799
        60        2.0000           -0.4457925             -12.1306
        61        2.0000           -0.4422183             -12.0334
        62        2.0000           -0.4404375             -11.9849
        63        2.0000           -0.4386769             -11.9370
        64        2.0000           -0.4315309             -11.7426
        65        2.0000           -0.4288088             -11.6685
        66        2.0000           -0.4236911             -11.5292
        67        2.0000           -0.4192156             -11.4074
        68        2.0000           -0.4164922             -11.3333
        69        2.0000           -0.3945048             -10.7350
        70        2.0000           -0.3923933             -10.6776
        71        2.0000           -0.3490959              -9.4994 (HOMO)
        72                         -0.2855118              -7.7692 (LUMO)
        73                         -0.2743830              -7.4663
        74                         -0.2621628              -7.1338
        75                         -0.2589808              -7.0472
        76                         -0.2420285              -6.5859
        77                         -0.2334882              -6.3535
        78                         -0.2187215              -5.9517
        79                         -0.1999830              -5.4418
        80                         -0.1596508              -4.3443
        81                         -0.1394651              -3.7950
        82                         -0.1312569              -3.5717
       ...                                ...                  ...
       137                          1.1643403              31.6833
      -------------------------------------------------------------
                  HL-Gap            0.0635841 Eh            1.7302 eV

     #   Z          covCN         q      C6AA      α(0)
     1   8 O        0.860    -0.567    25.322     6.747
     2  16 S        3.811     0.948   108.143    17.503
     3   8 O        0.860    -0.573    25.457     6.765
     4   6 C        2.964    -0.087    30.171     9.010
     5   6 C        2.962    -0.007    28.195     8.710
     6   6 C        2.916    -0.030    28.741     8.791
     7   6 C        2.912     0.063    26.593     8.456
     8   7 N        1.837    -0.200    26.165     7.580
     9   6 C        2.940     0.063    26.577     8.455
    10   6 C        2.971    -0.073    29.822     8.958
    11   6 C        2.951    -0.029    28.723     8.790
    12   6 C        2.921    -0.019    28.495     8.754
    13   6 C        2.921    -0.035    28.880     8.813
    14   6 C        2.921     0.075    26.327     8.414
    15   7 N        2.750    -0.067    22.548     7.052
    16   6 C        2.921     0.039    27.118     8.540
    17   6 C        2.924    -0.061    29.505     8.908
    18   6 C        2.919    -0.038    28.949     8.823
    19   6 C        2.919    -0.039    28.966     8.826
    20   6 C        2.919    -0.057    29.410     8.893
    21   6 C        2.883     0.124    25.276     8.242
    22   8 O        1.708    -0.267    18.426     5.796
    23   6 C        2.883     0.124    25.281     8.243
    24   6 C        2.920    -0.057    29.411     8.893
    25   6 C        2.919    -0.040    28.983     8.828
    26   6 C        2.919    -0.038    28.949     8.823
    27   6 C        2.924    -0.061    29.513     8.909
    28   6 C        2.920     0.040    27.102     8.537
    29   6 C        2.968    -0.041    29.017     8.836
    30   1 H        0.926     0.070     2.087     2.259
    31   1 H        0.926     0.076     2.016     2.220
    32   1 H        0.925     0.071     2.077     2.253
    33   1 H        0.926     0.060     2.199     2.319
    34   1 H        0.926     0.067     2.115     2.274
    35   1 H        0.926     0.074     2.042     2.234
    36   1 H        0.926     0.072     2.061     2.245
    37   1 H        0.926     0.032     2.552     2.498
    38   1 H        0.926     0.046     2.373     2.409
    39   1 H        0.926     0.047     2.358     2.401
    40   1 H        0.926     0.052     2.295     2.369
    41   1 H        0.926     0.051     2.307     2.375
    42   1 H        0.926     0.045     2.383     2.414
    43   1 H        0.926     0.044     2.394     2.420
    44   1 H        0.926     0.041     2.434     2.440
    45   1 H        0.926     0.060     2.204     2.322

molecular dipole:
                 x           y           z       tot (Debye)
 q only:       -0.496       0.890       2.648
   full:       -0.278       0.483       2.644       6.869

 projected vibrational frequencies (cm⁻¹)
eigval :       -0.00    -0.00     0.00     0.00     0.00     0.00
eigval :       -7.65    19.86    28.18    32.92    40.08    53.09
eigval :       71.70   106.43   114.34   129.23   136.86   183.62
eigval :      201.68   219.16   248.73   251.70   262.06   276.75
eigval :      289.20   293.49   321.55   348.35   362.55   387.72
eigval :      394.90   411.17   419.86   430.66   439.43   449.23
eigval :      488.31   509.90   516.03   524.76   526.49   567.88
eigval :      572.39   593.86   600.78   631.07   658.60   662.55
eigval :      667.89   668.93   683.88   703.34   730.92   776.61
eigval :      779.89   782.11   800.38   805.86   854.11   868.81
eigval :      869.10   891.53   899.42   902.95   904.29   907.49
eigval :      915.60   917.48   919.69   920.26   923.50   931.89
eigval :      932.98   990.46   992.89  1073.79  1079.31  1089.25
eigval :     1092.40  1101.08  1106.02  1107.96  1115.92  1123.58
eigval :     1130.36  1167.35  1170.91  1174.13  1178.62  1184.59
eigval :     1198.84  1200.33  1215.77  1232.32  1237.66  1243.74
eigval :     1260.45  1274.47  1299.79  1302.99  1310.39  1331.20
eigval :     1349.61  1386.38  1411.35  1422.29  1423.15  1437.80
eigval :     1449.95  1479.77  1500.80  1548.82  1549.29  1567.54
eigval :     1569.01  1578.68  1584.94  1589.79  1601.09  3067.55
eigval :     3075.19  3089.52  3092.44  3093.42  3093.60  3097.01
eigval :     3098.36  3102.74  3103.98  3106.09  3106.56  3106.95
eigval :     3110.78  3111.59  3114.41

   temp. (K)  partition function   enthalpy   heat capacity  entropy
                                   cal/mol     cal/K/mol   cal/K/mol   J/K/mol
 298.15  VIB  0.222E+11            13192.022     83.303     81.411
         ROT  0.171E+08              888.752      2.981     36.075
         INT  0.379E+18            14080.775     86.284    117.486
         TR   0.775E+28             1481.254      4.968     43.834
         TOT                       15562.0285    91.2517   161.3198   674.9621

       T/K    H(0)-H(T)+PV         H(T)/Eh          T*S/Eh         G(T)/Eh
   ------------------------------------------------------------------------
    298.15    0.247997E-01    0.352288E+00    0.766482E-01    0.275640E+00
   ------------------------------------------------------------------------

         :::::::::::::::::::::::::::::::::::::::::::::::::::::
         ::                  THERMODYNAMIC                  ::
         :::::::::::::::::::::::::::::::::::::::::::::::::::::
         :: total free energy         -78.440666064812 Eh   ::
         ::.................................................::
         :: total energy              -78.716305674978 Eh   ::
         :: zero point energy           0.327488188215 Eh   ::
         :: G(RRHO) w/o ZPVE           -0.051848578049 Eh   ::
         :: G(RRHO) contrib.            0.275639610166 Eh   ::
         :::::::::::::::::::::::::::::::::::::::::::::::::::::

           -------------------------------------------------
          | TOTAL ENERGY              -78.716305674978 Eh   |
          | TOTAL ENTHALPY            -78.364017815850 Eh   |
          | TOTAL FREE ENERGY         -78.440666064812 Eh   |
          | GRADIENT NORM               0.000034313028 Eh/α |
          | HOMO-LUMO GAP               1.730210424799 eV   |
           -------------------------------------------------

 * finished run on 2025/08/24 at 14:32:18.148
