   * xtb version 6.7.1 (edcfbbe) compiled by 'albert@albert-system' on 2024-07-22

   ID    Z sym.   atoms
    1    6 C      1-6, 8-16, 18-38, 40-51
    2    5 B      7
    3    7 N      17, 39
    4    1 H      52-92

          program call               : xtb data2507/gas/BCzBMes/BCzBMes_gas_T1_crest.xyz --gfn 2 --spinpol --tblite --uhf 2 --ohess vtight --parallel 40 --molden --ceasefiles --namespace data2507/gas/BCzBMes/BCzBMes_gas_T1_finalOpt
 * total energy  :  -130.7966988 Eh     change       -0.3380222E-08 Eh
 * total energy  :  -130.7967225 Eh     change       -0.2369523E-04 Eh
 * total energy  :  -130.7967474 Eh     change       -0.2485989E-04 Eh
 * total energy  :  -130.7967536 Eh     change       -0.6205194E-05 Eh
 * total energy  :  -130.7967598 Eh     change       -0.6239192E-05 Eh
 * total energy  :  -130.7967588 Eh     change        0.1056229E-05 Eh
 * total energy  :  -130.7967623 Eh     change       -0.3517650E-05 Eh
 * total energy  :  -130.7967666 Eh     change       -0.4333127E-05 Eh
 * total energy  :  -130.7967695 Eh     change       -0.2911049E-05 Eh
 * total energy  :  -130.7967765 Eh     change       -0.6975780E-05 Eh
 * total energy  :  -130.7967834 Eh     change       -0.8834216E-06 Eh
 * total energy  :  -130.7967841 Eh     change       -0.7871136E-06 Eh
 * total energy  :  -130.7967850 Eh     change       -0.8598349E-06 Eh
 * total energy  :  -130.7967857 Eh     change       -0.6825897E-06 Eh
 * total energy  :  -130.7967862 Eh     change       -0.4726301E-06 Eh
 * total energy  :  -130.7967864 Eh     change       -0.2779684E-06 Eh
 * total energy  :  -130.7967869 Eh     change       -0.4371199E-06 Eh
 * total energy  :  -130.7967873 Eh     change       -0.4359744E-06 Eh
 * total energy  :  -130.7967873 Eh     change       -0.7828987E-08 Eh
   *** GEOMETRY OPTIMIZATION CONVERGED AFTER 22 ITERATIONS ***

 final structure:
================
92
 xtb: 6.7.1 (edcfbbe)
C           -9.18650878425612       -1.93089312821329       -2.04653814005835
C           -7.90272105588344       -1.35339214201289       -1.53244254117372
C           -6.68392066345697       -1.67292638839985       -2.10948713755283
C           -5.49329584175140       -1.14918572978972       -1.63049705457857
C           -4.21900509855908       -1.53281282201673       -2.32891463984908
C           -5.48998805489422       -0.27663430841911       -0.52692562356881
B           -4.15139849121986        0.32313461503734        0.02663088870825
C           -3.96391993341848        1.85468929709180        0.30135485537422
C           -4.34107294782896        2.82202383119155       -0.65238086320516
C           -4.92995905683278        2.41090325973143       -1.97103638190726
C           -4.14444262133947        4.16808903336624       -0.40185469226816
C           -3.58938090828284        4.61442715890584        0.79125728592798
C           -3.37740661876978        6.07840063014639        1.03146354507598
C           -3.23605263556429        3.66719846448030        1.73903068074159
C           -3.41937023274410        2.31147266497258        1.51614604067672
C           -3.03208017748915        1.35802714458414        2.61125861814917
N           -3.03442568201002       -0.56368735466228        0.28355871273475
C           -3.11624440475705       -1.87355144807496        0.76352382238571
C           -4.23903168152640       -2.60300259558330        1.11356166193087
C           -4.05781442652563       -3.89315177464229        1.59256174652195
C           -2.79051621096476       -4.44080137157134        1.73524082779479
C           -1.66026079331745       -3.70660662923190        1.41189844376361
C           -1.82318141638829       -2.41828768149817        0.93164667042886
C           -0.89526752239325       -1.39225197324865        0.52696276232300
C            0.46656934605926       -1.33617918762489        0.47669644710434
C            1.11976483216352       -0.14600505707037        0.03711462860873
C            2.53385660210993       -0.04568838776627       -0.00095056991313
C            3.18924530681144        1.22892413544515       -0.05042965107949
C            4.54578734681019        1.36882474406532       -0.10451452668704
C            5.33737157437126        0.21239544052336       -0.13828587397540
C            4.72809019559103       -1.07143847389449       -0.05029241034543
C            3.36686601681366       -1.20397416475728        0.02333587451630
C            5.80979153423517       -2.02658758566429       -0.05543509124272
C            5.85576177376554       -3.40978156500339       -0.01510173047293
C            7.09148433504707       -4.03451659269923       -0.06806678190442
C            8.26196715488329       -3.29338515718755       -0.17673218953439
C            8.23989773216564       -1.90901901931532       -0.21775644567865
C            7.00724901928878       -1.27963289784568       -0.13661800418294
N            6.70205347003200        0.07115400963485       -0.18425249040436
C            7.62927022061432        1.11173652432879       -0.30028796306080
C            7.44865341615840        2.10641306401543       -1.26112685414989
C            8.36449238113709        3.13411627292255       -1.37028347114461
C            9.46841355590396        3.18137046593270       -0.53255694670500
C            9.64984875399907        2.19305484173530        0.42271688024168
C            8.73714504764655        1.16386345234738        0.54540079073027
C            0.27663955165846        0.94363644394300       -0.38831680160833
C           -1.08318627628886        0.88636072215450       -0.35843752208770
C           -1.70645175219098       -0.27374574094226        0.13825711212813
C           -6.73204290967589        0.05827730404477        0.04803208364070
C           -6.80423499014420        0.97996862841905        1.23123371358441
C           -7.90411668186910       -0.48232662946872       -0.45008130787189
H           -9.94676201728022       -1.15686994297094       -2.13920884375512
H           -9.56301706346273       -2.68568018302292       -1.35500245021105
H           -9.04167743445342       -2.39922747956023       -3.01720845436087
H           -6.66033445909585       -2.34171483690751       -2.95960210282031
H           -3.50443063508743       -0.71276406584655       -2.33626029460207
H           -4.42351820739102       -1.82609390235498       -3.35690327368908
H           -3.75185123347594       -2.38132406795811       -1.82676902041314
H           -4.99068824056531        3.26230472940911       -2.64565872070250
H           -5.93218583643053        2.00800967779644       -1.83431270199977
H           -4.32773521795521        1.63582489320096       -2.44069067017511
H           -4.42921507975206        4.89409683196477       -1.15190923113649
H           -4.26177251247275        6.64699612969750        0.74808299682860
H           -2.54242955153686        6.44089838483317        0.43048471967493
H           -3.15469601800065        6.27317908750019        2.07788867487299
H           -2.81248973560230        3.99264969739276        2.67993281025241
H           -3.08195670109489        1.85314491834318        3.57926941572814
H           -2.00832279114878        1.00904196745213        2.46712950815567
H           -3.68316104126968        0.48665846155374        2.63205200215982
H           -5.22876069006048       -2.18814221195412        1.01256692795899
H           -4.92345644264095       -4.47888312533287        1.86381406096653
H           -2.68487750962439       -5.44772624081496        2.11121310749961
H           -0.67329470254087       -4.12689053387411        1.53442903161666
H            1.04494931596835       -2.18210571271935        0.81182143763841
H            2.58599921748203        2.12009308701078        0.01138536678119
H            5.00116029838727        2.34804762445608       -0.10025437438819
H            2.93249799009434       -2.18937369652377        0.05795754590457
H            4.94622326577039       -3.98734459674418        0.04940851760891
H            7.14792588566372       -5.11225374838645       -0.03638396251332
H            9.21054717937505       -3.80619577072734       -0.23505095740193
H            9.15372033402111       -1.34463958215786       -0.32349841359015
H            6.60138008711542        2.05222543590253       -1.92823278486845
H            8.22137723153268        3.89922520669986       -2.11885478959718
H           10.18317861316011        3.98489093896941       -0.62313138037855
H           10.50401066500157        2.23010775030447        1.08252899467058
H            8.86090167105232        0.40902729269705        1.30743500487072
H            0.74391405446780        1.82225403498028       -0.80223647046444
H           -1.67855987433318        1.71355815289781       -0.71134534344030
H           -7.80756162945553        0.98642557463660        1.65181370125095
H           -6.54590424974650        1.99697536814721        0.94057084061640
H           -6.10322662639994        0.67365327997942        2.00523226658244
H           -8.84684331334000       -0.22175677197773        0.01261274949561

 projected vibrational frequencies (cm⁻¹)
eigval :       -0.00    -0.00    -0.00     0.00     0.00     0.00
eigval :       -6.62     5.80     9.61    10.34    18.63    24.70
eigval :       28.22    35.45    36.60    41.33    52.22    60.02
eigval :       63.79    67.90    79.57    90.12   101.25   108.45
eigval :      118.14   124.39   125.86   135.46   138.42   147.25
eigval :      159.07   162.81   165.71   168.55   174.68   185.92
eigval :      186.94   199.13   205.03   205.75   217.91   239.80
eigval :      251.90   267.68   275.69   276.01   276.48   286.81
eigval :      310.32   321.02   324.58   326.30   343.49   355.94
eigval :      380.39   381.44   389.41   390.64   396.10   404.61
eigval :      416.17   430.24   454.77   465.09   473.94   483.17
eigval :      486.03   494.83   496.09   500.74   509.01   515.22
eigval :      520.00   522.37   534.53   536.85   550.16   553.23
eigval :      561.96   570.19   586.84   587.99   590.94   595.71
eigval :      597.66   598.44   602.60   611.85   628.04   656.12
eigval :      660.70   667.50   668.52   675.52   678.42   699.72
eigval :      705.84   712.34   758.06   761.55   772.38   774.65
eigval :      783.40   795.62   800.81   812.77   822.30   839.37
eigval :      840.76   843.97   851.60   865.18   869.59   876.80
eigval :      880.68   885.53   886.20   893.39   894.16   899.53
eigval :      900.38   903.48   904.80   918.92   919.27   920.35
eigval :      929.22   931.59   962.72   963.76   977.28   977.55
eigval :      986.49   991.94   997.99  1012.02  1017.50  1020.54
eigval :     1027.34  1027.61  1029.18  1029.71  1031.57  1032.22
eigval :     1034.71  1037.34  1042.88  1045.54  1047.21  1071.30
eigval :     1071.94  1076.94  1085.82  1115.55  1119.02  1126.98
eigval :     1139.69  1151.95  1156.72  1174.22  1176.44  1176.97
eigval :     1179.61  1194.91  1202.15  1202.39  1207.49  1213.46
eigval :     1221.07  1235.40  1236.09  1241.08  1248.84  1252.79
eigval :     1259.10  1264.12  1274.08  1290.93  1305.54  1306.78
eigval :     1309.94  1310.80  1322.29  1323.91  1327.30  1337.48
eigval :     1341.36  1349.14  1361.11  1368.99  1376.06  1403.43
eigval :     1403.66  1403.94  1404.42  1405.84  1411.25  1419.58
eigval :     1421.64  1423.55  1430.55  1431.22  1432.47  1434.39
eigval :     1440.97  1451.57  1461.79  1466.75  1474.08  1479.44
eigval :     1481.37  1483.90  1483.99  1486.58  1487.00  1489.24
eigval :     1489.32  1490.79  1492.33  1492.79  1496.64  1497.74
eigval :     1498.94  1541.46  1543.93  1545.34  1547.41  1562.90
eigval :     1571.36  1580.24  1580.94  1584.44  1585.10  1591.87
eigval :     1595.90  2984.13  2986.62  2990.81  2991.41  3012.44
eigval :     3013.16  3018.74  3019.02  3022.18  3023.96  3024.59
eigval :     3026.02  3028.25  3030.57  3032.10  3033.13  3037.82
eigval :     3037.98  3056.94  3057.41  3057.90  3058.68  3077.51
eigval :     3078.95  3079.47  3080.23  3081.68  3084.95  3085.44
eigval :     3091.44  3092.78  3093.61  3094.69  3095.58  3097.28
eigval :     3098.58  3101.41  3106.10  3109.92  3113.22  3113.72

   temp. (K)  partition function   enthalpy   heat capacity  entropy
                                   cal/mol     cal/K/mol   cal/K/mol   J/K/mol
 298.15  VIB  0.147E+24            27421.457    165.606    174.621
         ROT  0.116E+09              888.752      2.981     39.881
         INT  0.171E+32            28310.209    168.587    214.502
         TR   0.163E+29             1481.254      4.968     45.307
         TOT                       29791.4631   173.5550   259.8094  1087.0425

       T/K    H(0)-H(T)+PV         H(T)/Eh          T*S/Eh         G(T)/Eh
   ------------------------------------------------------------------------
    298.15    0.474757E-01    0.778583E+00    0.123444E+00    0.655140E+00
   ------------------------------------------------------------------------

         :::::::::::::::::::::::::::::::::::::::::::::::::::::
         ::                  THERMODYNAMIC                  ::
         :::::::::::::::::::::::::::::::::::::::::::::::::::::
         :: total free energy        -130.141647719056 Eh   ::
         ::.................................................::
         :: total energy             -130.796787339126 Eh   ::
         :: zero point energy           0.731107727876 Eh   ::
         :: G(RRHO) w/o ZPVE           -0.075968107806 Eh   ::
         :: G(RRHO) contrib.            0.655139620070 Eh   ::
         :::::::::::::::::::::::::::::::::::::::::::::::::::::

           -------------------------------------------------
          | TOTAL ENERGY             -130.796787339126 Eh   |
          | TOTAL ENTHALPY           -130.018203892789 Eh   |
          | TOTAL FREE ENERGY        -130.141647719056 Eh   |
          | GRADIENT NORM               0.000065445399 Eh/α |
           -------------------------------------------------

 * finished run on 2025/07/19 at 03:45:48.627
