   * xtb version 6.7.1 (edcfbbe) compiled by 'albert@albert-system' on 2024-07-22

   ID    Z sym.   atoms
    1    6 C      1-6, 8-16, 18-38, 40-51
    2    5 B      7
    3    7 N      17, 39
    4    1 H      52-92

          program call               : xtb data2507/gas/BCzBMes/BCzBMes.xyz --gfn 2 --ohess vtight --parallel 40 --molden --ceasefiles --namespace data2507/gas/BCzBMes/BCzBMes_gas_S0_preOpt
          :  Hamiltonian                  GFN2-xTB          :
 * total energy  :  -130.8215296 Eh     change       -0.2937782E-08 Eh
 * total energy  :  -130.8674101 Eh     change       -0.4588047E-01 Eh
 * total energy  :  -130.8802595 Eh     change       -0.1284937E-01 Eh
 * total energy  :  -130.8829518 Eh     change       -0.2692290E-02 Eh
 * total energy  :  -130.8846605 Eh     change       -0.1708738E-02 Eh
 * total energy  :  -130.8855947 Eh     change       -0.9341804E-03 Eh
 * total energy  :  -130.8864880 Eh     change       -0.8933506E-03 Eh
 * total energy  :  -130.8874085 Eh     change       -0.9205000E-03 Eh
 * total energy  :  -130.8882793 Eh     change       -0.8708113E-03 Eh
 * total energy  :  -130.8890766 Eh     change       -0.7972167E-03 Eh
 * total energy  :  -130.8945138 Eh     change       -0.1876709E-05 Eh
 * total energy  :  -130.8945158 Eh     change       -0.1929783E-05 Eh
 * total energy  :  -130.8945176 Eh     change       -0.1839755E-05 Eh
 * total energy  :  -130.8945193 Eh     change       -0.1671189E-05 Eh
 * total energy  :  -130.8945208 Eh     change       -0.1502777E-05 Eh
 * total energy  :  -130.8945221 Eh     change       -0.1373584E-05 Eh
 * total energy  :  -130.8945235 Eh     change       -0.1339069E-05 Eh
 * total energy  :  -130.8945249 Eh     change       -0.1389538E-05 Eh
 * total energy  :  -130.8945249 Eh     change       -0.8355016E-08 Eh
   *** GEOMETRY OPTIMIZATION CONVERGED AFTER 122 ITERATIONS ***

 final structure:
================
92
 xtb: 6.7.1 (edcfbbe)
C           -8.43483550403146       -1.91396148324731       -2.99473458614558
C           -7.22422835585232       -1.45343169203928       -2.24119404549495
C           -5.96648650293434       -1.49598524478484       -2.82234382946230
C           -4.83792285322345       -1.05872510522664       -2.14619364740927
C           -3.51166937612795       -1.15451939806975       -2.84687939996284
C           -4.94567655700799       -0.54957748146754       -0.84136536242686
B           -3.65934238275467       -0.00396977430555       -0.11147863052859
C           -3.61053438003449        1.47052871828724        0.44259439808383
C           -3.90029516856118        2.58509821558621       -0.35954154750674
C           -4.17508117986503        2.41937337296725       -1.82568302457153
C           -3.89911127751212        3.86093155651532        0.18319371985310
C           -3.62719235771623        4.07749744924893        1.52531530708284
C           -3.65936574572253        5.45713414014882        2.10931628921067
C           -3.34558580785957        2.97671982223314        2.31993478518078
C           -3.32978198357420        1.69124647016284        1.80143397056992
C           -2.99599347368915        0.55543099574561        2.72716406479194
N           -2.52505629129745       -0.85784258738064        0.04052131893857
C           -2.53252002077896       -2.25250956949949        0.10605329427326
C           -3.60960294057351       -3.12521632715921        0.15041058135399
C           -3.35019505374659       -4.48030174653766        0.25222612779628
C           -2.05025119525036       -4.97014454143944        0.32785488890592
C           -0.97204521302185       -4.10723066771213        0.31533873734736
C           -1.21465997995041       -2.74566343022235        0.20901752493196
C           -0.34835025461375       -1.59752836434384        0.19163585140388
C            1.02961034806375       -1.46441375329389        0.21572484316198
C            1.58949961497922       -0.19478135287155        0.14298193263501
C            3.05077177384875       -0.03139270281360        0.13846945430649
C            3.65079489038861        0.89314591033132       -0.72752481273183
C            5.01893575521726        1.05687494043469       -0.79301118777291
C            5.80972009145562        0.26856330368994        0.03066341714286
C            5.22365365218536       -0.64603715634181        0.93503848923652
C            3.84653502728398       -0.79782717803367        0.98006088168014
C            6.30592394289210       -1.25097787224878        1.66038865909999
C            6.36636905003278       -2.22067691967186        2.65222260143503
C            7.60429789946515       -2.60558756214905        3.12662742940164
C            8.77293095215907       -2.04743589604334        2.61331918140232
C            8.73851923709068       -1.08092122448540        1.62640798698738
C            7.49630545539555       -0.67206858512860        1.16300421514073
N            7.18188949762626        0.24446632445912        0.17896172941730
C            8.09801729175731        1.00753367834035       -0.55763091937523
C            8.02619283168124        1.03415627375794       -1.94765584213837
C            8.92737719297686        1.79250231739198       -2.67129170027366
C            9.91057868657559        2.51913274824785       -2.02043956578701
C            9.98699094769201        2.48923117689190       -0.63787400146578
C            9.08345537253117        1.74246941187032        0.09516387106571
C            0.74636663166952        0.91850871383892        0.04890316117129
C           -0.62976644726537        0.80149588716876        0.02280655112521
C           -1.18667759292161       -0.46621261033573        0.10578864575378
C           -6.22101301847348       -0.49768499749633       -0.25773474312964
C           -6.39818911577484        0.01085304861334        1.14329204550404
C           -7.33128621840521       -0.95063287647397       -0.95337819575574
H           -8.83785715061383       -1.09307653379120       -3.58946228805678
H           -9.21305063609836       -2.24945508382862       -2.31296332537780
H           -8.18297328626562       -2.72685273784411       -3.67248474706969
H           -5.86160030383082       -1.88187400852858       -3.82733872425480
H           -3.02321923372094       -2.09604496012825       -2.59174823745806
H           -2.84513367636559       -0.34430004795995       -2.56353306616932
H           -3.65049334648058       -1.13185121523228       -3.92603100159194
H           -5.00526352728152        1.73487191753975       -1.98569944918434
H           -3.30309270180540        2.00890964743571       -2.33376587185750
H           -4.41729507309062        3.37630547644511       -2.28214630951910
H           -4.11786030581163        4.70663706594482       -0.45459946654533
H           -4.63796220027766        5.65220391703293        2.54999161475274
H           -3.47828379024104        6.20817948762841        1.34381178867758
H           -2.91224857957011        5.56303883475802        2.89316512286195
H           -3.13087409488655        3.12438027240487        3.36968898996941
H           -3.54820518901912       -0.34609839614020        2.47503562494756
H           -3.21953250164418        0.82627519407366        3.75714051363275
H           -1.93144515229610        0.32577613527841        2.66395251404566
H           -4.62456755016859       -2.76619652859331        0.10356956927495
H           -4.17879037703815       -5.17262075852042        0.27919571170101
H           -1.88725500822650       -6.03481599797803        0.40728990524837
H            0.03903167054354       -4.47830022154903        0.39155833128966
H            1.66046116375063       -2.33963987456415        0.25767639291522
H            3.02088103774604        1.48076126778617       -1.37886300592780
H            5.45635776583418        1.78206397078061       -1.46277987497183
H            3.39792830545495       -1.48838344532234        1.67830957661638
H            5.46089923618405       -2.66425130566205        3.03822155299730
H            7.67364124290314       -3.35640631308325        3.89973224527807
H            9.72797266108630       -2.38028417835814        2.99251875608162
H            9.65073048110957       -0.66821299492255        1.22239780911729
H            7.27237795280545        0.44844520459132       -2.45233660750886
H            8.86673122453560        1.80915660630777       -3.74950943993231
H           10.61518991488334        3.10697288786971       -2.58909056539252
H           10.74944899936897        3.05772277508144       -0.12609038094944
H            9.12578463473983        1.73482814327639        1.17411464997329
H            1.18628686633470        1.90404342061127        0.00744486394251
H           -1.24763913720927        1.68084167377618       -0.05830949763227
H           -5.86272871225074       -0.62144321697173        1.85077795545346
H           -7.44997416869701        0.01783269751524        1.41972948950620
H           -6.00463539526404        1.02067921304076        1.23730504057512
H           -8.30376295344545       -0.90945436492978       -0.48176007281349

          :  Hamiltonian                  GFN2-xTB          :
         :: gradient norm              0.000074663562 Eh/a0 ::
         :: HOMO-LUMO gap              2.729952045502 eV    ::
         :: SCC energy              -133.320824031922 Eh    ::
         :: -> dispersion             -0.127722296106 Eh    ::
         :: repulsion energy           2.426299146995 Eh    ::

    * Orbital Energies and Occupations

         #    Occupation            Energy/Eh            Energy/eV
      -------------------------------------------------------------
         1        2.0000           -0.6729499             -18.3119
       ...           ...                  ...                  ...
       111        2.0000           -0.4088296             -11.1248
       112        2.0000           -0.4075788             -11.0908
       113        2.0000           -0.4029065             -10.9636
       114        2.0000           -0.3947398             -10.7414
       115        2.0000           -0.3906316             -10.6296
       116        2.0000           -0.3803298             -10.3493
       117        2.0000           -0.3795491             -10.3281
       118        2.0000           -0.3771580             -10.2630
       119        2.0000           -0.3749848             -10.2039
       120        2.0000           -0.3726162             -10.1394
       121        2.0000           -0.3689081             -10.0385
       122        2.0000           -0.3645032              -9.9186
       123        2.0000           -0.3532560              -9.6126 (HOMO)
       124                         -0.2529321              -6.8826 (LUMO)
       125                         -0.2425949              -6.6013
       126                         -0.2373744              -6.4593
       127                         -0.2336373              -6.3576
       128                         -0.2315815              -6.3017
       129                         -0.2281838              -6.2092
       130                         -0.2119122              -5.7664
       131                         -0.2106210              -5.7313
       132                         -0.2056941              -5.5972
       133                         -0.2038965              -5.5483
       134                         -0.1992279              -5.4213
       ...                                ...                  ...
       245                          0.7576651              20.6171
      -------------------------------------------------------------
                  HL-Gap            0.1003239 Eh            2.7300 eV

     #   Z          covCN         q      C6AA      α(0)
     1   6 C        3.758    -0.107    22.591     6.777
     2   6 C        2.963     0.013    27.732     8.638
     3   6 C        2.930    -0.056    29.398     8.892
     4   6 C        2.967     0.011    27.760     8.642
     5   6 C        3.758    -0.107    22.595     6.777
     6   6 C        2.890    -0.088    30.205     9.011
     7   5 B        2.652     0.272    17.598     7.068
     8   6 C        2.890    -0.088    30.204     9.010
     9   6 C        2.966     0.009    27.804     8.649
    10   6 C        3.759    -0.111    22.668     6.788
    11   6 C        2.929    -0.056    29.397     8.892
    12   6 C        2.963     0.013    27.732     8.638
    13   6 C        3.758    -0.107    22.591     6.777
    14   6 C        2.929    -0.056    29.400     8.892
    15   6 C        2.967     0.012    27.756     8.642
    16   6 C        3.758    -0.107    22.601     6.778
    17   7 N        2.707    -0.103    23.261     7.163
    18   6 C        3.076     0.051    26.768     8.483
    19   6 C        2.911    -0.052    29.285     8.874
    20   6 C        2.923    -0.034    28.857     8.809
    21   6 C        2.920    -0.039    28.981     8.828
    22   6 C        2.913    -0.035    28.877     8.812
    23   6 C        3.064    -0.014    28.297     8.723
    24   6 C        3.061    -0.015    28.327     8.728
    25   6 C        2.919    -0.041    29.018     8.834
    26   6 C        2.977     0.001    27.989     8.678
    27   6 C        2.977    -0.000    28.033     8.685
    28   6 C        2.929    -0.039    28.965     8.826
    29   6 C        2.908    -0.052    29.292     8.875
    30   6 C        3.077     0.045    26.919     8.506
    31   6 C        3.065    -0.018    28.392     8.737
    32   6 C        2.918    -0.039    28.959     8.825
    33   6 C        3.069    -0.017    28.365     8.733
    34   6 C        2.913    -0.033    28.821     8.803
    35   6 C        2.920    -0.041    29.024     8.835
    36   6 C        2.924    -0.034    28.841     8.807
    37   6 C        2.910    -0.051    29.270     8.871
    38   6 C        3.076     0.047    26.875     8.500
    39   7 N        2.802    -0.044    22.094     6.981
    40   6 C        2.913     0.065    26.540     8.448
    41   6 C        2.922    -0.042    29.054     8.839
    42   6 C        2.920    -0.028    28.702     8.785
    43   6 C        2.919    -0.033    28.833     8.805
    44   6 C        2.920    -0.028    28.703     8.786
    45   6 C        2.922    -0.042    29.055     8.839
    46   6 C        2.928    -0.040    28.986     8.829
    47   6 C        2.910    -0.053    29.326     8.880
    48   6 C        3.075     0.049    26.826     8.492
    49   6 C        2.966     0.009    27.808     8.650
    50   6 C        3.759    -0.111    22.665     6.787
    51   6 C        2.929    -0.056    29.398     8.892
    52   1 H        0.924     0.043     2.404     2.424
    53   1 H        0.925     0.039     2.460     2.453
    54   1 H        0.925     0.040     2.452     2.449
    55   1 H        0.925     0.023     2.685     2.562
    56   1 H        0.924     0.043     2.412     2.429
    57   1 H        0.925     0.035     2.512     2.479
    58   1 H        0.925     0.037     2.486     2.466
    59   1 H        0.925     0.048     2.348     2.396
    60   1 H        0.925     0.037     2.494     2.470
    61   1 H        0.925     0.037     2.484     2.465
    62   1 H        0.925     0.023     2.694     2.567
    63   1 H        0.924     0.043     2.404     2.425
    64   1 H        0.925     0.039     2.465     2.455
    65   1 H        0.925     0.040     2.448     2.447
    66   1 H        0.925     0.023     2.682     2.561
    67   1 H        0.925     0.036     2.508     2.477
    68   1 H        0.925     0.037     2.486     2.466
    69   1 H        0.924     0.043     2.404     2.424
    70   1 H        0.926     0.036     2.501     2.473
    71   1 H        0.926     0.029     2.602     2.522
    72   1 H        0.926     0.028     2.621     2.532
    73   1 H        0.926     0.030     2.586     2.515
    74   1 H        0.926     0.032     2.557     2.501
    75   1 H        0.926     0.031     2.572     2.508
    76   1 H        0.926     0.027     2.632     2.537
    77   1 H        0.926     0.033     2.548     2.496
    78   1 H        0.926     0.030     2.579     2.511
    79   1 H        0.926     0.027     2.627     2.534
    80   1 H        0.926     0.028     2.614     2.528
    81   1 H        0.926     0.027     2.635     2.539
    82   1 H        0.926     0.041     2.441     2.443
    83   1 H        0.926     0.036     2.508     2.476
    84   1 H        0.926     0.035     2.523     2.484
    85   1 H        0.926     0.036     2.508     2.477
    86   1 H        0.926     0.040     2.442     2.444
    87   1 H        0.926     0.031     2.568     2.506
    88   1 H        0.926     0.037     2.495     2.470
    89   1 H        0.925     0.036     2.497     2.471
    90   1 H        0.925     0.037     2.483     2.464
    91   1 H        0.925     0.048     2.349     2.397
    92   1 H        0.925     0.023     2.693     2.566

molecular dipole:
                 x           y           z       tot (Debye)
 q only:        0.210       0.419      -0.279
   full:        0.235       0.485      -0.335       1.612

 projected vibrational frequencies (cm⁻¹)
eigval :       -0.00    -0.00    -0.00     0.00     0.00     0.00
eigval :       10.42    11.25    14.48    14.68    18.69    26.87
eigval :       27.23    31.88    40.67    42.92    44.06    57.73
eigval :       60.12    67.01    83.52    92.06    98.61   102.95
eigval :      108.62   115.44   125.48   135.60   140.21   145.81
eigval :      154.55   156.55   163.38   165.27   175.75   183.76
eigval :      188.23   204.24   204.67   207.64   228.48   244.36
eigval :      245.79   271.89   277.13   278.29   280.65   307.78
eigval :      318.34   321.65   329.82   331.96   358.87   364.55
eigval :      380.76   393.67   397.40   413.95   416.57   425.75
eigval :      437.29   442.05   457.30   468.02   477.67   484.84
eigval :      485.62   497.22   498.58   506.54   512.32   520.69
eigval :      526.70   531.48   536.28   544.91   555.73   561.30
eigval :      574.67   578.07   589.78   593.40   599.83   600.20
eigval :      606.85   613.07   616.84   629.76   633.91   667.70
eigval :      675.79   678.53   681.34   688.73   698.38   708.17
eigval :      715.59   726.03   763.49   770.30   775.61   778.88
eigval :      809.13   814.49   836.39   838.77   840.23   846.25
eigval :      865.44   869.11   871.87   874.44   881.87   885.44
eigval :      889.27   889.50   899.17   902.96   905.35   906.30
eigval :      911.63   916.86   920.97   922.02   924.13   931.72
eigval :      933.38   935.24   963.84   965.03   978.39   979.01
eigval :      998.20  1010.83  1020.22  1021.88  1027.74  1027.79
eigval :     1029.51  1031.14  1031.51  1032.83  1034.17  1040.61
eigval :     1041.00  1046.32  1048.17  1055.22  1071.52  1074.11
eigval :     1076.93  1080.71  1118.25  1121.55  1124.29  1153.44
eigval :     1158.49  1162.35  1176.61  1178.73  1181.30  1183.84
eigval :     1187.12  1201.26  1204.05  1212.29  1218.64  1226.78
eigval :     1235.06  1237.39  1243.61  1247.94  1256.04  1273.57
eigval :     1275.36  1283.51  1297.39  1307.39  1308.28  1316.99
eigval :     1318.41  1334.20  1334.25  1341.84  1345.94  1350.25
eigval :     1359.16  1362.55  1371.04  1404.07  1404.10  1404.31
eigval :     1404.43  1406.19  1407.96  1416.35  1420.98  1424.60
eigval :     1429.28  1430.95  1434.70  1437.98  1454.71  1458.57
eigval :     1466.53  1479.81  1480.46  1481.71  1484.21  1484.47
eigval :     1484.82  1485.03  1485.37  1485.67  1486.12  1489.22
eigval :     1490.67  1492.11  1493.72  1498.46  1500.66  1562.45
eigval :     1563.68  1564.39  1569.91  1582.75  1584.69  1586.09
eigval :     1596.42  1596.53  1600.26  1602.33  1604.09  1612.33
eigval :     1617.58  2990.94  2991.72  2991.82  2992.20  3004.01
eigval :     3004.61  3027.18  3028.19  3030.27  3031.65  3032.66
eigval :     3033.22  3035.39  3036.24  3037.62  3037.87  3041.21
eigval :     3042.86  3061.97  3062.06  3063.24  3063.78  3075.54
eigval :     3076.00  3078.15  3078.74  3080.57  3081.14  3082.61
eigval :     3083.74  3085.56  3087.81  3089.49  3090.58  3091.63
eigval :     3092.98  3094.09  3095.44  3098.97  3114.89  3116.79

   temp. (K)  partition function   enthalpy   heat capacity  entropy
                                   cal/mol     cal/K/mol   cal/K/mol   J/K/mol
 298.15  VIB  0.234E+23            27115.011    163.243    171.547
         ROT  0.117E+09              888.752      2.981     39.895
         INT  0.273E+31            28003.764    166.223    211.442
         TR   0.163E+29             1481.254      4.968     45.307
         TOT                       29485.0178   171.1916   256.7496  1074.2402

       T/K    H(0)-H(T)+PV         H(T)/Eh          T*S/Eh         G(T)/Eh
   ------------------------------------------------------------------------
    298.15    0.469874E-01    0.783114E+00    0.121990E+00    0.661124E+00
   ------------------------------------------------------------------------

         :::::::::::::::::::::::::::::::::::::::::::::::::::::
         ::                  THERMODYNAMIC                  ::
         :::::::::::::::::::::::::::::::::::::::::::::::::::::
         :: total free energy        -130.233400680764 Eh   ::
         ::.................................................::
         :: total energy             -130.894524884927 Eh   ::
         :: zero point energy           0.736126846647 Eh   ::
         :: G(RRHO) w/o ZPVE           -0.075002642484 Eh   ::
         :: G(RRHO) contrib.            0.661124204163 Eh   ::
         :::::::::::::::::::::::::::::::::::::::::::::::::::::

           -------------------------------------------------
          | TOTAL ENERGY             -130.894524884927 Eh   |
          | TOTAL ENTHALPY           -130.111410671621 Eh   |
          | TOTAL FREE ENERGY        -130.233400680764 Eh   |
          | GRADIENT NORM               0.000074661934 Eh/α |
          | HOMO-LUMO GAP               2.729952332684 eV   |
           -------------------------------------------------

 * finished run on 2025/07/19 at 03:20:49.167
