   * xtb version 6.7.1 (edcfbbe) compiled by 'albert@albert-system' on 2024-07-22

   ID    Z sym.   atoms
    1    6 C      1-6, 8-16, 18-38, 40-51
    2    5 B      7
    3    7 N      17, 39
    4    1 H      52-92

          program call               : xtb data2507/gas/BCzBMes/BCzBMes_gas_S0_crest.xyz --gfn 2 --ohess vtight --parallel 40 --molden --ceasefiles --namespace data2507/gas/BCzBMes/BCzBMes_gas_S0_finalOpt
          :  Hamiltonian                  GFN2-xTB          :
 * total energy  :  -130.8946645 Eh     change       -0.1177597E-08 Eh
 * total energy  :  -130.8946658 Eh     change       -0.1221338E-05 Eh
 * total energy  :  -130.8946670 Eh     change       -0.1208444E-05 Eh
 * total energy  :  -130.8946690 Eh     change       -0.2010006E-05 Eh
 * total energy  :  -130.8946720 Eh     change       -0.3020517E-05 Eh
 * total energy  :  -130.8946752 Eh     change       -0.3235363E-05 Eh
 * total energy  :  -130.8946775 Eh     change       -0.2298969E-05 Eh
 * total energy  :  -130.8946790 Eh     change       -0.1486547E-05 Eh
 * total energy  :  -130.8946804 Eh     change       -0.1373458E-05 Eh
 * total energy  :  -130.8946820 Eh     change       -0.1624353E-05 Eh
 * total energy  :  -130.8946833 Eh     change       -0.1333746E-05 Eh
 * total energy  :  -130.8946841 Eh     change       -0.7596823E-06 Eh
 * total energy  :  -130.8946846 Eh     change       -0.5093894E-06 Eh
 * total energy  :  -130.8946849 Eh     change       -0.3258495E-06 Eh
 * total energy  :  -130.8946851 Eh     change       -0.1585475E-06 Eh
 * total energy  :  -130.8946852 Eh     change       -0.1275341E-06 Eh
 * total energy  :  -130.8946854 Eh     change       -0.1238621E-06 Eh
 * total energy  :  -130.8946854 Eh     change       -0.2398735E-08 Eh
   *** GEOMETRY OPTIMIZATION CONVERGED AFTER 18 ITERATIONS ***

 final structure:
================
92
 xtb: 6.7.1 (edcfbbe)
C           -9.29121241889729       -2.04461198053661       -1.55936250381221
C           -7.98041613058503       -1.45927287769070       -1.12954088694492
C           -6.80015712287136       -1.83135863854071       -1.75534558780400
C           -5.57881778912810       -1.29238864604873       -1.38273639740084
C           -4.34601704350850       -1.76649197953630       -2.09975740979955
C           -5.50829465849662       -0.33835526943349       -0.35356237553916
B           -4.11945887315400        0.31077077119018        0.01437057322340
C           -3.93012192756415        1.87551398623774       -0.03056641917970
C           -4.23179088469085        2.63529546357681       -1.17147790787610
C           -4.66335303736560        1.96513254756132       -2.44314823614209
C           -4.10087619175992        4.01534989943163       -1.15175883094644
C           -3.68473609373850        4.68804700302152       -0.01310214811124
C           -3.53314758221887        6.17892488894395       -0.00767581859992
C           -3.39174678700096        3.93923761207854        1.11624331083944
C           -3.50421811909025        2.55740742170532        1.12147921087069
C           -3.15103202096906        1.82230860890447        2.38388453869798
N           -3.02418324784158       -0.52349815568990        0.39103779147234
C           -3.09742983915467       -1.78953850762767        0.97718615117212
C           -4.21113330772997       -2.50948750341965        1.38349536373463
C           -4.01291522708730       -3.74347600624490        1.97691665227986
C           -2.73654955428491       -4.25572803355749        2.18580718307396
C           -1.62018695939856       -3.53292213514900        1.81365959756435
C           -1.80177070518757       -2.29603572107245        1.21273818421093
C           -0.88135289697518       -1.29995682535748        0.73341383599455
C            0.50147976219685       -1.25316553661377        0.67725106839473
C            1.11979050029791       -0.13578373846422        0.13007684559296
C            2.58624448327231       -0.05070670269332        0.06509083504826
C            3.23239643370977        1.15675615301456        0.36413599413719
C            4.60505012035442        1.28597797263532        0.31786572960587
C            5.35201001478569        0.17681601771852       -0.05275344629317
C            4.72185843927223       -1.05635235885041       -0.33564578863212
C            3.34120636582671       -1.16490198828922       -0.27722853063672
C            5.77116993547098       -1.99123046243584       -0.63251648796948
C            5.78137791443625       -3.33145627837008       -0.99493435986128
C            6.99568755789986       -3.94265087326951       -1.23482144637303
C            8.18836450052753       -3.23015779415505       -1.13205439206500
C            8.20381539601221       -1.89591000977912       -0.77304692533727
C            6.98817659471887       -1.28246277201065       -0.50660642285068
N            6.72028701229828        0.02663487696133       -0.15731346118288
C            7.67338119934310        1.03258836500367        0.05162585677181
C            7.54193949093643        2.26360901728393       -0.58486872571817
C            8.48169724909457        3.25484874523666       -0.37187090530425
C            9.56167320932450        3.02623955973614        0.46454921725996
C            9.69654416036939        1.80038049834078        1.09487970418818
C            8.75603684474273        0.80669979946698        0.89690329684072
C            0.32879557559589        0.90450759544923       -0.37140185070597
C           -1.05130661413092        0.86756193481398       -0.33094250993138
C           -1.66576898654606       -0.23230902643211        0.24955545723166
C           -6.70433916960444        0.04344268133378        0.27318253237431
C           -6.69373379488571        1.03494777485474        1.39984512007667
C           -7.91134435228885       -0.51956682821061       -0.11304216333143
H           -9.64269703629935       -1.54846301498176       -2.46484413967252
H          -10.04657098086576       -1.91692675320549       -0.78756526424698
H           -9.18636385638160       -3.10525194224380       -1.77952373707584
H           -6.83293207532791       -2.56211525313275       -2.55211140369984
H           -4.59935024809285       -2.12076596941860       -3.09705820303336
H           -3.89534792952698       -2.59639586491407       -1.55352534482224
H           -3.60137238402801       -0.97985359309394       -2.18681584265515
H           -5.54462339970519        1.35042451129595       -2.27337419818016
H           -3.87318607564187        1.31696355126333       -2.82064962615724
H           -4.89352863565538        2.70337458425111       -3.20785279667509
H           -4.33318006121865        4.58095562681306       -2.04394707367849
H           -3.77592688785828        6.58945395263685        0.97016799308510
H           -4.17760314920873        6.63782668180044       -0.75403007070709
H           -2.50192648665172        6.44952063277164       -0.23856097252947
H           -3.06764908465816        4.44465146894914        2.01593972824983
H           -2.10586021518961        1.51119369838557        2.35198589272542
H           -3.76065596119326        0.93271957462476        2.51766899766403
H           -3.28126172271969        2.46916813901015        3.24928490726011
H           -5.20859230089673       -2.12738374446009        1.24170004603802
H           -4.87175215420532       -4.31897771207351        2.28967903705414
H           -2.62150465689704       -5.22279412291333        2.65263789357651
H           -0.62563336086354       -3.91475663319434        1.98924917047123
H            1.08996101507438       -2.06829964257673        1.07075814862385
H            2.63513215813248        2.00515070875585        0.66424297859141
H            5.08037076784540        2.22013442553929        0.57728767327490
H            2.85938196616497       -2.10176901694386       -0.51302949387301
H            4.85545082130359       -3.87827766710236       -1.09115361689977
H            7.02633311338921       -4.98494482373709       -1.51571102732605
H            9.12230941403856       -3.73087470384522       -1.34112802641326
H            9.13253130390708       -1.34846357512307       -0.71431286930298
H            6.71101896322095        2.43017360934215       -1.25402033533453
H            8.37461689593925        4.20790215469346       -0.86858873449255
H           10.29596799711832        3.80116388252017        0.62484868763859
H           10.53456224215057        1.61927452173266        1.75167419252389
H            8.84547637533561       -0.14203986056802        1.40470829872223
H            0.81447072309420        1.75367617466823       -0.82930821861438
H           -1.62752661664503        1.67981099637840       -0.74264102335575
H           -6.22720928600592        1.96655459297077        1.08716752638625
H           -6.12717376700351        0.64652348232639        2.24555659706890
H           -7.70632292085936        1.24606286954659        1.73570744343334
H           -8.81989746635130       -0.21675904866913        0.38960587435153

          :  Hamiltonian                  GFN2-xTB          :
         :: gradient norm              0.000069608627 Eh/a0 ::
         :: HOMO-LUMO gap              2.736805562683 eV    ::
         :: SCC energy              -133.320892286779 Eh    ::
         :: -> dispersion             -0.127800397065 Eh    ::
         :: repulsion energy           2.426206931304 Eh    ::

    * Orbital Energies and Occupations

         #    Occupation            Energy/Eh            Energy/eV
      -------------------------------------------------------------
         1        2.0000           -0.6731005             -18.3160
       ...           ...                  ...                  ...
       111        2.0000           -0.4089593             -11.1283
       112        2.0000           -0.4073489             -11.0845
       113        2.0000           -0.4041621             -10.9978
       114        2.0000           -0.3947373             -10.7413
       115        2.0000           -0.3906249             -10.6294
       116        2.0000           -0.3803408             -10.3496
       117        2.0000           -0.3791924             -10.3183
       118        2.0000           -0.3768623             -10.2549
       119        2.0000           -0.3751615             -10.2087
       120        2.0000           -0.3728902             -10.1469
       121        2.0000           -0.3688709             -10.0375
       122        2.0000           -0.3648945              -9.9293
       123        2.0000           -0.3533890              -9.6162 (HOMO)
       124                         -0.2528131              -6.8794 (LUMO)
       125                         -0.2427304              -6.6050
       126                         -0.2374460              -6.4612
       127                         -0.2336217              -6.3572
       128                         -0.2316879              -6.3045
       129                         -0.2282773              -6.2117
       130                         -0.2117767              -5.7627
       131                         -0.2107387              -5.7345
       132                         -0.2057367              -5.5984
       133                         -0.2037585              -5.5446
       134                         -0.1992073              -5.4207
       ...                                ...                  ...
       245                          0.7573560              20.6087
      -------------------------------------------------------------
                  HL-Gap            0.1005759 Eh            2.7368 eV

     #   Z          covCN         q      C6AA      α(0)
     1   6 C        3.758    -0.107    22.591     6.776
     2   6 C        2.963     0.012    27.735     8.638
     3   6 C        2.930    -0.057    29.405     8.893
     4   6 C        2.967     0.011    27.762     8.642
     5   6 C        3.758    -0.107    22.601     6.778
     6   6 C        2.889    -0.088    30.205     9.011
     7   5 B        2.652     0.271    17.604     7.070
     8   6 C        2.889    -0.088    30.201     9.010
     9   6 C        2.966     0.009    27.806     8.649
    10   6 C        3.759    -0.111    22.668     6.788
    11   6 C        2.929    -0.056    29.397     8.892
    12   6 C        2.963     0.012    27.737     8.638
    13   6 C        3.758    -0.107    22.589     6.776
    14   6 C        2.930    -0.056    29.403     8.893
    15   6 C        2.967     0.011    27.760     8.642
    16   6 C        3.758    -0.107    22.598     6.777
    17   7 N        2.707    -0.103    23.258     7.163
    18   6 C        3.074     0.051    26.772     8.483
    19   6 C        2.912    -0.052    29.292     8.875
    20   6 C        2.923    -0.034    28.858     8.809
    21   6 C        2.920    -0.039    28.980     8.828
    22   6 C        2.913    -0.035    28.876     8.812
    23   6 C        3.064    -0.014    28.293     8.722
    24   6 C        3.061    -0.015    28.324     8.727
    25   6 C        2.918    -0.041    29.019     8.834
    26   6 C        2.977     0.002    27.986     8.678
    27   6 C        2.977    -0.000    28.034     8.685
    28   6 C        2.929    -0.039    28.964     8.826
    29   6 C        2.908    -0.052    29.292     8.875
    30   6 C        3.077     0.045    26.919     8.506
    31   6 C        3.065    -0.018    28.391     8.737
    32   6 C        2.918    -0.039    28.959     8.825
    33   6 C        3.069    -0.017    28.364     8.733
    34   6 C        2.913    -0.033    28.821     8.803
    35   6 C        2.920    -0.041    29.023     8.834
    36   6 C        2.924    -0.034    28.841     8.807
    37   6 C        2.910    -0.051    29.270     8.871
    38   6 C        3.076     0.047    26.876     8.500
    39   7 N        2.802    -0.044    22.092     6.981
    40   6 C        2.913     0.065    26.540     8.448
    41   6 C        2.922    -0.042    29.055     8.839
    42   6 C        2.920    -0.028    28.702     8.786
    43   6 C        2.919    -0.033    28.833     8.806
    44   6 C        2.920    -0.028    28.702     8.785
    45   6 C        2.922    -0.042    29.055     8.840
    46   6 C        2.928    -0.040    28.987     8.829
    47   6 C        2.910    -0.053    29.315     8.878
    48   6 C        3.075     0.049    26.825     8.492
    49   6 C        2.966     0.009    27.808     8.650
    50   6 C        3.759    -0.111    22.669     6.788
    51   6 C        2.929    -0.056    29.394     8.891
    52   1 H        0.924     0.043     2.406     2.426
    53   1 H        0.925     0.038     2.470     2.458
    54   1 H        0.925     0.041     2.442     2.444
    55   1 H        0.925     0.023     2.683     2.561
    56   1 H        0.925     0.037     2.485     2.465
    57   1 H        0.924     0.043     2.410     2.428
    58   1 H        0.925     0.036     2.508     2.477
    59   1 H        0.925     0.048     2.347     2.396
    60   1 H        0.925     0.037     2.493     2.469
    61   1 H        0.925     0.037     2.484     2.465
    62   1 H        0.925     0.023     2.694     2.567
    63   1 H        0.925     0.040     2.455     2.450
    64   1 H        0.925     0.039     2.464     2.455
    65   1 H        0.924     0.043     2.403     2.424
    66   1 H        0.925     0.023     2.687     2.563
    67   1 H        0.924     0.043     2.410     2.427
    68   1 H        0.925     0.035     2.510     2.478
    69   1 H        0.925     0.037     2.487     2.466
    70   1 H        0.926     0.037     2.490     2.467
    71   1 H        0.926     0.029     2.601     2.522
    72   1 H        0.926     0.028     2.620     2.531
    73   1 H        0.926     0.030     2.586     2.515
    74   1 H        0.926     0.032     2.556     2.500
    75   1 H        0.926     0.031     2.569     2.507
    76   1 H        0.926     0.027     2.630     2.536
    77   1 H        0.926     0.033     2.546     2.495
    78   1 H        0.926     0.030     2.579     2.511
    79   1 H        0.926     0.027     2.626     2.534
    80   1 H        0.926     0.028     2.614     2.528
    81   1 H        0.926     0.027     2.634     2.538
    82   1 H        0.926     0.041     2.442     2.444
    83   1 H        0.926     0.036     2.508     2.477
    84   1 H        0.926     0.035     2.523     2.484
    85   1 H        0.926     0.036     2.508     2.476
    86   1 H        0.926     0.040     2.442     2.444
    87   1 H        0.926     0.031     2.573     2.508
    88   1 H        0.926     0.037     2.495     2.470
    89   1 H        0.925     0.048     2.347     2.396
    90   1 H        0.925     0.037     2.496     2.471
    91   1 H        0.925     0.037     2.483     2.464
    92   1 H        0.925     0.023     2.695     2.567

molecular dipole:
                 x           y           z       tot (Debye)
 q only:        0.268       0.477       0.011
   full:        0.317       0.558       0.008       1.631

 projected vibrational frequencies (cm⁻¹)
eigval :       -0.00    -0.00    -0.00     0.00     0.00     0.00
eigval :       -8.04    10.48    11.10    11.38    18.38    26.10
eigval :       27.99    33.93    39.40    43.41    44.67    57.13
eigval :       62.01    67.12    85.23    93.92    98.01   103.79
eigval :      104.69   116.59   130.49   132.94   135.97   146.85
eigval :      153.30   155.68   163.51   169.66   174.27   183.84
eigval :      189.14   203.96   208.02   211.25   217.77   243.15
eigval :      261.13   266.65   277.03   278.19   281.92   304.52
eigval :      315.35   321.63   326.77   337.97   359.87   368.13
eigval :      380.83   393.79   397.89   406.15   420.67   426.77
eigval :      435.31   438.97   456.81   471.59   478.86   485.09
eigval :      486.94   497.02   498.96   506.79   512.46   517.62
eigval :      525.79   530.90   536.40   546.96   555.13   562.40
eigval :      573.46   578.91   591.67   594.09   599.51   600.16
eigval :      602.60   614.28   616.41   630.78   633.82   667.72
eigval :      675.94   679.30   681.24   688.43   698.76   707.88
eigval :      715.71   726.45   763.38   770.16   775.70   779.00
eigval :      809.29   815.40   833.77   838.82   841.23   846.17
eigval :      865.61   869.04   871.71   874.80   881.68   884.67
eigval :      889.40   889.49   899.19   902.88   905.42   906.20
eigval :      912.05   919.03   920.67   922.02   924.34   931.76
eigval :      933.40   934.69   963.72   965.12   978.43   979.01
eigval :      998.16  1010.77  1020.19  1021.98  1027.90  1028.93
eigval :     1029.61  1030.09  1031.33  1032.80  1034.06  1040.43
eigval :     1040.94  1046.29  1048.16  1055.22  1071.49  1073.99
eigval :     1077.12  1080.66  1118.26  1121.62  1124.46  1154.03
eigval :     1158.10  1161.72  1176.54  1178.88  1181.31  1183.81
eigval :     1187.12  1201.24  1203.94  1212.76  1218.24  1226.30
eigval :     1235.04  1237.37  1243.72  1247.75  1255.94  1272.98
eigval :     1275.23  1283.26  1297.18  1307.22  1308.04  1317.02
eigval :     1318.43  1334.17  1334.39  1341.42  1345.86  1350.21
eigval :     1359.27  1362.58  1370.87  1404.01  1404.09  1404.39
eigval :     1404.44  1406.24  1407.88  1416.17  1420.89  1424.59
eigval :     1429.11  1430.86  1434.83  1437.90  1454.74  1458.46
eigval :     1466.81  1479.74  1480.68  1481.93  1483.93  1484.25
eigval :     1484.71  1485.15  1485.29  1485.80  1486.51  1489.29
eigval :     1490.40  1491.56  1494.12  1498.77  1500.85  1562.50
eigval :     1563.72  1564.32  1570.00  1582.73  1584.64  1586.01
eigval :     1596.39  1596.55  1600.25  1602.37  1604.10  1612.23
eigval :     1617.49  2990.55  2990.83  2991.96  2993.76  3003.97
eigval :     3004.63  3026.70  3027.27  3027.61  3030.96  3032.94
eigval :     3033.57  3035.67  3037.75  3038.00  3038.19  3043.22
eigval :     3043.52  3061.86  3062.00  3063.19  3063.78  3075.60
eigval :     3076.06  3077.84  3078.56  3080.60  3081.22  3082.66
eigval :     3083.42  3085.97  3088.08  3089.95  3090.65  3091.13
eigval :     3093.14  3094.20  3095.52  3099.04  3116.25  3118.34

   temp. (K)  partition function   enthalpy   heat capacity  entropy
                                   cal/mol     cal/K/mol   cal/K/mol   J/K/mol
 298.15  VIB  0.494E+23            27118.711    163.277    172.286
         ROT  0.116E+09              888.752      2.981     39.882
         INT  0.573E+31            28007.464    166.258    212.168
         TR   0.163E+29             1481.254      4.968     45.307
         TOT                       29488.7176   171.2261   257.4750  1077.2755

       T/K    H(0)-H(T)+PV         H(T)/Eh          T*S/Eh         G(T)/Eh
   ------------------------------------------------------------------------
    298.15    0.469933E-01    0.783126E+00    0.122335E+00    0.660792E+00
   ------------------------------------------------------------------------

         :::::::::::::::::::::::::::::::::::::::::::::::::::::
         ::                  THERMODYNAMIC                  ::
         :::::::::::::::::::::::::::::::::::::::::::::::::::::
         :: total free energy        -130.233893735207 Eh   ::
         ::.................................................::
         :: total energy             -130.894685355475 Eh   ::
         :: zero point energy           0.736133054672 Eh   ::
         :: G(RRHO) w/o ZPVE           -0.075341434404 Eh   ::
         :: G(RRHO) contrib.            0.660791620268 Eh   ::
         :::::::::::::::::::::::::::::::::::::::::::::::::::::

           -------------------------------------------------
          | TOTAL ENERGY             -130.894685355475 Eh   |
          | TOTAL ENTHALPY           -130.111559038052 Eh   |
          | TOTAL FREE ENERGY        -130.233893735207 Eh   |
          | GRADIENT NORM               0.000069605439 Eh/α |
          | HOMO-LUMO GAP               2.736809742909 eV   |
           -------------------------------------------------

 * finished run on 2025/07/19 at 03:31:41.172
