   * xtb version 6.7.1 (edcfbbe) compiled by 'albert@albert-system' on 2024-07-22

   ID    Z sym.   atoms
    1    6 C      1-6, 8-16, 18-38, 40-51
    2    5 B      7
    3    7 N      17, 39
    4    1 H      52-92

          program call               : xtb data2507/gas/BCzBMes/BCzBMes_gas_S0_finalOpt.xtbopt.xyz --gfn 2 --spinpol --tblite --uhf 2 --ohess vtight --parallel 40 --molden --ceasefiles --namespace data2507/gas/BCzBMes/BCzBMes_gas_T1_preOpt
 * total energy  :  -130.7894659 Eh     change       -0.6569789E-07 Eh
 * total energy  :  -130.7920328 Eh     change       -0.2566903E-02 Eh
 * total energy  :  -130.7931834 Eh     change       -0.1150642E-02 Eh
 * total energy  :  -130.7935081 Eh     change       -0.3246912E-03 Eh
 * total energy  :  -130.7938624 Eh     change       -0.3542257E-03 Eh
 * total energy  :  -130.7941230 Eh     change       -0.2606748E-03 Eh
 * total energy  :  -130.7943759 Eh     change       -0.2528831E-03 Eh
 * total energy  :  -130.7945454 Eh     change       -0.1694956E-03 Eh
 * total energy  :  -130.7946535 Eh     change       -0.1081040E-03 Eh
 * total energy  :  -130.7947575 Eh     change       -0.1039668E-03 Eh
 * total energy  :  -130.7967115 Eh     change       -0.1683243E-05 Eh
 * total energy  :  -130.7967131 Eh     change       -0.1628876E-05 Eh
 * total energy  :  -130.7967148 Eh     change       -0.1664864E-05 Eh
 * total energy  :  -130.7967163 Eh     change       -0.1563280E-05 Eh
 * total energy  :  -130.7967178 Eh     change       -0.1466932E-05 Eh
 * total energy  :  -130.7967194 Eh     change       -0.1575772E-05 Eh
 * total energy  :  -130.7967210 Eh     change       -0.1680027E-05 Eh
 * total energy  :  -130.7967229 Eh     change       -0.1866819E-05 Eh
 * total energy  :  -130.7967229 Eh     change       -0.2264872E-07 Eh
   *** GEOMETRY OPTIMIZATION CONVERGED AFTER 152 ITERATIONS ***

 final structure:
================
92
 xtb: 6.7.1 (edcfbbe)
C           -9.19106325537483       -2.17095122140238       -1.73451518428056
C           -7.90722109863077       -1.54439113017282       -1.28167800906068
C           -6.69206054355560       -1.92611998131193       -1.83014835224009
C           -5.50053297080153       -1.33901059599619       -1.43676038000177
C           -4.23165421911716       -1.80006721628388       -2.09716527577752
C           -5.49087625302934       -0.33504317395012       -0.45031351875321
B           -4.14985431291851        0.32944586970659        0.01667276327706
C           -3.96703124666624        1.88314852029018        0.10233591104453
C           -4.35791307580220        2.72600372842640       -0.95827657214526
C           -4.96026093309461        2.15655594930003       -2.21025768569592
C           -4.16251145160910        4.09298040588620       -0.87643400948645
C           -3.59657085280822        4.68302029470182        0.24696248405328
C           -3.38232637715827        6.16508890219200        0.30428468288160
C           -3.23088734420948        3.85940535281581        1.30024862202591
C           -3.41260957607186        2.48661748875499        1.24714099649275
C           -3.01296317359348        1.67445876719601        2.44665683354142
N           -3.02920802940959       -0.51971138090599        0.36866238638231
C           -3.10766322318613       -1.76801720042831        0.99235655308718
C           -4.22693953872794       -2.44880988485473        1.43815002216781
C           -4.04245633531764       -3.67995697512019        2.05272126783060
C           -2.77494945870554       -4.21544623413725        2.23431508453175
C           -1.64747042921371       -3.52653912301124        1.81573482497434
C           -1.81375818137097       -2.29718770481100        1.20046645429190
C           -0.88928489422310       -1.32524604166307        0.67500916335912
C            0.47232653775298       -1.27870781525898        0.60318358030315
C            1.11992182664390       -0.14191369363959        0.03900699173348
C            2.53566541972531       -0.04941102752327       -0.01974201025575
C            3.19188871523653        1.21744896557261       -0.14815505778327
C            4.54966937623455        1.34954501347759       -0.20945462386118
C            5.33652051418184        0.19052981957093       -0.17799405197943
C            4.72314676018672       -1.08525795137171       -0.02355617098734
C            3.36125716066070       -1.20749957421544        0.06384224748045
C            5.80054361381311       -2.04376362649326        0.01558937551920
C            5.84105780908320       -3.42390646450528        0.12124262538762
C            7.07418275287358       -4.05526626744082        0.09511765929812
C            8.24741640724396       -3.32483870226063       -0.05033077457782
C            8.23076911005441       -1.94373572006142       -0.15638047426487
C            7.00070565472439       -1.30641866304885       -0.10327168043257
N            6.70085137801723        0.04161025079917       -0.21662020822705
C            7.63421159682326        1.07255558090344       -0.36584372576024
C            7.46917384636103        2.02939195589602       -1.36691749418138
C            8.39042868407581        3.04891775257494       -1.50463066329972
C            9.48435365617307        3.12500515988673       -0.65601294671803
C            9.65098526314281        2.17342626655635        0.33850958674312
C            8.73279842793216        1.15308131491018        0.48980120602372
C            0.27754820740070        0.90233108864793       -0.48618290943097
C           -1.08265536612968        0.84977320251854       -0.44181648265618
C           -1.70250957709690       -0.25119646705459        0.17757047223149
C           -6.72878500676361        0.06448646780647        0.09059194902866
C           -6.79566239654656        1.12790026709376        1.14861478011573
C           -7.90299047014044       -0.54207337074305       -0.32076509028141
H           -9.62420764342836       -1.58952530194114       -2.54991799603981
H           -9.91544921466936       -2.20067866384395       -0.92314244489009
H           -9.02268477501427       -3.18321132306740       -2.09570014179284
H           -6.67441629229708       -2.69800456777258       -2.58804952335365
H           -4.44524668794403       -2.21380496852025       -3.08095451313260
H           -3.75655502381021       -2.58194198445244       -1.50276406434469
H           -3.52020654144679       -0.98489612449891       -2.20903614783043
H           -5.96288285834776        1.77905281299756       -2.01582775162080
H           -4.36553681566782        1.32587375943888       -2.58460195099331
H           -5.02389982208074        2.91755627452286       -2.98521734291951
H           -4.45740123428053        4.72095693905326       -1.70677606525451
H           -3.22439861223726        6.49644122959737        1.32800453801409
H           -4.23808285162279        6.69521772405926       -0.11015442771830
H           -2.50425024357866        6.43987497279241       -0.28201221958110
H           -2.79934486423324        4.29880538702900        2.18981532333455
H           -1.98932303753257        1.31277604066821        2.33734162791454
H           -3.66100103285342        0.81054926925557        2.57848430357000
H           -3.05664378138264        2.28344156467048        3.34771482461784
H           -5.21689278762462       -2.04267202335020        1.30854771473908
H           -4.90565214170931       -4.22773285996695        2.40020071842847
H           -2.66675963531506       -5.17594199021606        2.71615940718234
H           -0.65999295620155       -3.93562526812519        1.96833325653828
H            1.05553634843163       -2.08458918493748        1.01967000994905
H            2.58904159491485        2.11123589342219       -0.13848399075355
H            5.00817187975929        2.32590683154474       -0.26077032627728
H            2.92015688039282       -2.18692950841921        0.15105519249512
H            4.92931228567312       -3.99403443029302        0.21430267292742
H            7.12642007190885       -5.13058887732996        0.17685430649622
H            9.19380219010051       -3.84368527234866       -0.08641700493828
H            9.14655163939519       -1.38850847526691       -0.29012987147997
H            6.62989169554924        1.95241424382519       -2.04180360486433
H            8.25922350436456        3.78513665842476       -2.28373334809474
H           10.20291681230947        3.92233651844264       -0.76854547512996
H           10.49750563517893        2.23279952470945        1.00648888929237
H            8.84464662733260        0.42738072117371        1.28143356074058
H            0.74550527720921        1.73260515730661       -0.98992433294444
H           -1.68010815833318        1.63698636070689       -0.87382008772373
H           -6.55365435966359        2.10247203040352        0.72757978341160
H           -6.08055831481674        0.92968103543219        1.94458048561644
H           -7.79323638055311        1.17774338260400        1.57989527391789
H           -8.84148930797006       -0.23010795313960        0.11811369971250

 projected vibrational frequencies (cm⁻¹)
eigval :       -0.00    -0.00     0.00     0.00     0.00     0.00
eigval :        4.51     8.52     9.54    10.27    18.18    23.74
eigval :       28.15    35.33    36.04    41.40    53.04    60.32
eigval :       63.46    68.14    79.87    90.87   101.29   108.88
eigval :      118.85   124.76   127.01   135.51   138.50   147.52
eigval :      159.16   163.19   166.33   167.45   173.72   185.92
eigval :      187.12   200.18   205.03   205.64   217.52   239.75
eigval :      253.08   267.48   276.09   276.64   276.78   288.30
eigval :      310.75   321.48   323.69   325.13   343.50   355.86
eigval :      380.56   381.66   389.84   391.01   396.61   405.32
eigval :      416.66   430.55   454.41   464.75   473.00   480.92
eigval :      486.45   494.68   495.57   500.78   509.53   515.74
eigval :      520.81   522.02   534.60   536.61   551.05   552.89
eigval :      560.76   570.49   586.87   587.88   591.05   596.47
eigval :      597.52   598.14   602.92   611.83   627.81   656.99
eigval :      661.00   668.05   668.52   674.98   678.33   699.99
eigval :      705.50   711.99   757.92   761.76   772.07   774.15
eigval :      784.73   798.21   800.93   816.72   827.82   839.23
eigval :      840.89   843.69   850.09   864.83   868.73   876.55
eigval :      879.65   884.91   885.62   893.27   894.39   899.21
eigval :      900.08   903.08   904.87   918.66   918.94   919.74
eigval :      929.15   931.47   962.91   963.88   976.90   977.34
eigval :      987.24   992.47   998.50  1011.77  1017.29  1020.29
eigval :     1026.76  1027.66  1028.58  1029.99  1031.07  1032.07
eigval :     1034.14  1037.43  1042.21  1045.38  1047.14  1069.78
eigval :     1071.17  1076.53  1080.28  1114.88  1118.57  1124.54
eigval :     1139.00  1151.10  1155.51  1173.42  1176.24  1176.85
eigval :     1179.33  1193.93  1201.46  1202.13  1206.96  1212.39
eigval :     1220.60  1235.21  1235.83  1239.21  1246.05  1251.66
eigval :     1258.64  1263.66  1273.62  1290.58  1302.41  1309.33
eigval :     1310.82  1311.84  1321.59  1322.25  1324.85  1335.92
eigval :     1340.09  1348.86  1361.09  1365.51  1375.82  1403.24
eigval :     1403.27  1403.60  1404.16  1405.62  1411.14  1419.97
eigval :     1421.45  1424.15  1430.64  1430.93  1432.40  1433.07
eigval :     1441.00  1451.13  1461.38  1466.67  1473.57  1479.03
eigval :     1480.97  1483.92  1484.86  1485.38  1486.14  1486.73
eigval :     1488.78  1490.57  1491.91  1492.34  1495.24  1497.20
eigval :     1497.51  1539.53  1541.91  1542.75  1546.61  1559.36
eigval :     1570.16  1578.64  1578.93  1583.14  1583.75  1590.87
eigval :     1594.90  2984.13  2986.26  2986.92  2987.99  3011.90
eigval :     3012.69  3021.75  3021.97  3023.68  3024.46  3025.98
eigval :     3027.73  3028.42  3030.19  3031.56  3032.08  3032.80
eigval :     3036.31  3056.66  3057.02  3057.93  3058.69  3077.63
eigval :     3079.65  3079.81  3080.48  3081.83  3085.34  3085.57
eigval :     3091.67  3093.10  3093.93  3094.90  3094.96  3096.37
eigval :     3098.87  3100.88  3104.73  3107.26  3111.39  3114.29

   temp. (K)  partition function   enthalpy   heat capacity  entropy
                                   cal/mol     cal/K/mol   cal/K/mol   J/K/mol
 298.15  VIB  0.154E+24            27415.822    165.625    174.597
         ROT  0.116E+09              888.752      2.981     39.880
         INT  0.178E+32            28304.574    168.606    214.478
         TR   0.163E+29             1481.254      4.968     45.307
         TOT                       29785.8278   173.5739   259.7849  1086.9399

       T/K    H(0)-H(T)+PV         H(T)/Eh          T*S/Eh         G(T)/Eh
   ------------------------------------------------------------------------
    298.15    0.474667E-01    0.778409E+00    0.123432E+00    0.654977E+00
   ------------------------------------------------------------------------

         :::::::::::::::::::::::::::::::::::::::::::::::::::::
         ::                  THERMODYNAMIC                  ::
         :::::::::::::::::::::::::::::::::::::::::::::::::::::
         :: total free energy        -130.141745730637 Eh   ::
         ::.................................................::
         :: total energy             -130.796722853210 Eh   ::
         :: zero point energy           0.730942560923 Eh   ::
         :: G(RRHO) w/o ZPVE           -0.075965438349 Eh   ::
         :: G(RRHO) contrib.            0.654977122574 Eh   ::
         :::::::::::::::::::::::::::::::::::::::::::::::::::::

           -------------------------------------------------
          | TOTAL ENERGY             -130.796722853210 Eh   |
          | TOTAL ENTHALPY           -130.018313554228 Eh   |
          | TOTAL FREE ENERGY        -130.141745730637 Eh   |
          | GRADIENT NORM               0.000067624452 Eh/α |
           -------------------------------------------------

 * finished run on 2025/07/19 at 03:32:07.180
