   * xtb version 6.7.1 (edcfbbe) compiled by 'albert@albert-system' on 2024-07-22

   ID    Z sym.   atoms
    1   35 Br     1
    2    6 C      2-6, 8-16, 18-33, 35-49
    3    7 N      7, 17, 34
    4    1 H      50-81

          program call               : xtb data2507/gas/TPA-PyI/TPA-PyI.xyz --gfn 2 --ohess vtight --parallel 40 --molden --ceasefiles --namespace data2507/gas/TPA-PyI/TPA-PyI_gas_S0_preOpt
          :  Hamiltonian                  GFN2-xTB          :
 * total energy  :  -125.5238479 Eh     change       -0.1600711E-08 Eh
 * total energy  :  -125.5366121 Eh     change       -0.1276423E-01 Eh
 * total energy  :  -125.5409415 Eh     change       -0.4329382E-02 Eh
 * total energy  :  -125.5425218 Eh     change       -0.1580226E-02 Eh
 * total energy  :  -125.5436034 Eh     change       -0.1081608E-02 Eh
 * total energy  :  -125.5441634 Eh     change       -0.5600402E-03 Eh
 * total energy  :  -125.5445094 Eh     change       -0.3459952E-03 Eh
 * total energy  :  -125.5447959 Eh     change       -0.2865131E-03 Eh
 * total energy  :  -125.5450889 Eh     change       -0.2929789E-03 Eh
 * total energy  :  -125.5453794 Eh     change       -0.2905192E-03 Eh
 * total energy  :  -125.5521154 Eh     change       -0.3891808E-06 Eh
 * total energy  :  -125.5521157 Eh     change       -0.3293148E-06 Eh
 * total energy  :  -125.5521160 Eh     change       -0.2879944E-06 Eh
 * total energy  :  -125.5521164 Eh     change       -0.3567926E-06 Eh
 * total energy  :  -125.5521169 Eh     change       -0.4852399E-06 Eh
 * total energy  :  -125.5521173 Eh     change       -0.4666236E-06 Eh
 * total energy  :  -125.5521178 Eh     change       -0.4453563E-06 Eh
 * total energy  :  -125.5521181 Eh     change       -0.3756096E-06 Eh
 * total energy  :  -125.5521181 Eh     change       -0.1463903E-08 Eh
   *** GEOMETRY OPTIMIZATION CONVERGED AFTER 122 ITERATIONS ***

 final structure:
================
81
 xtb: 6.7.1 (edcfbbe)
Br          -1.17178843186289        3.22408169060927       -3.47064446640598
C           -2.43834270332356        3.05776746869587       -2.05837804285432
C           -2.97957213698961        4.19851348727492       -1.48864866803655
C           -3.89368902634233        4.06165817799169       -0.45815789926780
C           -4.25483568281817        2.80923492195446        0.00414516133766
C           -3.70510461307737        1.67218090696438       -0.58094961716980
N           -4.05369087077374        0.39500457344924       -0.12536275228885
C           -3.19662517566135       -0.62876156696294        0.20525737313227
C           -1.74705708904420       -0.52785805555162        0.21102846684283
C           -0.99540439589073       -1.63912015305157       -0.16964917422815
C            0.38156206225692       -1.57979345699554       -0.18677463088572
C            1.05255125594190       -0.41548985136366        0.18801242359523
C            2.51723623844334       -0.34990736288351        0.15986283162299
C            3.23982102682238       -0.93676443369420       -0.87850008843083
C            4.61584797375867       -0.87040241188317       -0.91482039785075
C            5.32105063410583       -0.22504616411918        0.10229704177145
N            6.71513014036538       -0.16110211404265        0.07378152436441
C            7.37539174087957        0.97816397277346        0.55007407600781
C            6.84447536085147        2.24861750838701        0.32845560650968
C            7.49882961038577        3.36842092427961        0.80346883975040
C            8.69180939017153        3.24360139232246        1.49644605331974
C            9.22597831763714        1.98422645306654        1.71469156158669
C            8.57496849211019        0.85770515609133        1.25103096858577
C            7.45875730596914       -1.23458414632113       -0.43139182867910
C            8.61472158497730       -1.00366275701047       -1.17658225191479
C            9.34995847922283       -2.06507926959535       -1.66707483035145
C            8.94394410721914       -3.36851890937155       -1.43213868262869
C            7.79422663029760       -3.60319757778600       -0.69591162745839
C            7.05672628693868       -2.54870995043230       -0.19390303147091
C            4.60342879977432        0.35578692449128        1.14923355558161
C            3.22662165954664        0.29974434874337        1.16940523350564
C            0.29648101949326        0.68130107909439        0.59982186509445
C           -1.08184655880702        0.62947526949676        0.61382804401519
N           -3.85982058360561       -1.69890943777305        0.55348707142925
C           -5.18670029195277       -1.40056382169407        0.46216130602639
C           -6.19295025009719       -2.41033148083754        0.75420523951574
C           -5.86655090039425       -3.45407973787392        1.61902279312935
C           -6.79548494091053       -4.43135122432695        1.91813435011786
C           -8.06055488045874       -4.38481290527979        1.35506147725700
C           -8.38585048879751       -3.36140250427613        0.47996967032251
C           -7.46028938452379       -2.38106954744029        0.17576581291635
C           -5.33561493946536       -0.08834259237678        0.04857582885886
C           -6.52241403006583        0.72086337349042       -0.19382681395646
C           -6.66907024622388        1.44419800790864       -1.37619194044597
C           -7.79619776756590        2.21662178426397       -1.58595180831198
C           -8.78897480551426        2.27777167475109       -0.62266011043181
C           -8.65358865574421        1.55622680454536        0.55282083523103
C           -7.52903869837094        0.78383356659742        0.76928654081396
C           -2.79652050275214        1.79491827585101       -1.62844650580493
H           -2.68928075236335        5.17423461605913       -1.84488982377292
H           -4.32182914943631        4.94265602012166       -0.00565244079062
H           -4.95510360512340        2.70651830655649        0.81856319195915
H           -1.51536536892950       -2.54176165449009       -0.45094679007102
H            0.95040199421466       -2.45102222458329       -0.47617015902557
H            2.71237115998532       -1.42222062739543       -1.68633301246930
H            5.15769539881448       -1.31265961470979       -1.73794985510908
H            5.92008892217590        2.34924492794180       -0.22133116569531
H            7.07809394047979        4.34673149557419        0.62277364814462
H            9.20186207495455        4.12137249171232        1.86320574679446
H           10.15330334863104        1.87677382762026        2.25803621994148
H            8.98872382770391       -0.12392877397480        1.43034303860063
H            8.92813398399156        0.01204403460872       -1.36903595707212
H           10.24219269341505       -1.87220275527029       -2.24448366906597
H            9.51950255705768       -4.19533292525100       -1.81971507171181
H            7.47319068899859       -4.61627772825394       -0.50267606491277
H            6.16658402789077       -2.73450959071219        0.38924406654610
H            5.13715780491288        0.84572199637274        1.95049346202272
H            2.69204537805214        0.73721572157448        1.99980427196689
H            0.79631569010881        1.59182123114066        0.89636908821476
H           -1.64240752704886        1.48766114443635        0.95693275082192
H           -4.87557549598471       -3.47867317326329        2.04519885582958
H           -6.53420600723308       -5.23362996006739        2.59310058535454
H           -8.78858186118687       -5.14728004997093        1.59087748134223
H           -9.36633653343919       -3.32949589939800        0.02681538080694
H           -7.71614236713412       -1.59815124529250       -0.52264585722007
H           -5.90585230137673        1.38718406378888       -2.13951131216867
H           -7.90064296934267        2.77017185889296       -2.50758228830260
H           -9.66778436182973        2.88272792137705       -0.78880508582099
H           -9.42681683515325        1.59884963216047        1.30564586949031
H           -7.41834663426925        0.22135451773423        1.68481584416237
H           -2.37532978757776        0.91380110486403       -2.08785933218257

          :  Hamiltonian                  GFN2-xTB          :
         :: gradient norm              0.000029787744 Eh/a0 ::
         :: HOMO-LUMO gap              2.196806951469 eV    ::
         :: SCC energy              -127.853461790829 Eh    ::
         :: -> dispersion             -0.114734895119 Eh    ::
         :: repulsion energy           2.301343641941 Eh    ::

    * Orbital Energies and Occupations

         #    Occupation            Energy/Eh            Energy/eV
      -------------------------------------------------------------
         1        2.0000           -0.8430353             -22.9402
       ...           ...                  ...                  ...
       105        2.0000           -0.4105402             -11.1714
       106        2.0000           -0.4086698             -11.1205
       107        2.0000           -0.4080998             -11.1050
       108        2.0000           -0.4076007             -11.0914
       109        2.0000           -0.4072033             -11.0806
       110        2.0000           -0.4045901             -11.0095
       111        2.0000           -0.4041214             -10.9967
       112        2.0000           -0.4017226             -10.9314
       113        2.0000           -0.3970954             -10.8055
       114        2.0000           -0.3912182             -10.6456
       115        2.0000           -0.3784569             -10.2983
       116        2.0000           -0.3646479              -9.9226
       117        2.0000           -0.3481413              -9.4734 (HOMO)
       118                         -0.2674101              -7.2766 (LUMO)
       119                         -0.2599594              -7.0739
       120                         -0.2533703              -6.8946
       121                         -0.2465684              -6.7095
       122                         -0.2316149              -6.3026
       123                         -0.2301082              -6.2616
       124                         -0.2270193              -6.1775
       125                         -0.2260050              -6.1499
       126                         -0.2246910              -6.1142
       127                         -0.2213579              -6.0235
       128                         -0.2212190              -6.0197
       ...                                ...                  ...
       233                          0.7061546              19.2154
      -------------------------------------------------------------
                  HL-Gap            0.0807312 Eh            2.1968 eV

     #   Z          covCN         q      C6AA      α(0)
     1  35 Br       1.072    -0.158   189.427    22.191
     2   6 C        2.918     0.085    26.098     8.377
     3   6 C        2.989    -0.038    28.934     8.824
     4   6 C        2.923    -0.026    28.642     8.776
     5   6 C        2.920    -0.041    29.016     8.833
     6   6 C        2.916     0.072    26.381     8.422
     7   7 N        2.852    -0.039    21.986     6.964
     8   6 C        3.154     0.122    25.045     8.184
     9   6 C        2.974    -0.002    28.072     8.691
    10   6 C        2.925    -0.029    28.716     8.788
    11   6 C        2.924    -0.033    28.817     8.803
    12   6 C        2.976     0.013    27.716     8.636
    13   6 C        2.976     0.001    28.002     8.680
    14   6 C        2.924    -0.033    28.833     8.806
    15   6 C        2.920    -0.048    29.204     8.862
    16   6 C        2.924     0.064    26.558     8.451
    17   7 N        2.752    -0.074    22.682     7.073
    18   6 C        2.925     0.065    26.542     8.449
    19   6 C        2.922    -0.047    29.174     8.858
    20   6 C        2.920    -0.029    28.730     8.790
    21   6 C        2.919    -0.038    28.950     8.823
    22   6 C        2.920    -0.029    28.730     8.790
    23   6 C        2.922    -0.047    29.174     8.858
    24   6 C        2.924     0.065    26.543     8.449
    25   6 C        2.922    -0.047    29.172     8.857
    26   6 C        2.920    -0.029    28.727     8.789
    27   6 C        2.919    -0.038    28.947     8.823
    28   6 C        2.920    -0.029    28.729     8.790
    29   6 C        2.922    -0.047    29.176     8.858
    30   6 C        2.921    -0.049    29.213     8.863
    31   6 C        2.924    -0.034    28.840     8.807
    32   6 C        2.924    -0.034    28.847     8.808
    33   6 C        2.920    -0.035    28.860     8.810
    34   7 N        1.913    -0.286    28.249     7.880
    35   6 C        3.166     0.053    26.470     8.408
    36   6 C        2.974     0.010    27.781     8.646
    37   6 C        2.927    -0.030    28.740     8.792
    38   6 C        2.918    -0.029    28.735     8.790
    39   6 C        2.920    -0.032    28.789     8.799
    40   6 C        2.919    -0.030    28.752     8.793
    41   6 C        2.923    -0.037    28.917     8.818
    42   6 C        3.064     0.013    27.667     8.625
    43   6 C        2.972     0.008    27.834     8.654
    44   6 C        2.924    -0.034    28.854     8.809
    45   6 C        2.919    -0.029    28.730     8.790
    46   6 C        2.920    -0.031    28.763     8.795
    47   6 C        2.919    -0.028    28.698     8.785
    48   6 C        2.925    -0.032    28.809     8.802
    49   6 C        3.000    -0.045    29.112     8.851
    50   1 H        0.926     0.059     2.207     2.323
    51   1 H        0.926     0.051     2.306     2.375
    52   1 H        0.926     0.050     2.321     2.382
    53   1 H        0.926     0.050     2.318     2.381
    54   1 H        0.926     0.038     2.476     2.461
    55   1 H        0.926     0.035     2.514     2.479
    56   1 H        0.926     0.033     2.539     2.492
    57   1 H        0.926     0.032     2.552     2.498
    58   1 H        0.926     0.032     2.562     2.503
    59   1 H        0.926     0.030     2.582     2.513
    60   1 H        0.926     0.032     2.564     2.504
    61   1 H        0.926     0.032     2.562     2.503
    62   1 H        0.926     0.032     2.561     2.503
    63   1 H        0.926     0.032     2.562     2.503
    64   1 H        0.926     0.030     2.579     2.512
    65   1 H        0.926     0.032     2.560     2.502
    66   1 H        0.926     0.032     2.559     2.502
    67   1 H        0.926     0.032     2.554     2.499
    68   1 H        0.926     0.033     2.544     2.494
    69   1 H        0.926     0.033     2.540     2.492
    70   1 H        0.926     0.020     2.734     2.586
    71   1 H        0.926     0.050     2.319     2.381
    72   1 H        0.926     0.030     2.587     2.515
    73   1 H        0.926     0.028     2.615     2.529
    74   1 H        0.926     0.027     2.630     2.536
    75   1 H        0.926     0.025     2.654     2.548
    76   1 H        0.926     0.023     2.693     2.566
    77   1 H        0.926     0.031     2.572     2.508
    78   1 H        0.926     0.032     2.553     2.498
    79   1 H        0.926     0.034     2.536     2.490
    80   1 H        0.926     0.034     2.526     2.485
    81   1 H        0.926     0.059     2.208     2.323

molecular dipole:
                 x           y           z       tot (Debye)
 q only:        0.031       0.636       0.422
   full:       -0.400       0.992       0.627       3.152

 projected vibrational frequencies (cm⁻¹)
eigval :       -0.00    -0.00     0.00     0.00     0.00     0.00
eigval :        6.84     8.77    13.89    21.05    21.54    31.32
eigval :       32.38    36.54    42.89    48.13    53.17    57.53
eigval :       62.96    69.51    78.77    82.58    85.17    97.80
eigval :      106.75   124.62   131.59   137.31   169.76   179.61
eigval :      188.56   205.13   225.01   232.35   238.82   247.54
eigval :      259.57   263.41   268.11   284.69   302.23   314.49
eigval :      322.02   348.78   365.32   371.08   375.21   376.48
eigval :      377.67   380.77   382.07   389.29   406.92   410.93
eigval :      419.19   434.32   460.99   477.76   482.85   492.23
eigval :      503.14   515.53   518.09   539.21   545.24   584.43
eigval :      586.03   587.07   587.96   593.89   600.22   611.92
eigval :      615.04   620.37   629.06   649.70   657.62   658.76
eigval :      659.82   664.79   666.42   676.54   680.42   688.80
eigval :      690.11   705.46   720.26   747.97   757.23   758.97
eigval :      764.12   766.74   789.49   803.09   807.01   831.54
eigval :      868.03   874.46   874.86   876.45   878.11   878.28
eigval :      878.61   891.50   892.50   892.98   902.24   902.85
eigval :      910.18   914.93   915.80   922.63   924.63   925.54
eigval :      927.70   929.21   929.31   929.57   929.90   930.12
eigval :      931.71   932.24   932.48   942.46   949.95   971.99
eigval :      979.65   990.04  1005.16  1012.00  1021.14  1036.76
eigval :     1080.86  1081.86  1083.19  1083.70  1084.15  1100.18
eigval :     1110.29  1119.20  1121.23  1121.89  1124.10  1125.86
eigval :     1137.54  1147.13  1164.76  1180.71  1180.81  1181.70
eigval :     1181.84  1182.83  1187.49  1194.89  1195.57  1195.67
eigval :     1201.09  1202.82  1212.14  1217.30  1253.86  1268.05
eigval :     1271.32  1274.23  1278.76  1280.28  1282.26  1283.81
eigval :     1294.20  1313.02  1314.09  1316.22  1318.74  1320.55
eigval :     1321.29  1325.67  1326.86  1327.39  1340.22  1358.95
eigval :     1388.04  1398.55  1416.62  1419.68  1429.89  1434.63
eigval :     1436.57  1443.05  1452.83  1463.61  1470.36  1472.93
eigval :     1476.56  1488.83  1500.43  1542.24  1554.24  1559.02
eigval :     1563.59  1566.20  1577.48  1578.52  1581.32  1582.08
eigval :     1583.67  1588.17  1595.05  1597.28  1599.09  1600.02
eigval :     1604.99  3069.58  3070.36  3071.52  3074.32  3075.73
eigval :     3076.11  3076.68  3077.29  3077.36  3077.48  3079.50
eigval :     3082.71  3084.16  3085.08  3085.91  3086.17  3086.76
eigval :     3088.77  3089.11  3089.72  3090.37  3091.82  3092.12
eigval :     3094.64  3096.16  3097.27  3097.77  3103.15  3103.67
eigval :     3103.84  3105.36  3111.47

   temp. (K)  partition function   enthalpy   heat capacity  entropy
                                   cal/mol     cal/K/mol   cal/K/mol   J/K/mol
 298.15  VIB  0.161E+21            23884.609    145.690    152.077
         ROT  0.143E+09              888.752      2.981     40.300
         INT  0.230E+29            24773.362    148.670    192.377
         TR   0.177E+29             1481.254      4.968     45.475
         TOT                       26254.6156   153.6386   237.8517   995.1713

       T/K    H(0)-H(T)+PV         H(T)/Eh          T*S/Eh         G(T)/Eh
   ------------------------------------------------------------------------
    298.15    0.418394E-01    0.664281E+00    0.113011E+00    0.551270E+00
   ------------------------------------------------------------------------

         :::::::::::::::::::::::::::::::::::::::::::::::::::::
         ::                  THERMODYNAMIC                  ::
         :::::::::::::::::::::::::::::::::::::::::::::::::::::
         :: total free energy        -125.000847920738 Eh   ::
         ::.................................................::
         :: total energy             -125.552118148887 Eh   ::
         :: zero point energy           0.622441831915 Eh   ::
         :: G(RRHO) w/o ZPVE           -0.071171603766 Eh   ::
         :: G(RRHO) contrib.            0.551270228150 Eh   ::
         :::::::::::::::::::::::::::::::::::::::::::::::::::::

           -------------------------------------------------
          | TOTAL ENERGY             -125.552118148887 Eh   |
          | TOTAL ENTHALPY           -124.887836923891 Eh   |
          | TOTAL FREE ENERGY        -125.000847920738 Eh   |
          | GRADIENT NORM               0.000029793865 Eh/α |
          | HOMO-LUMO GAP               2.196807315792 eV   |
           -------------------------------------------------

 * finished run on 2025/08/22 at 04:35:47.554
