   * xtb version 6.7.1 (edcfbbe) compiled by 'albert@albert-system' on 2024-07-22

   ID    Z sym.   atoms
    1   35 Br     1
    2    6 C      2-6, 8-16, 18-33, 35-49
    3    7 N      7, 17, 34
    4    1 H      50-81

          program call               : xtb data2507/gas/TPA-PyI/TPA-PyI_gas_S0_finalOpt.xtbopt.xyz --gfn 2 --spinpol --tblite --uhf 2 --ohess vtight --parallel 40 --molden --ceasefiles --namespace data2507/gas/TPA-PyI/TPA-PyI_gas_T1_preOpt
 * total energy  :  -125.4590303 Eh     change       -0.5109229E-08 Eh
 * total energy  :  -125.4653553 Eh     change       -0.6324989E-02 Eh
 * total energy  :  -125.4683530 Eh     change       -0.2997677E-02 Eh
 * total energy  :  -125.4691780 Eh     change       -0.8250561E-03 Eh
 * total energy  :  -125.4700305 Eh     change       -0.8524596E-03 Eh
 * total energy  :  -125.4705250 Eh     change       -0.4944535E-03 Eh
 * total energy  :  -125.4708216 Eh     change       -0.2966682E-03 Eh
 * total energy  :  -125.4710071 Eh     change       -0.1854612E-03 Eh
 * total energy  :  -125.4711515 Eh     change       -0.1444202E-03 Eh
 * total energy  :  -125.4712730 Eh     change       -0.1215316E-03 Eh
 * total energy  :  -125.4717512 Eh     change       -0.2430984E-06 Eh
 * total energy  :  -125.4717515 Eh     change       -0.2942308E-06 Eh
 * total energy  :  -125.4717518 Eh     change       -0.3487479E-06 Eh
 * total energy  :  -125.4717521 Eh     change       -0.3100959E-06 Eh
 * total energy  :  -125.4717524 Eh     change       -0.2949013E-06 Eh
 * total energy  :  -125.4717526 Eh     change       -0.2226643E-06 Eh
 * total energy  :  -125.4717528 Eh     change       -0.1469711E-06 Eh
 * total energy  :  -125.4717528 Eh     change        0.1096248E-07 Eh
 * total energy  :  -125.4717528 Eh     change       -0.2183417E-07 Eh
   *** GEOMETRY OPTIMIZATION CONVERGED AFTER 54 ITERATIONS ***

 final structure:
================
81
 xtb: 6.7.1 (edcfbbe)
Br          -4.99916001819116        4.61511910884662       -0.43258798913136
C           -3.97036191655153        3.28787203418048        0.47231799962575
C           -3.17245413075743        3.66054576072094        1.54315766100933
C           -2.43011551712420        2.68158539073673        2.18947029154159
C           -2.49568308691480        1.36380133554762        1.78810344793035
C           -3.30585407253074        1.00135106396363        0.70580416003617
N           -3.41602921684946       -0.33153069694859        0.32199071013037
C           -2.38290068972276       -1.26175305431916        0.11353244926647
C           -1.00551191942290       -1.02235019226132        0.04767726844883
C           -0.13236131518351       -2.15505232156353        0.03160229273842
C            1.21512000262564       -2.01487006381660       -0.01219524261740
C            1.83904798172279       -0.73250609952401       -0.05268882448698
C            3.25603620962208       -0.57758071275145       -0.05941144112811
C            3.87560938691268        0.64034167036187        0.31886018289101
C            5.23460933392082        0.79255066382628        0.31797737801649
C            6.07781032295464       -0.26341469979443       -0.06574006696480
N            7.45919278554932       -0.10927909201287       -0.06956336540237
C            8.02679992472138        1.12577420771103       -0.39907006804913
C            7.45884723779447        1.92088793397264       -1.39594517994866
C            8.02026456813735        3.14165981877426       -1.71334522642268
C            9.15334115629809        3.58705593258680       -1.05095108462070
C            9.72290010932526        2.79955729917266       -0.06277252064880
C            9.16695999419860        1.57936742168980        0.26639568797620
C            8.28762643440567       -1.18834484730933        0.25465342828763
C            7.91480025583291       -2.09059582367246        1.25242276632724
C            8.73422520005423       -3.15701726840671        1.56468846769371
C            9.93466086146646       -3.33958605106563        0.89640007489071
C           10.31081563232543       -2.44441040345523       -0.09265242242010
C            9.49674784480135       -1.37743261955492       -0.41683549751394
C            5.48536914746198       -1.47936835170904       -0.44521213859102
C            4.12624316214097       -1.63014073822313       -0.43940088496016
C            0.96213720861909        0.38821586428394       -0.10931763461538
C           -0.38957014431070        0.25931940874846       -0.07069953655490
N           -2.91067041138497       -2.47433695785793       -0.12594239130246
C           -4.23430325150591       -2.34899371991384       -0.13579504469317
C           -5.09124281130597       -3.50449366544811       -0.34368907142273
C           -4.62159929301979       -4.55333618051308       -1.13545918335843
C           -5.40114333108608       -5.67283929306810       -1.34763045949413
C           -6.65559961569206       -5.76744286903460       -0.76558585626679
C           -7.11936996284961       -4.74090434956717        0.04129158868250
C           -6.34563391485848       -3.61632771722604        0.25577176155905
C           -4.60346993399502       -1.00863051190305        0.13274532614075
C           -5.91314132513693       -0.41259066136915        0.23458306970294
C           -6.88719364622563       -0.71141755584275       -0.72751716849316
C           -8.13840145279466       -0.13606526816631       -0.65884564661526
C           -8.45073419369055        0.74323158682296        0.36811544850290
C           -7.50134290045635        1.03237678319152        1.33636309295557
C           -6.24490958735685        0.46549469808272        1.27470629951976
C           -4.04531855092750        1.98196280932294        0.03785169779194
H           -3.13358705092560        4.68897860391106        1.86410730296598
H           -1.80594653346073        2.95591897408528        3.02612107844328
H           -1.93184389071977        0.60155820550848        2.30371599751022
H           -0.59243807208005       -3.12882101960542        0.08517047925039
H            1.83265360994376       -2.89879187401715        0.02873430318949
H            3.26542287534970        1.46003240742646        0.66412913524303
H            5.67525936057232        1.72508176879252        0.64072002486049
H            6.58435021895663        1.56730392627706       -1.92191294963793
H            7.57486409338779        3.74618730786189       -2.48936353720342
H            9.58989492211259        4.54115423887383       -1.30338357900043
H           10.60255996119476        3.14213947759988        0.46159778071739
H            9.60400494721725        0.97216853336164        1.04554291929465
H            6.98621096464614       -1.94024310825914        1.78300429798019
H            8.43745497236130       -3.84616055221352        2.34125725727040
H           10.57292889092076       -4.17357323835191        1.14481249153980
H           11.24194353527869       -2.58302673753276       -0.62171501906782
H            9.78458042790997       -0.68787364693697       -1.19683681789130
H            6.11874014494953       -2.29249550481415       -0.76998927565016
H            3.71043087884039       -2.56469194693094       -0.78082386583776
H            1.38164116744368        1.37392138328679       -0.24415081610515
H           -1.00463793470242        1.13746756378007       -0.18971702027707
H           -3.64149718697440       -4.46439231598756       -1.57783173759893
H           -5.03223703313605       -6.47629220030881       -1.96851205330765
H           -7.26702335427166       -6.64199004615084       -0.93322719100019
H           -8.08920677380902       -4.81926918622228        0.51088763029712
H           -6.70531962387788       -2.83223682354914        0.90494083177927
H           -6.63899490775650       -1.38384480473529       -1.53559118739760
H           -8.87467584099020       -0.36656370747606       -1.41468702373665
H           -9.42860820683971        1.19773066508856        0.41520311204756
H           -7.74363288972946        1.70450808555051        2.14655317248651
H           -5.52240286444300        0.67537088509235        2.05025525393564
H           -4.65944472687738        1.71682362257273       -0.80855934627539

 projected vibrational frequencies (cm⁻¹)
eigval :       -0.00    -0.00    -0.00     0.00     0.00     0.00
eigval :        8.69     9.75    13.67    19.38    23.57    30.99
eigval :       34.48    36.52    42.71    49.98    56.51    58.62
eigval :       64.35    72.57    80.04    89.58    94.85   102.69
eigval :      105.45   122.84   137.10   146.74   165.28   177.10
eigval :      186.62   213.15   228.06   232.60   241.89   246.60
eigval :      249.90   255.92   267.91   280.90   300.27   309.45
eigval :      315.16   325.03   355.17   367.97   371.38   376.34
eigval :      377.75   378.96   384.07   389.91   401.11   409.98
eigval :      412.25   429.56   445.04   459.99   474.89   483.11
eigval :      488.81   495.50   506.15   518.62   531.77   579.27
eigval :      583.94   584.68   586.37   589.99   593.00   601.30
eigval :      609.05   610.00   617.46   630.05   647.91   651.13
eigval :      655.08   655.98   660.22   662.02   674.34   675.00
eigval :      678.32   682.71   720.67   734.05   751.82   756.50
eigval :      759.91   763.25   775.31   787.59   796.05   808.70
eigval :      813.33   835.06   864.48   872.43   872.50   874.01
eigval :      876.39   876.95   892.69   893.54   897.11   903.11
eigval :      903.86   906.76   908.18   909.86   912.47   915.89
eigval :      918.57   927.28   927.39   928.37   928.84   928.99
eigval :      929.19   929.31   930.65   931.55   935.92   948.72
eigval :      969.13   978.40   988.96  1001.06  1002.54  1010.05
eigval :     1031.31  1073.25  1080.72  1081.24  1082.15  1082.31
eigval :     1097.31  1118.48  1121.20  1121.53  1121.80  1123.69
eigval :     1133.55  1135.70  1154.89  1162.71  1179.36  1179.81
eigval :     1179.93  1180.37  1181.17  1188.03  1192.59  1193.51
eigval :     1197.61  1201.22  1207.24  1221.20  1247.44  1254.45
eigval :     1262.02  1266.41  1273.23  1277.01  1280.26  1281.31
eigval :     1283.14  1300.90  1311.06  1316.62  1318.93  1320.01
eigval :     1321.53  1322.58  1327.38  1332.04  1337.30  1356.18
eigval :     1384.14  1389.65  1409.83  1416.22  1421.41  1431.84
eigval :     1432.46  1433.21  1437.12  1441.43  1452.30  1458.97
eigval :     1464.65  1464.96  1469.69  1474.56  1479.26  1499.91
eigval :     1509.11  1516.16  1550.97  1556.71  1568.01  1571.63
eigval :     1572.88  1575.56  1578.37  1583.68  1587.74  1592.30
eigval :     1598.41  3072.62  3074.24  3074.85  3076.52  3077.17
eigval :     3077.65  3079.38  3080.31  3080.74  3081.25  3081.44
eigval :     3084.56  3087.57  3087.92  3088.75  3089.17  3089.69
eigval :     3089.90  3092.55  3093.03  3095.05  3097.80  3099.59
eigval :     3100.77  3101.06  3101.40  3103.45  3104.05  3104.41
eigval :     3105.79  3110.60  3112.45

   temp. (K)  partition function   enthalpy   heat capacity  entropy
                                   cal/mol     cal/K/mol   cal/K/mol   J/K/mol
 298.15  VIB  0.948E+20            24086.899    147.751    152.460
         ROT  0.164E+09              888.752      2.981     40.574
         INT  0.156E+29            24975.652    150.732    193.034
         TR   0.177E+29             1481.254      4.968     45.475
         TOT                       26456.9055   155.7000   238.5089   997.9211

       T/K    H(0)-H(T)+PV         H(T)/Eh          T*S/Eh         G(T)/Eh
   ------------------------------------------------------------------------
    298.15    0.421618E-01    0.660942E+00    0.113323E+00    0.547619E+00
   ------------------------------------------------------------------------

         :::::::::::::::::::::::::::::::::::::::::::::::::::::
         ::                  THERMODYNAMIC                  ::
         :::::::::::::::::::::::::::::::::::::::::::::::::::::
         :: total free energy        -124.924134247311 Eh   ::
         ::.................................................::
         :: total energy             -125.471752850441 Eh   ::
         :: zero point energy           0.618780095340 Eh   ::
         :: G(RRHO) w/o ZPVE           -0.071161492210 Eh   ::
         :: G(RRHO) contrib.            0.547618603130 Eh   ::
         :::::::::::::::::::::::::::::::::::::::::::::::::::::

           -------------------------------------------------
          | TOTAL ENERGY             -125.471752850441 Eh   |
          | TOTAL ENTHALPY           -124.810810992542 Eh   |
          | TOTAL FREE ENERGY        -124.924134247311 Eh   |
          | GRADIENT NORM               0.000067395838 Eh/α |
           -------------------------------------------------

 * finished run on 2025/08/22 at 04:42:56.257
