   * xtb version 6.7.1 (edcfbbe) compiled by 'albert@albert-system' on 2024-07-22

   ID    Z sym.   atoms
    1   35 Br     1
    2    6 C      2-6, 8-16, 18-33, 35-49
    3    7 N      7, 17, 34
    4    1 H      50-81

          program call               : xtb data2507/gas/TPA-PyI/TPA-PyI_gas_T1_crest.xyz --gfn 2 --spinpol --tblite --uhf 2 --ohess vtight --parallel 40 --molden --ceasefiles --namespace data2507/gas/TPA-PyI/TPA-PyI_gas_T1_finalOpt
 * total energy  :  -125.4717088 Eh     change        0.9094973E-07 Eh
 * total energy  :  -125.4717182 Eh     change       -0.9356575E-05 Eh
 * total energy  :  -125.4717219 Eh     change       -0.3782232E-05 Eh
 * total energy  :  -125.4717231 Eh     change       -0.1149941E-05 Eh
 * total energy  :  -125.4717245 Eh     change       -0.1422357E-05 Eh
 * total energy  :  -125.4717263 Eh     change       -0.1743966E-05 Eh
 * total energy  :  -125.4717283 Eh     change       -0.2038315E-05 Eh
 * total energy  :  -125.4717306 Eh     change       -0.2278428E-05 Eh
 * total energy  :  -125.4717327 Eh     change       -0.2155230E-05 Eh
 * total energy  :  -125.4717352 Eh     change       -0.2450195E-05 Eh
 * total energy  :  -125.4717410 Eh     change       -0.1079507E-05 Eh
 * total energy  :  -125.4717420 Eh     change       -0.9879776E-06 Eh
 * total energy  :  -125.4717427 Eh     change       -0.6903056E-06 Eh
 * total energy  :  -125.4717432 Eh     change       -0.5228627E-06 Eh
 * total energy  :  -125.4717437 Eh     change       -0.4408009E-06 Eh
 * total energy  :  -125.4717440 Eh     change       -0.3870272E-06 Eh
 * total energy  :  -125.4717444 Eh     change       -0.4028675E-06 Eh
 * total energy  :  -125.4717444 Eh     change        0.5873360E-08 Eh
 * total energy  :  -125.4717444 Eh     change       -0.1073388E-08 Eh
   *** GEOMETRY OPTIMIZATION CONVERGED AFTER 23 ITERATIONS ***

 final structure:
================
81
 xtb: 6.7.1 (edcfbbe)
Br          -5.01917374737404        4.52473842687558       -0.52480556743280
C           -3.99856201910833        3.21626158608354        0.41603339101424
C           -3.23413777315060        3.60579124468432        1.50512963056129
C           -2.49682539098527        2.64042341298457        2.17722891930801
C           -2.53517681655557        1.31949418050320        1.78290221939525
C           -3.31222153000101        0.93983308740614        0.68235780093703
N           -3.39510367485606       -0.39683143086367        0.30518102309601
C           -2.34442954349669       -1.31481067460500        0.13456013744282
C           -0.96924509991386       -1.05634237870475        0.09831749069856
C           -0.08010541263112       -2.17627878994893        0.11765600020594
C            1.26573938273675       -2.01791792750336        0.08654282812277
C            1.87254055324304       -0.72827012966289        0.02239056315739
C            3.28726471384976       -0.55452147874167        0.00821962810377
C            3.89240574462756        0.68204996577122        0.34802806146614
C            5.24875216159129        0.85473820001399        0.32715876607523
C            6.10390999273176       -0.19851267610794       -0.03701922423574
N            7.48233519412775       -0.02126178416652       -0.06726271323487
C            8.02219593068864        1.20990394195659       -0.45257607842589
C            7.42106962055282        1.95827197008146       -1.46614324317474
C            7.95467880039856        3.17575536682585       -1.83912172870850
C            9.09261101744625        3.66410077862858       -1.21650103623788
C            9.69506526272166        2.92308582098535       -0.21200010015687
C            9.16707738817643        1.70672107348322        0.17273023051833
C            8.33371512632131       -1.07423985785068        0.28180164345726
C            7.99098368568931       -1.94553559528859        1.31719332282837
C            8.83281123905748       -2.98634726419263        1.65514908205354
C           10.02587838975436       -3.17377439356566        0.97508569400342
C           10.37177391614002       -2.30967306290469       -0.05192923254039
C            9.53526257641344       -1.26844214507195       -0.40170145764864
C            5.52664358624202       -1.43472300105596       -0.37153967974470
C            4.17006936092922       -1.60523810876639       -0.34779772690947
C            0.98046607585978        0.37915645437759       -0.05669120844787
C           -0.36972388347135        0.23210928010940       -0.02809129009804
N           -2.84888456658303       -2.53655887572112       -0.10824450280858
C           -4.17320268794144       -2.42881028977280       -0.15807766445022
C           -5.00883781962344       -3.59630875737133       -0.38484744878571
C           -6.27937044135413       -3.72093146112707        0.17682343567663
C           -7.03300942572890       -4.85530110052219       -0.05680004905867
C           -6.53301376905847       -5.87892144107259       -0.84556672955868
C           -5.26257083503890       -5.77158853697613       -1.38944785696810
C           -4.50294852792078       -4.64228531449833       -1.15784223690977
C           -4.56757397393621       -1.09132686484478        0.08777469436235
C           -5.88744070113756       -0.51195316408961        0.14418266505943
C           -6.82674840123693       -0.83135855798083       -0.84545050945576
C           -8.08671132060584       -0.27179787106114       -0.82118833705074
C           -8.44245163151152        0.61181971613971        0.18779768082093
C           -7.52790978827351        0.92114997238175        1.18296700098179
C           -6.26303707813031        0.37010801547095        1.16584816973406
C           -4.04578292882940        1.90679728624903       -0.01158799524420
H           -3.21677890210713        4.63659804188619        1.82025471153591
H           -1.89853480430458        2.92793284032537        3.02823718411912
H           -1.97541852097310        0.56771413552215        2.31796905569531
H           -0.52691584108335       -3.15533808563624        0.18541181508785
H            1.89464704777726       -2.89216445806545        0.15373725079172
H            3.27385335311353        1.50197356264024        0.67737044411421
H            5.67871761365353        1.80270169219356        0.61777878979485
H            6.54282915939742        1.57097355355862       -1.96121401168939
H            7.48361152681542        3.74373321697001       -2.62749925164401
H            9.50742641508435        4.61541429279651       -1.51237431462914
H           10.57875529264320        3.29940477092955        0.28156092454013
H            9.62986915803313        1.13609746661866        0.96454672789440
H            7.06798084690718       -1.79091021237714        1.85623937953278
H            8.55953632385492       -3.65125932159094        2.46091635815298
H           10.68182254339155       -3.98753801069810        1.24369138106621
H           11.29676613042134       -2.45278141567070       -0.59048001041296
H            9.79950503589860       -0.60352761293265       -1.21089876392723
H            6.16922246606286       -2.24782829925088       -0.67776667245617
H            3.76567719921792       -2.55580615212839       -0.65703851874756
H            1.38671118382594        1.36892343138350       -0.20147168654850
H           -0.99533438523882        1.10043468570412       -0.16343462255552
H           -6.66779036330141       -2.93874920725378        0.81160670363711
H           -8.01574347528404       -4.94349720019418        0.38331509233940
H           -7.12896957485543       -6.76097171937940       -1.02883695828338
H           -4.86564377582463       -6.57265785016143       -1.99597533669053
H           -3.51098741584717       -4.54319148019546       -1.57066053006477
H           -6.54450074291857       -1.50700578950794       -1.63954515818775
H           -8.79569317753360       -0.51799414463902       -1.59788788273371
H           -9.42696185716722        1.05409118381166        0.20002960501099
H           -7.80423347636262        1.59680021190892        1.97921888318307
H           -5.56804641595233        0.59572887798318        1.96185901527066
H           -4.63372372808583        1.62868047686971       -0.87228992269130

 projected vibrational frequencies (cm⁻¹)
eigval :       -0.00    -0.00    -0.00    -0.00     0.00     0.00
eigval :        8.54     9.51    13.69    19.27    23.52    30.85
eigval :       34.28    36.31    42.32    49.75    56.19    58.41
eigval :       64.26    72.78    79.82    88.79    94.95   102.66
eigval :      104.86   122.62   136.45   146.85   165.24   176.76
eigval :      186.07   213.07   227.95   232.36   241.80   246.60
eigval :      249.94   255.92   267.79   280.73   300.28   309.49
eigval :      315.27   325.15   355.07   367.86   371.29   376.09
eigval :      377.60   378.88   383.77   389.55   401.07   409.85
eigval :      412.00   429.67   444.61   460.07   474.67   482.82
eigval :      488.58   495.42   505.93   518.69   531.74   579.08
eigval :      583.83   584.52   586.24   589.89   592.92   601.07
eigval :      608.90   610.15   617.52   630.08   647.81   651.22
eigval :      654.93   655.98   660.15   661.89   674.29   674.91
eigval :      678.39   682.61   720.75   734.11   751.64   756.28
eigval :      759.69   763.11   775.16   787.54   795.62   808.01
eigval :      813.20   834.24   864.18   872.09   872.31   873.74
eigval :      876.20   876.73   892.52   893.25   896.96   902.95
eigval :      903.68   906.53   907.50   909.73   912.39   915.40
eigval :      918.28   927.09   927.17   928.19   928.52   928.79
eigval :      928.97   929.13   930.55   931.33   935.87   948.66
eigval :      969.01   978.43   989.10  1001.38  1002.64  1010.35
eigval :     1031.32  1073.57  1080.94  1081.48  1082.35  1082.59
eigval :     1097.44  1118.52  1121.14  1121.62  1121.92  1123.76
eigval :     1133.40  1135.63  1155.06  1162.20  1178.91  1179.46
eigval :     1179.57  1180.04  1180.79  1187.72  1192.22  1193.14
eigval :     1197.41  1200.92  1207.26  1221.11  1247.68  1254.31
eigval :     1261.98  1266.16  1273.26  1276.89  1280.07  1281.06
eigval :     1282.78  1300.99  1311.02  1316.58  1318.83  1319.97
eigval :     1321.49  1322.55  1327.41  1331.82  1337.33  1356.17
eigval :     1384.04  1389.86  1409.55  1416.08  1421.23  1431.53
eigval :     1432.43  1433.08  1436.96  1441.35  1452.00  1458.80
eigval :     1464.39  1464.69  1469.52  1474.40  1479.26  1499.87
eigval :     1509.01  1516.18  1551.09  1556.40  1568.06  1571.72
eigval :     1572.95  1575.62  1578.29  1583.69  1587.63  1592.38
eigval :     1598.41  3072.23  3073.86  3074.50  3076.08  3076.79
eigval :     3077.29  3078.99  3079.91  3080.81  3080.99  3081.20
eigval :     3084.23  3087.15  3087.39  3088.46  3088.81  3089.37
eigval :     3089.55  3092.11  3092.60  3094.63  3097.32  3099.19
eigval :     3100.41  3100.75  3101.06  3103.24  3103.66  3104.45
eigval :     3105.53  3110.20  3111.95

   temp. (K)  partition function   enthalpy   heat capacity  entropy
                                   cal/mol     cal/K/mol   cal/K/mol   J/K/mol
 298.15  VIB  0.105E+21            24097.562    147.744    152.585
         ROT  0.164E+09              888.752      2.981     40.574
         INT  0.173E+29            24986.315    150.725    193.159
         TR   0.177E+29             1481.254      4.968     45.475
         TOT                       26467.5684   155.6927   238.6337   998.4436

       T/K    H(0)-H(T)+PV         H(T)/Eh          T*S/Eh         G(T)/Eh
   ------------------------------------------------------------------------
    298.15    0.421788E-01    0.660876E+00    0.113383E+00    0.547493E+00
   ------------------------------------------------------------------------

         :::::::::::::::::::::::::::::::::::::::::::::::::::::
         ::                  THERMODYNAMIC                  ::
         :::::::::::::::::::::::::::::::::::::::::::::::::::::
         :: total free energy        -124.924250926625 Eh   ::
         ::.................................................::
         :: total energy             -125.471744418917 Eh   ::
         :: zero point energy           0.618697329284 Eh   ::
         :: G(RRHO) w/o ZPVE           -0.071203836991 Eh   ::
         :: G(RRHO) contrib.            0.547493492293 Eh   ::
         :::::::::::::::::::::::::::::::::::::::::::::::::::::

           -------------------------------------------------
          | TOTAL ENERGY             -125.471744418917 Eh   |
          | TOTAL ENTHALPY           -124.810868334517 Eh   |
          | TOTAL FREE ENERGY        -124.924250926625 Eh   |
          | GRADIENT NORM               0.000144367609 Eh/α |
           -------------------------------------------------

 * finished run on 2025/08/22 at 04:49:13.825
