   * xtb version 6.7.1 (edcfbbe) compiled by 'albert@albert-system' on 2024-07-22

   ID    Z sym.   atoms
    1   35 Br     1
    2    6 C      2-6, 8-16, 18-33, 35-49
    3    7 N      7, 17, 34
    4    1 H      50-81

          program call               : xtb data2507/gas/TPA-PyI/TPA-PyI_gas_S0_crest.xyz --gfn 2 --ohess vtight --parallel 40 --molden --ceasefiles --namespace data2507/gas/TPA-PyI/TPA-PyI_gas_S0_finalOpt
          :  Hamiltonian                  GFN2-xTB          :
 * total energy  :  -125.5524330 Eh     change       -0.3386745E-08 Eh
 * total energy  :  -125.5524348 Eh     change       -0.1706311E-05 Eh
 * total energy  :  -125.5524375 Eh     change       -0.2769390E-05 Eh
 * total energy  :  -125.5524409 Eh     change       -0.3394139E-05 Eh
 * total energy  :  -125.5524426 Eh     change       -0.1697754E-05 Eh
 * total energy  :  -125.5524443 Eh     change       -0.1652684E-05 Eh
 * total energy  :  -125.5524464 Eh     change       -0.2179595E-05 Eh
 * total energy  :  -125.5524486 Eh     change       -0.2118798E-05 Eh
 * total energy  :  -125.5524501 Eh     change       -0.1554718E-05 Eh
 * total energy  :  -125.5524514 Eh     change       -0.1319828E-05 Eh
 * total energy  :  -125.5524566 Eh     change       -0.1173171E-05 Eh
 * total energy  :  -125.5524576 Eh     change       -0.9846069E-06 Eh
 * total energy  :  -125.5524586 Eh     change       -0.9481413E-06 Eh
 * total energy  :  -125.5524597 Eh     change       -0.1073691E-05 Eh
 * total energy  :  -125.5524609 Eh     change       -0.1248675E-05 Eh
 * total energy  :  -125.5524621 Eh     change       -0.1228057E-05 Eh
 * total energy  :  -125.5524631 Eh     change       -0.1008111E-05 Eh
 * total energy  :  -125.5524640 Eh     change       -0.8098151E-06 Eh
 * total energy  :  -125.5524640 Eh     change       -0.7955393E-08 Eh
   *** GEOMETRY OPTIMIZATION CONVERGED AFTER 22 ITERATIONS ***

 final structure:
================
81
 xtb: 6.7.1 (edcfbbe)
Br          -4.75019840532450        4.53113337971073       -0.62035810826129
C           -3.78533356900207        3.18813463666688        0.32365431032500
C           -2.97900118871766        3.54818799816433        1.39002131459803
C           -2.29123915378209        2.55840601462895        2.07241367824264
C           -2.41806696068166        1.23131574943371        1.70680170119959
C           -3.23000178232635        0.88531588493408        0.62965403074021
N           -3.39092640502271       -0.45885752176116        0.27006065289294
C           -2.41543124713929       -1.40172507177268        0.04453040783137
C           -0.98583309125050       -1.15329721495845        0.02792131698344
C           -0.12986942379829       -2.19835329382764        0.37956842888768
C            1.23642188340056       -2.02270555119896        0.36096079312295
C            1.79509410162083       -0.79832738893711       -0.00729472372750
C            3.24886448182083       -0.60656251749156       -0.01770070071764
C            3.81829489757169        0.58496539088101        0.42979016549273
C            5.18460700419543        0.76565041783901        0.42998796792727
C            6.03236894629150       -0.23897138341343       -0.03994674536179
N            7.41565348955245       -0.05647572044858       -0.05119971827445
C            7.95823503055719        1.20951523533289       -0.30470435972148
C            7.37280396664331        2.05728890414537       -1.24458366587748
C            7.91293226575826        3.30521722184221       -1.48730566428808
C            9.04503179281529        3.72473810932278       -0.80808690496860
C            9.63360715114733        2.88412908491022        0.12247688972634
C            9.09606501984998        1.63781630989380        0.37852063825727
C            8.27095372738978       -1.14013659311051        0.18595985126004
C            7.94324105882218       -2.10718959305414        1.13574741207844
C            8.79011705127649       -3.17466430319924        1.36214569742057
C            9.97635580522834       -3.29186885230394        0.65640741365443
C           10.30918806439513       -2.33076030689058       -0.28405137942752
C            9.46494072288794       -1.26415671196026       -0.52373421916906
C            5.46682491439256       -1.43018798643041       -0.49847471116537
C            4.10081760041512       -1.61054358376049       -0.47672222072472
C            0.93672629750928        0.23585361506528       -0.37801539981784
C           -0.43187633829234        0.06261460179969       -0.37087131043932
N           -2.94717432812768       -2.56943694636965       -0.20845703128077
C           -4.30003945701045       -2.42039470348825       -0.15798120231781
C           -5.17905959521508       -3.56220518795912       -0.35891522969836
C           -4.71015149221648       -4.65126070328843       -1.09245064807794
C           -5.51450445019697       -5.75489574396578       -1.29804930678819
C           -6.79548973007050       -5.79041778574401       -0.77124113656926
C           -7.26223285841388       -4.71933196454918       -0.02704549476182
C           -6.46166289665455       -3.61250460142168        0.18334656043322
C           -4.60558976879750       -1.10182682889914        0.12943068499828
C           -5.88033035970219       -0.40861673848937        0.26772263192658
C           -6.84448978532773       -0.52540492388358       -0.73288476398945
C           -8.04392074452967        0.15182712512906       -0.62747891090724
C           -8.29730109488484        0.95532719913871        0.47277332036611
C           -7.34909825574419        1.06859219646721        1.47541945416417
C           -6.14759063936220        0.39181435628810        1.37716318943331
C           -3.91443417069270        1.87104862717761       -0.07443825712311
H           -2.89277285931149        4.58302653005237        1.68141828898454
H           -1.66050527830318        2.82659008633230        2.90579051026369
H           -1.89360445173682        0.45814466610519        2.24716685594201
H           -0.56445920204328       -3.14306084657558        0.66671383279096
H            1.88404638011988       -2.83515094700563        0.65590462279147
H            3.18102561282873        1.36824080952830        0.81380457451003
H            5.60855845466779        1.68727432442903        0.80114649340165
H            6.49662350109730        1.72795182018478       -1.78383255849140
H            7.45113645061178        3.95127787468864       -2.21949369143766
H            9.46598675961744        4.69934158928785       -1.00310372222945
H           10.51398435327129        3.20429962200154        0.66013926412235
H            9.55149434303201        0.98737851789539        1.11096852620728
H            7.02378678281830       -2.01218395697456        1.69480044998695
H            8.52543512097315       -3.91598750237682        2.10180813437700
H           10.63683643947798       -4.12599362656153        0.83824882642190
H           11.22975892973862       -2.41630349587029       -0.84249395274561
H            9.72195950002891       -0.52070569582313       -1.26412117816735
H            6.10940534056819       -2.21057618339705       -0.87897996364910
H            3.68251952565309       -2.53188169925518       -0.85429939408623
H            1.35020116422566        1.17872578550053       -0.70513638395939
H           -1.06840293648270        0.87000971232554       -0.70257115612502
H           -3.70872447702667       -4.60965853353866       -1.49198653185749
H           -5.14321273417233       -6.59221160818697       -1.87124402203543
H           -7.42596773316345       -6.65246637860535       -0.93354260749907
H           -8.25559642319129       -4.74853731809959        0.39730553833622
H           -6.82701292929909       -2.79058495578089        0.78095531543447
H           -6.64006018512764       -1.14864321933393       -1.59122403288962
H           -8.78205306813195        0.05814657524030       -1.41014619259971
H           -9.23213282202604        1.48984127126403        0.54950506731050
H           -7.54512312298616        1.68699982932814        2.33910195884963
H           -5.41691095162071        0.47277058729718        2.17009523215331
H           -4.53779600436547        1.60792609633139       -0.91498477411955

          :  Hamiltonian                  GFN2-xTB          :
         :: gradient norm              0.000065390241 Eh/a0 ::
         :: HOMO-LUMO gap              2.221081300105 eV    ::
         :: SCC energy              -127.853548430230 Eh    ::
         :: -> dispersion             -0.114937515153 Eh    ::
         :: repulsion energy           2.301084472195 Eh    ::

    * Orbital Energies and Occupations

         #    Occupation            Energy/Eh            Energy/eV
      -------------------------------------------------------------
         1        2.0000           -0.8433832             -22.9496
       ...           ...                  ...                  ...
       105        2.0000           -0.4113845             -11.1943
       106        2.0000           -0.4103655             -11.1666
       107        2.0000           -0.4101423             -11.1605
       108        2.0000           -0.4092778             -11.1370
       109        2.0000           -0.4075545             -11.0901
       110        2.0000           -0.4064844             -11.0610
       111        2.0000           -0.4061773             -11.0526
       112        2.0000           -0.4018413             -10.9347
       113        2.0000           -0.3968556             -10.7990
       114        2.0000           -0.3921050             -10.6697
       115        2.0000           -0.3782438             -10.2925
       116        2.0000           -0.3643756              -9.9152
       117        2.0000           -0.3500348              -9.5249 (HOMO)
       118                         -0.2684116              -7.3039 (LUMO)
       119                         -0.2601557              -7.0792
       120                         -0.2540972              -6.9143
       121                         -0.2458247              -6.6892
       122                         -0.2321559              -6.3173
       123                         -0.2299328              -6.2568
       124                         -0.2290724              -6.2334
       125                         -0.2269390              -6.1753
       126                         -0.2260010              -6.1498
       127                         -0.2233686              -6.0782
       128                         -0.2232732              -6.0756
       ...                                ...                  ...
       233                          0.7068658              19.2348
      -------------------------------------------------------------
                  HL-Gap            0.0816232 Eh            2.2211 eV

     #   Z          covCN         q      C6AA      α(0)
     1  35 Br       1.072    -0.159   189.434    22.192
     2   6 C        2.918     0.085    26.111     8.379
     3   6 C        2.989    -0.038    28.933     8.823
     4   6 C        2.923    -0.025    28.636     8.776
     5   6 C        2.920    -0.041    29.009     8.832
     6   6 C        2.916     0.073    26.375     8.422
     7   7 N        2.851    -0.039    21.991     6.965
     8   6 C        3.150     0.121    25.078     8.191
     9   6 C        2.974    -0.002    28.070     8.691
    10   6 C        2.926    -0.029    28.735     8.791
    11   6 C        2.923    -0.033    28.834     8.806
    12   6 C        2.976     0.012    27.752     8.641
    13   6 C        2.976     0.000    28.019     8.683
    14   6 C        2.924    -0.034    28.853     8.809
    15   6 C        2.920    -0.049    29.227     8.865
    16   6 C        2.923     0.064    26.563     8.452
    17   7 N        2.752    -0.074    22.684     7.074
    18   6 C        2.925     0.065    26.544     8.449
    19   6 C        2.922    -0.047    29.174     8.857
    20   6 C        2.920    -0.029    28.730     8.790
    21   6 C        2.919    -0.038    28.946     8.823
    22   6 C        2.920    -0.029    28.727     8.789
    23   6 C        2.922    -0.047    29.173     8.857
    24   6 C        2.925     0.065    26.545     8.449
    25   6 C        2.922    -0.047    29.171     8.857
    26   6 C        2.920    -0.029    28.729     8.790
    27   6 C        2.919    -0.038    28.942     8.822
    28   6 C        2.920    -0.029    28.725     8.789
    29   6 C        2.922    -0.047    29.168     8.857
    30   6 C        2.921    -0.049    29.217     8.864
    31   6 C        2.924    -0.034    28.844     8.807
    32   6 C        2.924    -0.035    28.880     8.813
    33   6 C        2.920    -0.036    28.888     8.814
    34   7 N        1.914    -0.286    28.266     7.883
    35   6 C        3.162     0.053    26.484     8.412
    36   6 C        2.974     0.010    27.786     8.646
    37   6 C        2.927    -0.030    28.742     8.792
    38   6 C        2.918    -0.029    28.735     8.790
    39   6 C        2.920    -0.032    28.788     8.799
    40   6 C        2.919    -0.030    28.750     8.793
    41   6 C        2.923    -0.037    28.919     8.819
    42   6 C        3.066     0.013    27.651     8.623
    43   6 C        2.972     0.008    27.848     8.656
    44   6 C        2.925    -0.032    28.787     8.799
    45   6 C        2.919    -0.027    28.667     8.780
    46   6 C        2.920    -0.029    28.715     8.787
    47   6 C        2.919    -0.028    28.698     8.785
    48   6 C        2.924    -0.034    28.853     8.809
    49   6 C        3.000    -0.045    29.101     8.849
    50   1 H        0.926     0.059     2.207     2.323
    51   1 H        0.926     0.052     2.301     2.372
    52   1 H        0.926     0.050     2.321     2.382
    53   1 H        0.926     0.053     2.289     2.366
    54   1 H        0.926     0.037     2.486     2.465
    55   1 H        0.926     0.032     2.564     2.504
    56   1 H        0.926     0.032     2.557     2.501
    57   1 H        0.926     0.032     2.558     2.501
    58   1 H        0.926     0.032     2.560     2.502
    59   1 H        0.926     0.031     2.576     2.510
    60   1 H        0.926     0.032     2.559     2.502
    61   1 H        0.926     0.032     2.562     2.503
    62   1 H        0.926     0.032     2.560     2.502
    63   1 H        0.926     0.032     2.558     2.501
    64   1 H        0.926     0.031     2.573     2.509
    65   1 H        0.926     0.032     2.557     2.500
    66   1 H        0.926     0.032     2.560     2.502
    67   1 H        0.926     0.033     2.543     2.494
    68   1 H        0.926     0.035     2.512     2.479
    69   1 H        0.926     0.033     2.551     2.498
    70   1 H        0.926     0.022     2.710     2.574
    71   1 H        0.926     0.050     2.318     2.381
    72   1 H        0.926     0.030     2.589     2.516
    73   1 H        0.926     0.028     2.616     2.529
    74   1 H        0.926     0.027     2.629     2.536
    75   1 H        0.926     0.025     2.654     2.548
    76   1 H        0.926     0.034     2.526     2.485
    77   1 H        0.926     0.035     2.519     2.482
    78   1 H        0.926     0.034     2.528     2.486
    79   1 H        0.926     0.031     2.574     2.509
    80   1 H        0.925     0.020     2.728     2.583
    81   1 H        0.926     0.060     2.202     2.320

molecular dipole:
                 x           y           z       tot (Debye)
 q only:        0.869       0.152       0.576
   full:        0.876       0.229       0.897       3.240

 projected vibrational frequencies (cm⁻¹)
eigval :       -0.00    -0.00    -0.00    -0.00     0.00     0.00
eigval :        7.99    11.10    12.05    20.13    22.56    30.83
eigval :       33.63    34.77    40.21    48.86    53.70    55.39
eigval :       64.69    72.50    74.35    83.62    87.76    97.79
eigval :      106.02   124.99   130.44   139.78   166.98   177.76
eigval :      188.87   206.24   231.78   233.18   243.39   244.63
eigval :      250.10   267.02   269.17   282.76   305.94   313.66
eigval :      321.16   346.11   366.84   371.18   374.65   376.52
eigval :      378.11   381.33   386.33   388.87   404.35   412.55
eigval :      419.77   433.77   465.58   476.45   487.11   488.66
eigval :      497.75   515.01   517.84   539.02   545.89   584.46
eigval :      586.06   587.16   587.98   593.94   601.25   610.52
eigval :      616.64   616.75   630.24   651.37   655.88   659.31
eigval :      660.06   664.96   668.59   675.16   682.11   685.82
eigval :      690.35   705.59   726.78   746.79   757.34   759.03
eigval :      764.00   765.83   787.52   800.62   807.10   830.71
eigval :      868.32   874.12   875.02   876.66   876.96   878.30
eigval :      879.71   892.19   892.81   893.16   902.39   904.05
eigval :      910.06   914.60   915.76   922.19   924.80   925.43
eigval :      927.86   929.17   929.41   929.53   930.04   930.94
eigval :      931.69   932.19   932.87   942.28   950.09   972.10
eigval :      979.49   989.85  1005.16  1012.41  1020.83  1036.84
eigval :     1081.27  1081.95  1083.24  1083.77  1084.15  1100.43
eigval :     1109.86  1119.19  1121.13  1121.79  1123.94  1125.46
eigval :     1138.07  1147.00  1164.02  1180.70  1180.79  1181.53
eigval :     1181.72  1181.83  1187.30  1195.24  1195.53  1195.89
eigval :     1201.14  1202.86  1214.02  1216.93  1253.07  1268.13
eigval :     1271.70  1274.17  1278.66  1280.37  1282.48  1284.43
eigval :     1294.42  1312.89  1313.59  1316.03  1318.31  1320.49
eigval :     1321.79  1326.29  1326.88  1328.00  1340.95  1358.42
eigval :     1390.73  1399.37  1415.72  1418.53  1429.36  1434.78
eigval :     1436.58  1443.02  1452.17  1463.09  1469.78  1472.55
eigval :     1476.34  1488.13  1500.05  1536.69  1553.51  1558.63
eigval :     1563.15  1566.28  1577.55  1578.50  1581.37  1582.33
eigval :     1583.50  1587.96  1594.97  1597.19  1598.88  1599.95
eigval :     1604.87  3068.49  3069.67  3074.28  3074.36  3075.94
eigval :     3076.23  3076.74  3077.25  3077.46  3078.56  3079.56
eigval :     3082.50  3083.80  3085.20  3085.96  3086.63  3087.52
eigval :     3088.66  3089.27  3089.63  3089.97  3092.04  3092.32
eigval :     3093.66  3097.52  3097.54  3098.00  3103.17  3104.07
eigval :     3106.06  3106.36  3111.04

   temp. (K)  partition function   enthalpy   heat capacity  entropy
                                   cal/mol     cal/K/mol   cal/K/mol   J/K/mol
 298.15  VIB  0.132E+21            23880.195    145.628    151.770
         ROT  0.161E+09              888.752      2.981     40.539
         INT  0.213E+29            24768.947    148.609    192.309
         TR   0.177E+29             1481.254      4.968     45.475
         TOT                       26250.2014   153.5773   237.7840   994.8882

       T/K    H(0)-H(T)+PV         H(T)/Eh          T*S/Eh         G(T)/Eh
   ------------------------------------------------------------------------
    298.15    0.418324E-01    0.664286E+00    0.112979E+00    0.551307E+00
   ------------------------------------------------------------------------

         :::::::::::::::::::::::::::::::::::::::::::::::::::::
         ::                  THERMODYNAMIC                  ::
         :::::::::::::::::::::::::::::::::::::::::::::::::::::
         :: total free energy        -125.001157054991 Eh   ::
         ::.................................................::
         :: total energy             -125.552463958034 Eh   ::
         :: zero point energy           0.622453391034 Eh   ::
         :: G(RRHO) w/o ZPVE           -0.071146487990 Eh   ::
         :: G(RRHO) contrib.            0.551306903043 Eh   ::
         :::::::::::::::::::::::::::::::::::::::::::::::::::::

           -------------------------------------------------
          | TOTAL ENERGY             -125.552463958034 Eh   |
          | TOTAL ENTHALPY           -124.888178208344 Eh   |
          | TOTAL FREE ENERGY        -125.001157054991 Eh   |
          | GRADIENT NORM               0.000065390497 Eh/α |
          | HOMO-LUMO GAP               2.221080422145 eV   |
           -------------------------------------------------

 * finished run on 2025/08/22 at 04:42:44.723
