   * xtb version 6.7.1 (edcfbbe) compiled by 'albert@albert-system' on 2024-07-22

   ID    Z sym.   atoms
    1    6 C      1-25, 28-39, 42
    2    7 N      26, 27, 40, 41
    3    1 H      43-66

          program call               : xtb data2507/toluene/BPy-TP2/BPy-TP2_toluene_T1_crest.xyz --gfn 2 --uhf 2 --gbsa toluene --ohess vtight --parallel 40 --molden --ceasefiles --namespace data2507/toluene/BPy-TP2/BPy-TP2_toluene_T1_finalOpt
      * Solvation model:               GBSA
        Solvent                        toluene
        Solvent mass                       9.2140E+01 g/mol
          :  Hamiltonian                  GFN2-xTB          :
 * total energy  :  -105.2774474 Eh     change       -0.3266720E-08 Eh
 * total energy  :  -105.2774899 Eh     change       -0.4254411E-04 Eh
 * total energy  :  -105.2775048 Eh     change       -0.1485188E-04 Eh
 * total energy  :  -105.2775082 Eh     change       -0.3482389E-05 Eh
 * total energy  :  -105.2775111 Eh     change       -0.2905815E-05 Eh
 * total energy  :  -105.2775146 Eh     change       -0.3416206E-05 Eh
 * total energy  :  -105.2775194 Eh     change       -0.4850018E-05 Eh
 * total energy  :  -105.2775252 Eh     change       -0.5798146E-05 Eh
 * total energy  :  -105.2775311 Eh     change       -0.5855097E-05 Eh
 * total energy  :  -105.2775373 Eh     change       -0.6230346E-05 Eh
 * total energy  :  -105.2775658 Eh     change       -0.1592057E-06 Eh
 * total energy  :  -105.2775659 Eh     change       -0.1391632E-06 Eh
 * total energy  :  -105.2775660 Eh     change       -0.1285771E-06 Eh
 * total energy  :  -105.2775662 Eh     change       -0.1348442E-06 Eh
 * total energy  :  -105.2775663 Eh     change       -0.1472984E-06 Eh
 * total energy  :  -105.2775664 Eh     change       -0.1414697E-06 Eh
 * total energy  :  -105.2775666 Eh     change       -0.1060857E-06 Eh
 * total energy  :  -105.2775667 Eh     change       -0.1039408E-06 Eh
 * total energy  :  -105.2775667 Eh     change       -0.7210292E-07 Eh
   *** GEOMETRY OPTIMIZATION CONVERGED AFTER 43 ITERATIONS ***

 final structure:
================
66
 xtb: 6.7.1 (edcfbbe)
C           11.91474933757437        0.41127525947716       -0.48135295156951
C           11.16078285334215       -0.60973177839254       -1.05730373345602
C            9.78864067938963       -0.56836085039050       -0.96074554396124
C            9.18383413954868        0.50260063370187       -0.27920587281019
C            7.74659893096318        0.59120150281819       -0.15980344951266
C            7.12867368767610        1.66649959618211        0.50885087659648
C            5.76737149984270        1.68193093564642        0.64725723748916
C            4.97968065059455        0.64107700225157        0.10425651288388
C            3.54144735011532        0.61643082701410        0.19386785428596
C            2.79154324475508        1.80911975251719        0.28602385470544
C            1.43077436698802        1.77321109089289        0.34221621953266
C            0.70112737650647        0.55819338303633        0.32023297372736
C           -0.72107976075340        0.52780757086670        0.28912776721564
C           -1.50007786153581        1.71196601363895        0.26966069512494
C           -2.85992792537925        1.69073029930147        0.18743870377523
C           -3.55758485248419        0.46702756345050        0.09651878666089
C           -4.99311752325811        0.42598497959883       -0.02782713602893
C           -5.68382053522706       -0.62677723696088       -0.67053958387380
C           -7.05096050430393       -0.62347177860800       -0.73194872089194
C           -7.76905081487751        0.45023761452389       -0.16984279831669
C           -9.20963014790423        0.52286084782640       -0.25851658809830
C           -9.91740241413734        1.58950156229569        0.32309853884089
C          -11.29001554817723        1.61281596796791        0.22654934194933
C          -11.94280964679267        0.57836400201743       -0.44151368789440
C          -11.16431510667687       -0.43285383227725       -0.98528676137015
N           -9.85174962185670       -0.45944236188398       -0.90242025403933
N           -7.11288366244112        1.43449174536319        0.46024418384545
C           -5.81144950791951        1.42920745358395        0.53050486315266
C           -2.79972401942834       -0.70884644756754        0.13575639324795
C           -1.41701418030201       -0.71725489598214        0.24159204973408
C           -0.66364279143373       -1.96044142872269        0.31812584598644
C           -1.30513268767711       -3.20391923322085        0.38504687913443
C           -0.60017454765803       -4.38405234746087        0.47314252722606
C            0.78558960633232       -4.35279757510296        0.51210530569460
C            1.44040261150312       -3.14225708905192        0.45535433696111
C            0.74769346397526       -1.92967906911732        0.34717389677177
C            1.44972670790330       -0.65626202497073        0.28712350774400
C            2.83195750001319       -0.58994268168017        0.19792865005567
C            5.69762528012930       -0.36094402240043       -0.58074718421810
N            6.99529048146834       -0.37882461472371       -0.69906908573885
N            9.92305078049435        1.47289923536909        0.27229063665497
C           11.23381588166604        1.42899360792041        0.17045961620143
H           12.99168721714086        0.41354303084623       -0.53158119959556
H           11.64973808189847       -1.42299259160698       -1.57449174841781
H            9.15288409785683       -1.32334619723109       -1.39577106258342
H            7.76238039299066        2.43269193390987        0.92726156583120
H            5.29272726527189        2.47298367947525        1.20858337619791
H            3.30035122838192        2.76123433253975        0.28101575302949
H            0.90308678474935        2.71112353022355        0.39826142975298
H           -1.01206928835974        2.67174598080091        0.31267686017329
H           -3.40724861223565        2.62076050460419        0.15259866319591
H           -5.12629908810784       -1.41652932891264       -1.15204319106353
H           -7.61034693836395       -1.39973905482326       -1.23026139255305
H           -9.35840167936409        2.35567624916339        0.83689392462328
H          -11.85691060956664        2.42167412074358        0.66500005210994
H          -13.01616655694219        0.56147032087813       -0.54145289498044
H          -11.61334606941539       -1.26027677246925       -1.52082119623841
H           -5.37688784280711        2.23893391084192        1.10221674398677
H           -3.33789400468017       -1.64082105071442        0.09675859784939
H           -2.38131099974984       -3.26093183476485        0.37918675220958
H           -1.12685659798416       -5.32593032720596        0.52110139000631
H            1.35069939091545       -5.26976907973816        0.59309961015450
H            2.51680242600527       -3.14882301058213        0.51167925078170
H            3.40778794791525       -1.49905911813389        0.15146792091601
H            5.17670490341371       -1.15750570124900       -1.09625666423395
H           11.76462786528265        2.24711205105647        0.64154101562958

          :  Hamiltonian                  GFN2-xTB          :
         :: gradient norm              0.000024899030 Eh/a0 ::
         :: HOMO-LUMO gap              0.271769631082 eV    ::
         :: SCC energy              -107.211069541165 Eh    ::
         :: -> dispersion             -0.086291149013 Eh    ::
         :: -> Gsolv                  -0.047326044357 Eh    ::
         :: repulsion energy           1.933502811173 Eh    ::

    * Orbital Energies and Occupations

         #    Occupation            Energy/Eh            Energy/eV
      -------------------------------------------------------------
         1        2.0000           -0.6668818             -18.1468
       ...           ...                  ...                  ...
        87        2.0000           -0.4219793             -11.4826
        88        2.0000           -0.4111146             -11.1870
        89        2.0000           -0.4075458             -11.0899
        90        2.0000           -0.4042783             -11.0010
        91        2.0000           -0.3948475             -10.7443
        92        2.0000           -0.3925007             -10.6805
        93        2.0000           -0.3845109             -10.4631
        94        2.0000           -0.3835937             -10.4381
        95        2.0000           -0.3830326             -10.4228
        96        1.9899           -0.3734707             -10.1627
        97        1.8265           -0.3705970             -10.0845
        98        1.1836           -0.3676970             -10.0055
        99        0.9948           -0.2908200              -7.9136 (HOMO)
       100        0.0052           -0.2808327              -7.6418 (LUMO)
       101                         -0.2584629              -7.0331
       102                         -0.2566470              -6.9837
       103                         -0.2464990              -6.7076
       104                         -0.2464587              -6.7065
       105                         -0.2429318              -6.6105
       106                         -0.2423012              -6.5934
       107                         -0.2381359              -6.4800
       108                         -0.2214311              -6.0254
       109                         -0.2055995              -5.5946
       110                         -0.1914560              -5.2098
       ...                                ...                  ...
       192                          0.7292671              19.8444
      -------------------------------------------------------------
                  HL-Gap            0.0099873 Eh            0.2718 eV

     #   Z          covCN         q      C6AA      α(0)
     1   6 C        2.914    -0.047    29.166     8.856
     2   6 C        2.924    -0.014    28.363     8.734
     3   6 C        2.918    -0.040    29.006     8.832
     4   6 C        2.956     0.084    26.122     8.383
     5   6 C        2.954     0.073    26.367     8.422
     6   6 C        2.913    -0.040    28.989     8.829
     7   6 C        2.926    -0.025    28.617     8.773
     8   6 C        2.970    -0.007    28.184     8.708
     9   6 C        2.970     0.006    27.893     8.663
    10   6 C        2.917    -0.036    28.907     8.817
    11   6 C        2.916    -0.037    28.909     8.817
    12   6 C        2.977     0.005    27.909     8.666
    13   6 C        2.977     0.005    27.908     8.666
    14   6 C        2.916    -0.036    28.905     8.816
    15   6 C        2.917    -0.038    28.940     8.822
    16   6 C        2.970     0.005    27.897     8.664
    17   6 C        2.970    -0.007    28.183     8.708
    18   6 C        2.926    -0.025    28.624     8.774
    19   6 C        2.913    -0.040    28.989     8.829
    20   6 C        2.955     0.073    26.365     8.422
    21   6 C        2.956     0.084    26.121     8.383
    22   6 C        2.918    -0.040    29.005     8.832
    23   6 C        2.924    -0.014    28.362     8.734
    24   6 C        2.914    -0.047    29.164     8.856
    25   6 C        2.896     0.061    26.640     8.463
    26   7 N        1.843    -0.234    26.974     7.697
    27   7 N        1.842    -0.220    26.642     7.649
    28   6 C        2.897     0.056    26.733     8.477
    29   6 C        2.926    -0.043    29.058     8.840
    30   6 C        2.973     0.006    27.885     8.662
    31   6 C        2.978     0.006    27.892     8.663
    32   6 C        2.923    -0.036    28.885     8.814
    33   6 C        2.917    -0.031    28.782     8.798
    34   6 C        2.917    -0.031    28.779     8.797
    35   6 C        2.923    -0.036    28.884     8.814
    36   6 C        2.979     0.005    27.896     8.664
    37   6 C        2.974     0.006    27.879     8.661
    38   6 C        2.926    -0.044    29.089     8.845
    39   6 C        2.896     0.056    26.740     8.478
    40   7 N        1.842    -0.220    26.630     7.648
    41   7 N        1.843    -0.234    26.975     7.697
    42   6 C        2.895     0.061    26.640     8.463
    43   1 H        0.926     0.043     2.409     2.427
    44   1 H        0.926     0.046     2.370     2.407
    45   1 H        0.926     0.055     2.253     2.347
    46   1 H        0.926     0.057     2.235     2.338
    47   1 H        0.926     0.047     2.355     2.400
    48   1 H        0.926     0.035     2.510     2.477
    49   1 H        0.926     0.039     2.463     2.454
    50   1 H        0.926     0.038     2.469     2.457
    51   1 H        0.926     0.033     2.549     2.497
    52   1 H        0.926     0.047     2.362     2.403
    53   1 H        0.926     0.057     2.235     2.338
    54   1 H        0.926     0.055     2.253     2.347
    55   1 H        0.926     0.046     2.370     2.407
    56   1 H        0.926     0.043     2.408     2.427
    57   1 H        0.925     0.040     2.443     2.444
    58   1 H        0.925     0.044     2.390     2.418
    59   1 H        0.926     0.040     2.453     2.449
    60   1 H        0.926     0.037     2.492     2.469
    61   1 H        0.926     0.033     2.539     2.492
    62   1 H        0.926     0.033     2.541     2.493
    63   1 H        0.926     0.036     2.502     2.474
    64   1 H        0.926     0.037     2.489     2.467
    65   1 H        0.925     0.044     2.394     2.419
    66   1 H        0.925     0.040     2.444     2.445

molecular dipole:
                 x           y           z       tot (Debye)
 q only:       -0.003      -0.104       0.034
   full:       -0.002      -0.096       0.026       0.253

 projected vibrational frequencies (cm⁻¹)
eigval :       -0.00    -0.00    -0.00     0.00     0.00     0.00
eigval :        9.72    19.24    21.79    30.67    36.03    38.09
eigval :       47.08    51.51    67.68    74.24    81.40    91.37
eigval :      101.78   103.14   114.39   127.34   134.53   160.45
eigval :      172.22   199.40   238.72   244.94   246.58   254.50
eigval :      289.34   328.52   334.41   366.31   371.02   374.98
eigval :      376.14   377.20   381.63   383.76   385.98   403.17
eigval :      406.69   413.81   423.85   433.85   438.01   450.02
eigval :      470.99   494.84   510.36   512.83   531.02   558.30
eigval :      569.82   574.44   580.53   584.26   587.90   590.79
eigval :      600.67   606.98   610.43   648.94   666.88   672.58
eigval :      674.08   678.39   686.03   694.69   698.70   699.97
eigval :      737.41   753.88   754.61   757.69   758.92   766.78
eigval :      798.08   802.09   807.05   818.25   830.10   834.52
eigval :      835.48   838.47   847.94   858.57   864.52   870.98
eigval :      873.47   901.61   904.60   905.72   906.47   906.94
eigval :      908.02   911.81   920.98   922.84   923.41   942.13
eigval :      949.58   961.15   966.61   983.26  1016.86  1017.03
eigval :     1069.05  1072.77  1073.57  1073.80  1075.85  1078.03
eigval :     1090.85  1112.35  1114.81  1117.03  1129.69  1134.17
eigval :     1138.54  1149.44  1156.19  1161.99  1177.67  1190.63
eigval :     1212.44  1223.95  1228.33  1231.65  1240.36  1246.93
eigval :     1255.23  1271.85  1278.98  1284.87  1288.70  1295.71
eigval :     1299.98  1300.48  1310.10  1316.27  1320.85  1339.62
eigval :     1345.30  1352.31  1360.74  1375.62  1385.61  1395.97
eigval :     1398.95  1412.84  1413.62  1420.12  1426.70  1429.94
eigval :     1434.02  1436.11  1440.12  1445.28  1459.51  1461.90
eigval :     1478.12  1489.47  1495.57  1505.59  1505.67  1529.20
eigval :     1551.59  1554.57  1561.93  1567.58  1580.44  1590.38
eigval :     3042.69  3044.61  3048.04  3050.09  3069.36  3070.49
eigval :     3072.87  3075.65  3076.94  3082.17  3082.68  3084.41
eigval :     3097.38  3097.71  3099.06  3099.24  3100.81  3101.13
eigval :     3101.66  3102.77  3104.48  3113.85  3116.77  3119.40

   temp. (K)  partition function   enthalpy   heat capacity  entropy
                                   cal/mol     cal/K/mol   cal/K/mol   J/K/mol
 298.15  VIB  0.482E+15            18950.888    120.717    117.761
         ROT  0.777E+08              888.752      2.981     39.086
         INT  0.375E+23            19839.640    123.697    156.846
         TR   0.120E+29             1481.254      4.968     44.706
         TOT                       21320.8941   128.6656   201.5521   843.2938

       T/K    H(0)-H(T)+PV         H(T)/Eh          T*S/Eh         G(T)/Eh
   ------------------------------------------------------------------------
    298.15    0.339770E-01    0.526949E+00    0.957639E-01    0.431185E+00
   ------------------------------------------------------------------------

         :::::::::::::::::::::::::::::::::::::::::::::::::::::
         ::                  THERMODYNAMIC                  ::
         :::::::::::::::::::::::::::::::::::::::::::::::::::::
         :: total free energy        -104.846381849776 Eh   ::
         ::.................................................::
         :: total energy             -105.277566727335 Eh   ::
         :: zero point energy           0.492971755051 Eh   ::
         :: G(RRHO) w/o ZPVE           -0.061786877492 Eh   ::
         :: G(RRHO) contrib.            0.431184877559 Eh   ::
         :::::::::::::::::::::::::::::::::::::::::::::::::::::

           -------------------------------------------------
          | TOTAL ENERGY             -105.277566727335 Eh   |
          | TOTAL ENTHALPY           -104.750617964785 Eh   |
          | TOTAL FREE ENERGY        -104.846381849776 Eh   |
          | GRADIENT NORM               0.000024942456 Eh/α |
          | HOMO-LUMO GAP               0.271769328703 eV   |
           -------------------------------------------------

 * finished run on 2025/08/26 at 12:43:52.335
