   * xtb version 6.7.1 (edcfbbe) compiled by 'albert@albert-system' on 2024-07-22

   ID    Z sym.   atoms
    1    6 C      1-25, 28-39, 42
    2    7 N      26, 27, 40, 41
    3    1 H      43-66

          program call               : xtb data2507/toluene/BPy-TP2/BPy-TP2.xyz --gfn 2 --gbsa toluene --ohess vtight --parallel 40 --molden --ceasefiles --namespace data2507/toluene/BPy-TP2/BPy-TP2_toluene_S0_preOpt
      * Solvation model:               GBSA
        Solvent                        toluene
        Solvent mass                       9.2140E+01 g/mol
          :  Hamiltonian                  GFN2-xTB          :
 * total energy  :  -105.3360732 Eh     change       -0.1896481E-08 Eh
 * total energy  :  -105.3502863 Eh     change       -0.1421308E-01 Eh
 * total energy  :  -105.3540785 Eh     change       -0.3792212E-02 Eh
 * total energy  :  -105.3552033 Eh     change       -0.1124783E-02 Eh
 * total energy  :  -105.3562581 Eh     change       -0.1054789E-02 Eh
 * total energy  :  -105.3565539 Eh     change       -0.2958057E-03 Eh
 * total energy  :  -105.3566738 Eh     change       -0.1198894E-03 Eh
 * total energy  :  -105.3568068 Eh     change       -0.1330337E-03 Eh
 * total energy  :  -105.3569531 Eh     change       -0.1462913E-03 Eh
 * total energy  :  -105.3571415 Eh     change       -0.1884274E-03 Eh
 * total energy  :  -105.3577082 Eh     change       -0.1338268E-05 Eh
 * total energy  :  -105.3577091 Eh     change       -0.9026702E-06 Eh
 * total energy  :  -105.3577100 Eh     change       -0.8623853E-06 Eh
 * total energy  :  -105.3577108 Eh     change       -0.8196735E-06 Eh
 * total energy  :  -105.3577115 Eh     change       -0.6974278E-06 Eh
 * total energy  :  -105.3577119 Eh     change       -0.3929467E-06 Eh
 * total energy  :  -105.3577122 Eh     change       -0.3162802E-06 Eh
 * total energy  :  -105.3577124 Eh     change       -0.2540358E-06 Eh
 * total energy  :  -105.3577125 Eh     change       -0.7843889E-07 Eh
   *** GEOMETRY OPTIMIZATION CONVERGED AFTER 64 ITERATIONS ***

 final structure:
================
66
 xtb: 6.7.1 (edcfbbe)
C           11.92902412401371        0.50406229091681       -0.20411787437121
C           11.22142911781447       -0.49519224244508       -0.85696445010357
C            9.83977014894329       -0.47491704017156       -0.80795142834899
C            9.20666879155723        0.55055279013278       -0.10206144151281
C            7.74230083743629        0.61569867055208       -0.02223811725002
C            7.10420101578592        1.63480200672671        0.68813421871324
C            5.72516370324183        1.65521104104243        0.73506956180315
C            4.99922760134682        0.66347264846917        0.07216276885991
C            3.53360102547301        0.64172605775457        0.07486180533784
C            2.80180292928514        1.82891683767240       -0.02726500028874
C            1.43078197083394        1.79286939847621       -0.04790531730417
C            0.71452328632426        0.58926165363653        0.03958084144227
C           -0.73404429088210        0.56032402344997        0.00396608116885
C           -1.49311707537490        1.73526523859688       -0.11065626030732
C           -2.86411665668584        1.71743812533595       -0.15183211012065
C           -3.55183629931552        0.50179708895978       -0.08552301298271
C           -5.01647049557720        0.46178929522457       -0.12850471462979
C           -5.71074252688828       -0.53129142955088       -0.82276271460395
C           -7.09063189068840       -0.52264685102862       -0.82349449593152
C           -7.76133860306051        0.48678851115920       -0.12959412472286
C           -9.22810220764892        0.54104487236394       -0.10398751770047
C           -9.89474125367422        1.56136353440075        0.57801811420805
C          -11.27739361316973        1.57133813998241        0.57506043829405
C          -11.95257750438068        0.56675033500071       -0.10349000358157
C          -11.20008760391826       -0.40288964914905       -0.75078273847629
N           -9.88075236256625       -0.42184946286431       -0.75607946728021
N           -7.10459200083076        1.43740092885335        0.53686644369530
C           -5.78882174991464        1.41944498181706        0.53470829225861
C           -2.81711771676419       -0.66516513041131        0.02767763370694
C           -1.41883793179233       -0.67279920927509        0.07902249920511
C           -0.67093660070670       -1.91244940832224        0.20900557208278
C           -1.31654980837708       -3.15464076277977        0.29272295428271
C           -0.61626096922792       -4.33044418357136        0.42201049246073
C            0.77137351378146       -4.30082954440933        0.47669577232493
C            1.42941161581346       -3.09673673442096        0.39413866158782
C            0.74008349254392       -1.88320740201163        0.25574382187311
C            1.44354896224886       -0.61507081414078        0.15677508550942
C            2.84143218543289       -0.55267639643006        0.16696060158726
C            5.74034699314784       -0.30404474718594       -0.61216393094614
N            7.05500549060419       -0.33337724961108       -0.65950899312163
N            9.89041996867186        1.50869721500963        0.52462142307811
C           11.20848901357266        1.47971380885462        0.46994859223846
H           13.00749986135514        0.52757712084155       -0.21641847185045
H           11.74035747338660       -1.27578929751090       -1.39465058958130
H            9.23671146684929       -1.22282355075108       -1.29667492869008
H            7.70389901869084        2.37847893243685        1.18744531307917
H            5.20886137120300        2.42131768012269        1.29562153274536
H            3.31790900669607        2.77323100970373       -0.11749076206199
H            0.90631188904683        2.72955552122906       -0.13985350306010
H           -1.00280780680681        2.69267859161266       -0.17270825790009
H           -3.41354048273801        2.64095510206356       -0.25864780525520
H           -5.16934022682057       -1.28797516762344       -1.37255312642247
H           -7.66668005200025       -1.26705887213304       -1.34890519320934
H           -9.31591207069551        2.31367215299966        1.08881243283796
H          -11.82200124416038        2.34792728616339        1.09278148495910
H          -13.03055117642768        0.53538742870319       -0.13164537192102
H          -11.67498126184348       -1.20964111287337       -1.29568988589485
H           -5.31775577045235        2.20552254572638        1.11196860008650
H           -3.36420015827103       -1.59022430829321        0.10177311482308
H           -2.39205711023015       -3.21151653343386        0.25860636813586
H           -1.14384786787411       -5.27104720703633        0.48368168948312
H            1.33201957787584       -5.21797173063896        0.58314895207902
H            2.50593595533960       -3.10794955159866        0.44193777060418
H            3.42165458823848       -1.45479491975725        0.26701430908453
H            5.24342211956264       -1.08808343647969       -1.17046811591708
H           11.70955427364478        2.28307307992154        0.99604548170898

          :  Hamiltonian                  GFN2-xTB          :
         :: gradient norm              0.000087491118 Eh/a0 ::
         :: HOMO-LUMO gap              2.239017167105 eV    ::
         :: SCC energy              -107.297679555963 Eh    ::
         :: -> dispersion             -0.086302710161 Eh    ::
         :: -> Gsolv                  -0.048189260232 Eh    ::
         :: repulsion energy           1.939967046400 Eh    ::

    * Orbital Energies and Occupations

         #    Occupation            Energy/Eh            Energy/eV
      -------------------------------------------------------------
         1        2.0000           -0.6676991             -18.1690
       ...           ...                  ...                  ...
        86        2.0000           -0.4260775             -11.5942
        87        2.0000           -0.4243136             -11.5462
        88        2.0000           -0.4108710             -11.1804
        89        2.0000           -0.4100248             -11.1573
        90        2.0000           -0.4061189             -11.0511
        91        2.0000           -0.3973501             -10.8124
        92        2.0000           -0.3960961             -10.7783
        93        2.0000           -0.3847827             -10.4705
        94        2.0000           -0.3817310             -10.3874
        95        2.0000           -0.3798912             -10.3374
        96        2.0000           -0.3769069             -10.2562
        97        2.0000           -0.3682415             -10.0204
        98        2.0000           -0.3674340              -9.9984 (HOMO)
        99                         -0.2851517              -7.7594 (LUMO)
       100                         -0.2782062              -7.5704
       101                         -0.2600524              -7.0764
       102                         -0.2574403              -7.0053
       103                         -0.2491937              -6.7809
       104                         -0.2491731              -6.7803
       105                         -0.2449688              -6.6659
       106                         -0.2446973              -6.6586
       107                         -0.2404624              -6.5433
       108                         -0.2200854              -5.9888
       109                         -0.2075079              -5.6466
       ...                                ...                  ...
       192                          0.7224006              19.6575
      -------------------------------------------------------------
                  HL-Gap            0.0822824 Eh            2.2390 eV

     #   Z          covCN         q      C6AA      α(0)
     1   6 C        2.914    -0.040    29.006     8.832
     2   6 C        2.926    -0.011    28.297     8.724
     3   6 C        2.918    -0.040    28.993     8.830
     4   6 C        2.966     0.090    25.988     8.362
     5   6 C        2.966     0.087    26.059     8.373
     6   6 C        2.915    -0.041    29.011     8.832
     7   6 C        2.930    -0.018    28.458     8.749
     8   6 C        2.972     0.001    28.011     8.681
     9   6 C        2.973     0.006    27.885     8.662
    10   6 C        2.921    -0.036    28.885     8.813
    11   6 C        2.921    -0.036    28.898     8.815
    12   6 C        2.979     0.006    27.883     8.662
    13   6 C        2.979     0.006    27.882     8.662
    14   6 C        2.921    -0.036    28.888     8.814
    15   6 C        2.921    -0.036    28.904     8.816
    16   6 C        2.973     0.006    27.885     8.662
    17   6 C        2.972     0.001    28.011     8.681
    18   6 C        2.930    -0.018    28.467     8.750
    19   6 C        2.915    -0.041    29.012     8.833
    20   6 C        2.966     0.087    26.059     8.373
    21   6 C        2.966     0.090    25.988     8.362
    22   6 C        2.918    -0.040    28.992     8.830
    23   6 C        2.926    -0.011    28.297     8.724
    24   6 C        2.914    -0.040    29.006     8.832
    25   6 C        2.905     0.061    26.632     8.462
    26   7 N        1.842    -0.252    27.419     7.760
    27   7 N        1.841    -0.253    27.439     7.763
    28   6 C        2.909     0.057    26.720     8.476
    29   6 C        2.929    -0.041    29.007     8.833
    30   6 C        2.977     0.007    27.865     8.659
    31   6 C        2.979     0.006    27.882     8.662
    32   6 C        2.923    -0.036    28.896     8.815
    33   6 C        2.917    -0.031    28.779     8.797
    34   6 C        2.917    -0.031    28.778     8.797
    35   6 C        2.923    -0.036    28.892     8.815
    36   6 C        2.979     0.006    27.884     8.662
    37   6 C        2.977     0.007    27.859     8.658
    38   6 C        2.929    -0.041    29.026     8.835
    39   6 C        2.909     0.057    26.729     8.477
    40   7 N        1.841    -0.253    27.438     7.763
    41   7 N        1.842    -0.252    27.420     7.760
    42   6 C        2.905     0.061    26.631     8.462
    43   1 H        0.926     0.045     2.385     2.415
    44   1 H        0.926     0.046     2.372     2.408
    45   1 H        0.926     0.058     2.219     2.330
    46   1 H        0.926     0.058     2.222     2.331
    47   1 H        0.926     0.046     2.369     2.407
    48   1 H        0.926     0.036     2.497     2.471
    49   1 H        0.926     0.041     2.434     2.440
    50   1 H        0.926     0.041     2.435     2.440
    51   1 H        0.926     0.034     2.528     2.486
    52   1 H        0.926     0.046     2.373     2.409
    53   1 H        0.926     0.058     2.221     2.331
    54   1 H        0.926     0.058     2.220     2.330
    55   1 H        0.926     0.046     2.372     2.408
    56   1 H        0.926     0.045     2.386     2.415
    57   1 H        0.925     0.038     2.474     2.459
    58   1 H        0.925     0.038     2.469     2.457
    59   1 H        0.926     0.041     2.436     2.441
    60   1 H        0.926     0.037     2.491     2.468
    61   1 H        0.926     0.033     2.541     2.493
    62   1 H        0.926     0.033     2.544     2.494
    63   1 H        0.926     0.036     2.501     2.473
    64   1 H        0.926     0.038     2.470     2.458
    65   1 H        0.925     0.038     2.474     2.460
    66   1 H        0.925     0.038     2.474     2.460

molecular dipole:
                 x           y           z       tot (Debye)
 q only:       -0.005      -0.084       0.012
   full:       -0.001      -0.075       0.007       0.192

 projected vibrational frequencies (cm⁻¹)
eigval :       -0.00    -0.00     0.00     0.00     0.00     0.00
eigval :        8.00    15.83    19.39    23.89    30.75    34.67
eigval :       37.99    48.03    62.19    64.00    78.04    86.32
eigval :      102.69   103.99   114.04   130.40   134.51   166.41
eigval :      174.77   199.29   236.92   244.29   250.43   256.90
eigval :      313.19   335.82   341.19   362.52   364.68   369.09
eigval :      371.51   372.40   381.43   384.19   386.05   407.84
eigval :      409.00   415.64   423.70   447.71   455.46   465.15
eigval :      482.80   513.53   529.11   531.44   539.04   560.16
eigval :      593.65   594.02   594.17   595.73   599.24   604.73
eigval :      609.42   621.11   623.20   659.60   679.52   687.41
eigval :      690.45   700.32   701.90   705.92   722.93   723.09
eigval :      748.95   761.94   765.30   766.96   773.65   774.43
eigval :      808.65   815.61   837.19   840.83   841.38   847.42
eigval :      856.43   860.09   865.95   893.13   893.88   896.35
eigval :      899.73   906.16   906.53   914.72   916.28   917.89
eigval :      922.80   929.20   929.58   932.87   934.51   959.44
eigval :      988.95   992.36  1009.35  1014.35  1028.87  1033.75
eigval :     1085.01  1085.26  1089.75  1089.79  1092.85  1096.11
eigval :     1119.78  1120.42  1122.87  1137.96  1139.25  1146.24
eigval :     1157.69  1157.85  1166.20  1172.99  1193.77  1227.30
eigval :     1237.60  1239.26  1244.58  1246.14  1255.67  1259.65
eigval :     1268.04  1276.38  1277.66  1284.03  1286.48  1291.74
eigval :     1292.68  1308.47  1309.34  1322.24  1325.24  1330.96
eigval :     1341.09  1361.49  1374.64  1378.76  1393.15  1405.24
eigval :     1407.66  1415.69  1418.92  1426.86  1436.96  1438.74
eigval :     1458.82  1460.62  1484.71  1493.61  1528.57  1534.31
eigval :     1539.51  1552.26  1556.94  1557.32  1563.23  1564.75
eigval :     1566.32  1577.37  1578.76  1586.91  1591.97  1602.98
eigval :     3043.73  3045.45  3045.98  3046.73  3071.56  3072.00
eigval :     3072.07  3072.82  3073.51  3081.34  3082.40  3082.82
eigval :     3094.84  3095.37  3103.26  3104.87  3105.06  3110.32
eigval :     3110.96  3111.84  3112.12  3116.31  3117.24  3118.76

   temp. (K)  partition function   enthalpy   heat capacity  entropy
                                   cal/mol     cal/K/mol   cal/K/mol   J/K/mol
 298.15  VIB  0.160E+16            18735.778    117.762    117.269
         ROT  0.767E+08              888.752      2.981     39.061
         INT  0.123E+24            19624.531    120.743    156.330
         TR   0.120E+29             1481.254      4.968     44.706
         TOT                       21105.7847   125.7115   201.0356   841.1331

       T/K    H(0)-H(T)+PV         H(T)/Eh          T*S/Eh         G(T)/Eh
   ------------------------------------------------------------------------
    298.15    0.336342E-01    0.531699E+00    0.955185E-01    0.436180E+00
   ------------------------------------------------------------------------

         :::::::::::::::::::::::::::::::::::::::::::::::::::::
         ::                  THERMODYNAMIC                  ::
         :::::::::::::::::::::::::::::::::::::::::::::::::::::
         :: total free energy        -104.921532393865 Eh   ::
         ::.................................................::
         :: total energy             -105.357712503095 Eh   ::
         :: zero point energy           0.498064417573 Eh   ::
         :: G(RRHO) w/o ZPVE           -0.061884308344 Eh   ::
         :: G(RRHO) contrib.            0.436180109230 Eh   ::
         :::::::::::::::::::::::::::::::::::::::::::::::::::::

           -------------------------------------------------
          | TOTAL ENERGY             -105.357712503095 Eh   |
          | TOTAL ENTHALPY           -104.826013876707 Eh   |
          | TOTAL FREE ENERGY        -104.921532393865 Eh   |
          | GRADIENT NORM               0.000087507484 Eh/α |
          | HOMO-LUMO GAP               2.239017052242 eV   |
           -------------------------------------------------

 * finished run on 2025/08/26 at 12:36:29.116
