   * xtb version 6.7.1 (edcfbbe) compiled by 'albert@albert-system' on 2024-07-22

   ID    Z sym.   atoms
    1    6 C      1-25, 28-39, 42
    2    7 N      26, 27, 40, 41
    3    1 H      43-66

          program call               : xtb data2507/toluene/BPy-TP2/BPy-TP2_toluene_S0_crest.xyz --gfn 2 --gbsa toluene --ohess vtight --parallel 40 --molden --ceasefiles --namespace data2507/toluene/BPy-TP2/BPy-TP2_toluene_S0_finalOpt
      * Solvation model:               GBSA
        Solvent                        toluene
        Solvent mass                       9.2140E+01 g/mol
          :  Hamiltonian                  GFN2-xTB          :
 * total energy  :  -105.3576409 Eh     change       -0.1223768E-08 Eh
 * total energy  :  -105.3576652 Eh     change       -0.2435901E-04 Eh
 * total energy  :  -105.3576737 Eh     change       -0.8436132E-05 Eh
 * total energy  :  -105.3576766 Eh     change       -0.2912784E-05 Eh
 * total energy  :  -105.3576787 Eh     change       -0.2159351E-05 Eh
 * total energy  :  -105.3576805 Eh     change       -0.1752535E-05 Eh
 * total energy  :  -105.3576833 Eh     change       -0.2859028E-05 Eh
 * total energy  :  -105.3576868 Eh     change       -0.3480349E-05 Eh
 * total energy  :  -105.3576893 Eh     change       -0.2452819E-05 Eh
 * total energy  :  -105.3576903 Eh     change       -0.1039215E-05 Eh
 * total energy  :  -105.3576910 Eh     change       -0.6999879E-06 Eh
 * total energy  :  -105.3576917 Eh     change       -0.6934645E-06 Eh
 * total energy  :  -105.3576925 Eh     change       -0.8195066E-06 Eh
 * total energy  :  -105.3576930 Eh     change       -0.4324272E-06 Eh
 * total energy  :  -105.3576931 Eh     change       -0.1760889E-06 Eh
 * total energy  :  -105.3576931 Eh     change       -0.5593236E-08 Eh
   *** GEOMETRY OPTIMIZATION CONVERGED AFTER 16 ITERATIONS ***

 final structure:
================
66
 xtb: 6.7.1 (edcfbbe)
C           11.93143400956635        0.45196385748930       -0.09493106605364
C           11.23907337183260       -0.56224472806916       -0.74102222443280
C            9.85664066837554       -0.53811030061580       -0.72985393602911
C            9.20750964441592        0.50596756282447       -0.06714491797158
C            7.74164703203879        0.57546663270813       -0.02752928667719
C            7.08778281621006        1.61278659858109        0.64090543296062
C            5.70802048475662        1.63516563983379        0.65381802274559
C            4.99740925449084        0.62654361653181       -0.00000758623295
C            3.53205298659878        0.60123175058025       -0.02574837029962
C            2.79873301752977        1.78248397634916       -0.17439187722035
C            1.42797460092739        1.74233714414281       -0.20760329013026
C            0.71432234864316        0.53963391176058       -0.09226764487800
C           -0.73417970765137        0.50717378245827       -0.12497142400246
C           -1.49275035098937        1.66455386023270       -0.35818400428341
C           -2.86441559809687        1.64781806233273       -0.36695920025147
C           -3.55209471875350        0.45043564445036       -0.14720331862278
C           -5.01764210907255        0.41458960684434       -0.14881214645870
C           -5.73276461960112       -0.63107564910411       -0.73605796608535
C           -7.11232594801522       -0.61186496560988       -0.70672540823470
C           -7.76107038952874        0.45963495699777       -0.08919154731880
C           -9.22662502637505        0.52900047732231       -0.03830088650264
C           -9.87098086347383        1.59543667649364        0.59264672196943
C          -11.25331393112536        1.62014586268309        0.61306070821415
C          -11.95033751424353        0.58440462866805        0.00740474756386
C          -11.21904761364185       -0.43148781980533       -0.59143732853939
N           -9.90025275778774       -0.46530537709186       -0.61794820549993
N           -7.08384580829269        1.45978435319759        0.47679766494080
C           -5.76858816903316        1.43249736940155        0.44536926832396
C           -2.81778827501516       -0.70219602997500        0.06740886437124
C           -1.41860245045649       -0.71096084226487        0.08158667006721
C           -0.66900190994896       -1.94131250516250        0.27422172586048
C           -1.31278545715502       -3.16965919936341        0.48247219119161
C           -0.61089568623393       -4.34390455305019        0.61757902394611
C            0.77594287034799       -4.32818786023599        0.53957515235095
C            1.43269662710499       -3.13534650320278        0.35122153945757
C            0.74219904015159       -1.92082204196417        0.22948383884163
C            1.44471511797322       -0.65818622883081        0.07162660099747
C            2.84210619586124       -0.59170141337711        0.09776683338294
C            5.75358119506737       -0.35769615141227       -0.64264418081639
N            7.06896522522615       -0.38860191850691       -0.65782790440658
N            9.87666087764792        1.47867168453232        0.55283858921163
C           11.19560889348376        1.44591390281619        0.53443765618905
H           13.00989779325844        0.47290953161304       -0.07871903662664
H           11.77030615524977       -1.35739140381367       -1.24431345030142
H            9.26499649500604       -1.29725757109115       -1.21518301782138
H            7.67614552526449        2.36842664632382        1.13571233652526
H            5.17903348613296        2.41568001834243        1.18173037584096
H            3.31376201690127        2.72542730707114       -0.28342400846431
H            0.90104035931728        2.67552973824269       -0.31973489048513
H           -1.00125184277164        2.60451474107733       -0.54792058378458
H           -3.41551849943275        2.55466668497992       -0.56756588907927
H           -5.20768518130304       -1.43740632209429       -1.22820690455648
H           -7.70427804194605       -1.39511015091797       -1.15184239352805
H           -9.27592470419493        2.37112897860361        1.04665337079471
H          -11.78097226843665        2.43209486949032        1.09270951904627
H          -13.02889156721389        0.56358353441940       -0.00097701331685
H          -11.71162920300732       -1.26452749311610       -1.07796818307979
H           -5.27906583077047        2.26336979589851        0.93852182498036
H           -3.36484910728238       -1.61313675276634        0.24532291376547
H           -2.38774527023419       -3.21637343681477        0.54184677802020
H           -1.13665855115903       -5.27382097498878        0.77794659754666
H            1.33703414989638       -5.24684884170522        0.62914731151799
H            2.50874035199028       -3.15620269426435        0.29561196229481
H            3.42273630048286       -1.48657195810299        0.24877779239875
H            5.26894918270247       -1.15539729135117       -1.19238551743673
H           11.68448318539180        2.26140753317471        1.05328907321104

          :  Hamiltonian                  GFN2-xTB          :
         :: gradient norm              0.000144564258 Eh/a0 ::
         :: HOMO-LUMO gap              2.244432076638 eV    ::
         :: SCC energy              -107.297729853270 Eh    ::
         :: -> dispersion             -0.086305128255 Eh    ::
         :: -> Gsolv                  -0.048170741764 Eh    ::
         :: repulsion energy           1.940036719194 Eh    ::

    * Orbital Energies and Occupations

         #    Occupation            Energy/Eh            Energy/eV
      -------------------------------------------------------------
         1        2.0000           -0.6677083             -18.1693
       ...           ...                  ...                  ...
        86        2.0000           -0.4260126             -11.5924
        87        2.0000           -0.4243352             -11.5467
        88        2.0000           -0.4108749             -11.1805
        89        2.0000           -0.4100071             -11.1569
        90        2.0000           -0.4061433             -11.0517
        91        2.0000           -0.3973933             -10.8136
        92        2.0000           -0.3960896             -10.7781
        93        2.0000           -0.3847350             -10.4692
        94        2.0000           -0.3817928             -10.3891
        95        2.0000           -0.3799084             -10.3378
        96        2.0000           -0.3769537             -10.2574
        97        2.0000           -0.3682568             -10.0208
        98        2.0000           -0.3674398              -9.9985 (HOMO)
        99                         -0.2849585              -7.7541 (LUMO)
       100                         -0.2781702              -7.5694
       101                         -0.2600667              -7.0768
       102                         -0.2574651              -7.0060
       103                         -0.2491999              -6.7811
       104                         -0.2491955              -6.7810
       105                         -0.2449686              -6.6659
       106                         -0.2447260              -6.6593
       107                         -0.2404648              -6.5434
       108                         -0.2199416              -5.9849
       109                         -0.2075371              -5.6474
       ...                                ...                  ...
       192                          0.7222269              19.6528
      -------------------------------------------------------------
                  HL-Gap            0.0824814 Eh            2.2444 eV

     #   Z          covCN         q      C6AA      α(0)
     1   6 C        2.914    -0.040    29.006     8.832
     2   6 C        2.926    -0.011    28.297     8.724
     3   6 C        2.918    -0.040    28.992     8.830
     4   6 C        2.966     0.090    25.988     8.362
     5   6 C        2.966     0.087    26.059     8.373
     6   6 C        2.915    -0.041    29.011     8.832
     7   6 C        2.930    -0.018    28.457     8.749
     8   6 C        2.972     0.001    28.010     8.681
     9   6 C        2.973     0.006    27.886     8.662
    10   6 C        2.921    -0.036    28.884     8.813
    11   6 C        2.921    -0.036    28.898     8.815
    12   6 C        2.979     0.006    27.883     8.662
    13   6 C        2.979     0.006    27.883     8.662
    14   6 C        2.921    -0.036    28.888     8.814
    15   6 C        2.921    -0.036    28.904     8.816
    16   6 C        2.973     0.006    27.884     8.662
    17   6 C        2.972     0.001    28.010     8.681
    18   6 C        2.930    -0.018    28.466     8.750
    19   6 C        2.915    -0.041    29.011     8.832
    20   6 C        2.966     0.087    26.059     8.373
    21   6 C        2.966     0.090    25.988     8.362
    22   6 C        2.918    -0.040    28.992     8.830
    23   6 C        2.926    -0.011    28.297     8.724
    24   6 C        2.914    -0.040    29.006     8.832
    25   6 C        2.905     0.061    26.632     8.462
    26   7 N        1.842    -0.252    27.418     7.760
    27   7 N        1.841    -0.253    27.436     7.763
    28   6 C        2.909     0.057    26.720     8.476
    29   6 C        2.929    -0.040    29.006     8.832
    30   6 C        2.977     0.007    27.865     8.659
    31   6 C        2.979     0.006    27.882     8.662
    32   6 C        2.923    -0.036    28.896     8.815
    33   6 C        2.917    -0.031    28.780     8.797
    34   6 C        2.917    -0.031    28.779     8.797
    35   6 C        2.923    -0.036    28.892     8.815
    36   6 C        2.979     0.006    27.884     8.662
    37   6 C        2.977     0.007    27.860     8.658
    38   6 C        2.929    -0.041    29.025     8.835
    39   6 C        2.909     0.057    26.727     8.477
    40   7 N        1.841    -0.253    27.437     7.763
    41   7 N        1.842    -0.252    27.419     7.760
    42   6 C        2.905     0.061    26.631     8.462
    43   1 H        0.926     0.045     2.385     2.415
    44   1 H        0.926     0.046     2.372     2.408
    45   1 H        0.926     0.058     2.219     2.330
    46   1 H        0.926     0.058     2.222     2.331
    47   1 H        0.926     0.046     2.370     2.407
    48   1 H        0.926     0.036     2.497     2.471
    49   1 H        0.926     0.041     2.434     2.440
    50   1 H        0.926     0.041     2.435     2.440
    51   1 H        0.926     0.034     2.530     2.488
    52   1 H        0.926     0.046     2.373     2.409
    53   1 H        0.926     0.058     2.221     2.330
    54   1 H        0.926     0.058     2.219     2.330
    55   1 H        0.926     0.046     2.372     2.408
    56   1 H        0.926     0.045     2.385     2.415
    57   1 H        0.925     0.038     2.474     2.459
    58   1 H        0.925     0.038     2.470     2.458
    59   1 H        0.926     0.041     2.438     2.442
    60   1 H        0.926     0.037     2.491     2.468
    61   1 H        0.926     0.033     2.541     2.493
    62   1 H        0.926     0.033     2.544     2.494
    63   1 H        0.926     0.036     2.502     2.473
    64   1 H        0.926     0.038     2.472     2.459
    65   1 H        0.925     0.038     2.475     2.460
    66   1 H        0.925     0.038     2.474     2.460

molecular dipole:
                 x           y           z       tot (Debye)
 q only:       -0.007      -0.091       0.018
   full:       -0.002      -0.086       0.021       0.225

 projected vibrational frequencies (cm⁻¹)
eigval :       -0.00    -0.00    -0.00    -0.00     0.00     0.00
eigval :       -2.86    15.99    20.95    28.04    30.24    36.49
eigval :       40.95    43.61    61.62    63.35    78.65    83.23
eigval :      100.30   104.87   114.28   128.95   133.91   165.48
eigval :      173.62   199.17   232.64   240.39   252.51   258.50
eigval :      311.41   334.97   341.48   361.43   364.12   370.13
eigval :      370.81   372.81   378.85   383.73   390.38   406.99
eigval :      408.67   415.61   423.38   447.79   454.84   465.21
eigval :      482.86   514.09   528.72   531.47   539.11   560.24
eigval :      592.62   593.41   593.92   595.07   598.65   604.13
eigval :      609.49   621.15   623.06   659.52   676.54   687.38
eigval :      690.16   700.00   701.53   706.03   722.92   723.26
eigval :      746.75   761.94   765.16   768.29   774.72   775.61
eigval :      808.80   816.59   838.08   841.53   842.01   847.72
eigval :      856.59   858.99   866.21   893.73   893.82   896.26
eigval :      902.40   907.05   907.53   915.54   916.38   916.59
eigval :      924.12   928.64   933.71   936.70   939.33   959.39
eigval :      988.88   992.25  1009.35  1014.30  1028.81  1033.81
eigval :     1084.66  1085.07  1088.41  1089.58  1092.96  1096.14
eigval :     1119.19  1120.29  1122.65  1138.19  1139.04  1146.60
eigval :     1157.13  1157.52  1166.25  1173.22  1194.17  1227.26
eigval :     1236.61  1238.24  1243.88  1245.96  1255.44  1259.31
eigval :     1267.32  1276.49  1277.10  1283.57  1286.59  1291.69
eigval :     1292.47  1307.78  1308.63  1321.85  1324.77  1331.20
eigval :     1340.62  1361.41  1374.60  1378.76  1393.18  1405.36
eigval :     1407.71  1415.39  1419.11  1426.50  1436.75  1438.32
eigval :     1458.41  1460.57  1484.44  1493.51  1528.57  1534.45
eigval :     1539.41  1552.03  1557.09  1557.45  1563.34  1564.92
eigval :     1566.13  1577.32  1578.64  1586.76  1591.94  1602.94
eigval :     3043.94  3045.70  3045.91  3046.22  3071.50  3071.70
eigval :     3072.21  3073.08  3073.49  3080.96  3082.12  3083.01
eigval :     3095.02  3095.18  3102.85  3104.19  3104.30  3110.30
eigval :     3111.05  3111.48  3112.14  3115.24  3116.12  3117.72

   temp. (K)  partition function   enthalpy   heat capacity  entropy
                                   cal/mol     cal/K/mol   cal/K/mol   J/K/mol
 298.15  VIB  0.377E+16            18752.611    117.788    118.320
         ROT  0.767E+08              888.752      2.981     39.060
         INT  0.289E+24            19641.364    120.769    157.380
         TR   0.120E+29             1481.254      4.968     44.706
         TOT                       21122.6175   125.7369   202.0857   845.5267

       T/K    H(0)-H(T)+PV         H(T)/Eh          T*S/Eh         G(T)/Eh
   ------------------------------------------------------------------------
    298.15    0.336610E-01    0.531679E+00    0.960174E-01    0.435661E+00
   ------------------------------------------------------------------------

         :::::::::::::::::::::::::::::::::::::::::::::::::::::
         ::                  THERMODYNAMIC                  ::
         :::::::::::::::::::::::::::::::::::::::::::::::::::::
         :: total free energy        -104.922031940320 Eh   ::
         ::.................................................::
         :: total energy             -105.357693131438 Eh   ::
         :: zero point energy           0.498017604968 Eh   ::
         :: G(RRHO) w/o ZPVE           -0.062356413849 Eh   ::
         :: G(RRHO) contrib.            0.435661191119 Eh   ::
         :::::::::::::::::::::::::::::::::::::::::::::::::::::

           -------------------------------------------------
          | TOTAL ENERGY             -105.357693131438 Eh   |
          | TOTAL ENTHALPY           -104.826014492943 Eh   |
          | TOTAL FREE ENERGY        -104.922031940320 Eh   |
          | GRADIENT NORM               0.000144581874 Eh/α |
          | HOMO-LUMO GAP               2.244432477503 eV   |
           -------------------------------------------------

 * finished run on 2025/08/26 at 12:39:00.520
