   * xtb version 6.7.1 (edcfbbe) compiled by 'albert@albert-system' on 2024-07-22

   ID    Z sym.   atoms
    1    6 C      1-25, 28-39, 42
    2    7 N      26, 27, 40, 41
    3    1 H      43-66

          program call               : xtb data2507/toluene/BPy-TP2/BPy-TP2_toluene_S0_finalOpt.xtbopt.xyz --gfn 2 --uhf 2 --gbsa toluene --ohess vtight --parallel 40 --molden --ceasefiles --namespace data2507/toluene/BPy-TP2/BPy-TP2_toluene_T1_preOpt
      * Solvation model:               GBSA
        Solvent                        toluene
        Solvent mass                       9.2140E+01 g/mol
          :  Hamiltonian                  GFN2-xTB          :
 * total energy  :  -105.2718726 Eh     change       -0.2051787E-07 Eh
 * total energy  :  -105.2752051 Eh     change       -0.3332453E-02 Eh
 * total energy  :  -105.2764312 Eh     change       -0.1226095E-02 Eh
 * total energy  :  -105.2765771 Eh     change       -0.1459673E-03 Eh
 * total energy  :  -105.2768010 Eh     change       -0.2238845E-03 Eh
 * total energy  :  -105.2769415 Eh     change       -0.1404849E-03 Eh
 * total energy  :  -105.2770689 Eh     change       -0.1273580E-03 Eh
 * total energy  :  -105.2771457 Eh     change       -0.7686428E-04 Eh
 * total energy  :  -105.2771726 Eh     change       -0.2682592E-04 Eh
 * total energy  :  -105.2771933 Eh     change       -0.2075063E-04 Eh
 * total energy  :  -105.2774701 Eh     change       -0.5741944E-06 Eh
 * total energy  :  -105.2774705 Eh     change       -0.4425667E-06 Eh
 * total energy  :  -105.2774709 Eh     change       -0.3163002E-06 Eh
 * total energy  :  -105.2774711 Eh     change       -0.2732994E-06 Eh
 * total energy  :  -105.2774714 Eh     change       -0.2735228E-06 Eh
 * total energy  :  -105.2774718 Eh     change       -0.3445920E-06 Eh
 * total energy  :  -105.2774717 Eh     change        0.1058611E-07 Eh
 * total energy  :  -105.2774717 Eh     change        0.3004810E-07 Eh
 * total energy  :  -105.2774717 Eh     change       -0.2670131E-07 Eh
   *** GEOMETRY OPTIMIZATION CONVERGED AFTER 70 ITERATIONS ***

 final structure:
================
66
 xtb: 6.7.1 (edcfbbe)
C           11.93920385419375        0.39897346941004       -0.17487265221132
C           11.21125814758027       -0.62578328561744       -0.77717114130013
C            9.83625882421343       -0.58104470161532       -0.74667945485850
C            9.20179483697753        0.49707143662493       -0.10438396641869
C            7.76077459322403        0.58907918268189       -0.05478619369095
C            7.11359282617170        1.67487910790871        0.56776434794492
C            5.74730129623062        1.69360159260077        0.64129937747439
C            4.98472068032401        0.64481775465816        0.07824880534342
C            3.54370363411735        0.62219049518929        0.10184216104654
C            2.79189248955262        1.81640540519335        0.13550372689300
C            1.42998912508972        1.78074452489962        0.14131899259911
C            0.70086829813768        0.56539814218618        0.12130989022539
C           -0.72127931155210        0.53618979854576        0.07522185068548
C           -1.49761611951653        1.72153821975955        0.03338033912022
C           -2.85907899422325        1.70241447345624       -0.01526226172459
C           -3.56161597211392        0.47874588154879       -0.04243792551402
C           -5.00164750682357        0.43764531608312       -0.09887040919973
C           -5.72420627280212       -0.62813520942425       -0.68193439980462
C           -7.09269723744547       -0.62883647996863       -0.66540439994562
C           -7.78093557978466        0.45343825317995       -0.08283067398871
C           -9.22467018136587        0.51602018329231       -0.07967073081706
C           -9.90061023774955        1.59007524571542        0.52574182603473
C          -11.27665580110138        1.60341814944619        0.51836821710035
C          -11.96430846425416        0.55211494919780       -0.08535631014133
C          -11.21580158292624       -0.46588687992846       -0.65774611486553
N           -9.90049073422554       -0.48342792983951       -0.65946061439992
N           -7.09301489248288        1.45452703420972        0.48374002399472
C           -5.78967840672465        1.45335536407048        0.47970154115962
C           -2.80525744425307       -0.69767473713077       -0.00376036189896
C           -1.41947371937625       -0.70811965139906        0.05590526688983
C           -0.66636858178295       -1.95260601706594        0.11390793441509
C           -1.30807887439307       -3.19781074536626        0.13437650040533
C           -0.60520259400338       -4.38012388686420        0.20562318968567
C            0.77962233962688       -4.35025909463153        0.26966597514786
C            1.43501616499586       -3.13904510093616        0.24931344941773
C            0.74479509722818       -1.92318279822038        0.16103900632385
C            1.44896211692127       -0.64971692995120        0.12804035761583
C            2.83403594568020       -0.58375413261607        0.09678096345183
C            5.73234891880363       -0.36761176868834       -0.55759235142020
N            7.03410931595315       -0.38794885155656       -0.61484438932280
N            9.91618916626978        1.47105149542078        0.47273039522392
C           11.23017162869428        1.42394145782884        0.43417251493464
H           13.01730189578082        0.39857034113356       -0.17336499339837
H           11.72261320520813       -1.44437170789636       -1.26332398585005
H            9.22021493089137       -1.33863199880386       -1.20497909240132
H            7.72799457950813        2.44700287405984        1.00369301039630
H            5.24742776049243        2.49346823069081        1.16715072523904
H            3.30112846045940        2.76830235812744        0.12871080691226
H            0.90138725562857        2.71959835481944        0.15847490958009
H           -1.00668956828473        2.68074775413464        0.03395971470484
H           -3.40520151093841        2.63245745687937       -0.06626476261601
H           -5.19190732442606       -1.42621813889968       -1.17815434755641
H           -7.67716856647878       -1.41599965380105       -1.11549696744224
H           -9.31465836025188        2.36942570596100        0.98704706018250
H          -11.81961081007747        2.41764562271351        0.97674603558719
H          -13.04172125555679        0.52726024106546       -0.11476374359771
H          -11.69280933417529       -1.30716460636078       -1.14539660073808
H           -5.32527450539046        2.27734262132420        1.00568532060891
H           -3.34761035394744       -1.62790983562020        0.00253854863426
H           -2.38351246840265       -3.25566686434207        0.09795397126111
H           -1.13265625424816       -5.32270231131184        0.21797295938222
H            1.34362518487469       -5.26902019534320        0.33673170905242
H            2.51080729784912       -3.14929451362991        0.31393540210207
H            3.41240980526507       -1.49230807835709        0.09460860796898
H            5.23481971556110       -1.17105771965825       -1.08543095524254
H           11.73958038555155        2.24552742542217        0.92252473844913

          :  Hamiltonian                  GFN2-xTB          :
         :: gradient norm              0.000086768601 Eh/a0 ::
         :: HOMO-LUMO gap              0.268209094063 eV    ::
         :: SCC energy              -107.211121163702 Eh    ::
         :: -> dispersion             -0.086306847426 Eh    ::
         :: -> Gsolv                  -0.047265656951 Eh    ::
         :: repulsion energy           1.933649409329 Eh    ::

    * Orbital Energies and Occupations

         #    Occupation            Energy/Eh            Energy/eV
      -------------------------------------------------------------
         1        2.0000           -0.6669030             -18.1474
       ...           ...                  ...                  ...
        87        2.0000           -0.4219936             -11.4830
        88        2.0000           -0.4110038             -11.1840
        89        2.0000           -0.4074069             -11.0861
        90        2.0000           -0.4044194             -11.0048
        91        2.0000           -0.3947839             -10.7426
        92        2.0000           -0.3925292             -10.6813
        93        2.0000           -0.3844725             -10.4620
        94        2.0000           -0.3836431             -10.4395
        95        2.0000           -0.3830859             -10.4243
        96        1.9901           -0.3735483             -10.1648
        97        1.8244           -0.3706466             -10.0858
        98        1.1855           -0.3677721             -10.0076
        99        0.9944           -0.2906964              -7.9103 (HOMO)
       100        0.0056           -0.2808399              -7.6420 (LUMO)
       101                         -0.2584335              -7.0323
       102                         -0.2567424              -6.9863
       103                         -0.2465093              -6.7079
       104                         -0.2464625              -6.7066
       105                         -0.2429374              -6.6107
       106                         -0.2423217              -6.5939
       107                         -0.2381592              -6.4806
       108                         -0.2213571              -6.0234
       109                         -0.2056127              -5.5950
       110                         -0.1914519              -5.2097
       ...                                ...                  ...
       192                          0.7292944              19.8451
      -------------------------------------------------------------
                  HL-Gap            0.0098565 Eh            0.2682 eV

     #   Z          covCN         q      C6AA      α(0)
     1   6 C        2.914    -0.047    29.167     8.856
     2   6 C        2.924    -0.014    28.364     8.734
     3   6 C        2.918    -0.040    29.005     8.832
     4   6 C        2.956     0.084    26.124     8.383
     5   6 C        2.954     0.073    26.368     8.422
     6   6 C        2.913    -0.040    28.988     8.829
     7   6 C        2.926    -0.025    28.617     8.773
     8   6 C        2.970    -0.007    28.186     8.708
     9   6 C        2.970     0.006    27.894     8.663
    10   6 C        2.917    -0.036    28.907     8.817
    11   6 C        2.917    -0.037    28.910     8.817
    12   6 C        2.977     0.005    27.909     8.666
    13   6 C        2.977     0.005    27.908     8.666
    14   6 C        2.917    -0.036    28.905     8.816
    15   6 C        2.917    -0.038    28.941     8.822
    16   6 C        2.970     0.005    27.898     8.664
    17   6 C        2.970    -0.007    28.185     8.708
    18   6 C        2.926    -0.025    28.623     8.774
    19   6 C        2.913    -0.040    28.988     8.829
    20   6 C        2.955     0.073    26.366     8.422
    21   6 C        2.956     0.084    26.122     8.383
    22   6 C        2.918    -0.040    29.005     8.832
    23   6 C        2.924    -0.014    28.363     8.734
    24   6 C        2.914    -0.047    29.165     8.856
    25   6 C        2.895     0.061    26.641     8.463
    26   7 N        1.843    -0.234    26.968     7.696
    27   7 N        1.842    -0.220    26.639     7.649
    28   6 C        2.897     0.056    26.733     8.477
    29   6 C        2.926    -0.043    29.059     8.840
    30   6 C        2.973     0.006    27.884     8.662
    31   6 C        2.978     0.006    27.892     8.663
    32   6 C        2.923    -0.036    28.885     8.814
    33   6 C        2.917    -0.031    28.782     8.798
    34   6 C        2.917    -0.031    28.780     8.797
    35   6 C        2.923    -0.036    28.885     8.814
    36   6 C        2.978     0.005    27.895     8.664
    37   6 C        2.974     0.006    27.879     8.661
    38   6 C        2.926    -0.044    29.089     8.845
    39   6 C        2.896     0.056    26.740     8.478
    40   7 N        1.842    -0.219    26.626     7.647
    41   7 N        1.843    -0.234    26.968     7.696
    42   6 C        2.895     0.061    26.640     8.463
    43   1 H        0.926     0.043     2.409     2.427
    44   1 H        0.926     0.046     2.369     2.407
    45   1 H        0.926     0.055     2.253     2.347
    46   1 H        0.926     0.057     2.235     2.338
    47   1 H        0.926     0.047     2.355     2.400
    48   1 H        0.926     0.035     2.511     2.478
    49   1 H        0.926     0.039     2.463     2.454
    50   1 H        0.926     0.038     2.469     2.457
    51   1 H        0.926     0.033     2.550     2.497
    52   1 H        0.926     0.047     2.364     2.404
    53   1 H        0.926     0.057     2.235     2.338
    54   1 H        0.926     0.055     2.252     2.347
    55   1 H        0.926     0.046     2.369     2.407
    56   1 H        0.926     0.043     2.408     2.427
    57   1 H        0.925     0.040     2.443     2.444
    58   1 H        0.925     0.044     2.390     2.418
    59   1 H        0.926     0.040     2.453     2.449
    60   1 H        0.926     0.037     2.493     2.469
    61   1 H        0.926     0.033     2.539     2.492
    62   1 H        0.926     0.033     2.541     2.493
    63   1 H        0.926     0.036     2.503     2.474
    64   1 H        0.926     0.037     2.490     2.467
    65   1 H        0.925     0.044     2.394     2.420
    66   1 H        0.925     0.040     2.443     2.444

molecular dipole:
                 x           y           z       tot (Debye)
 q only:       -0.000      -0.103       0.019
   full:        0.002      -0.096       0.020       0.251

 projected vibrational frequencies (cm⁻¹)
eigval :       -0.00    -0.00     0.00     0.00     0.00     0.00
eigval :       -4.54    16.60    18.70    29.09    32.53    38.84
eigval :       45.59    50.38    66.35    69.32    77.25    87.73
eigval :      101.48   101.86   113.82   124.41   131.43   160.44
eigval :      169.63   198.47   236.88   242.57   246.30   251.33
eigval :      287.50   326.96   333.73   365.16   369.48   373.72
eigval :      374.15   376.53   380.99   383.19   385.96   401.39
eigval :      403.71   413.74   423.24   432.39   435.88   450.45
eigval :      470.85   494.77   510.12   512.99   530.82   558.06
eigval :      569.70   574.22   580.80   582.16   586.50   590.88
eigval :      601.13   606.68   610.46   648.93   664.61   671.81
eigval :      673.41   678.16   684.92   694.12   698.00   699.13
eigval :      736.68   754.07   754.88   757.94   759.02   766.18
eigval :      797.60   802.78   806.71   818.10   829.67   832.46
eigval :      833.85   837.88   846.60   857.53   864.08   871.60
eigval :      872.82   900.64   904.39   904.60   905.85   906.94
eigval :      907.63   911.81   922.45   922.75   923.10   942.32
eigval :      949.70   961.15   966.74   983.09  1016.84  1016.95
eigval :     1068.49  1073.15  1073.46  1074.34  1075.92  1078.01
eigval :     1090.31  1114.88  1116.06  1117.80  1128.97  1134.44
eigval :     1138.42  1151.62  1157.80  1161.55  1176.88  1190.48
eigval :     1212.41  1224.10  1228.57  1231.58  1240.62  1247.28
eigval :     1254.91  1271.70  1278.54  1284.86  1288.78  1296.04
eigval :     1300.40  1300.57  1311.04  1316.27  1320.77  1339.43
eigval :     1345.51  1352.32  1360.54  1375.84  1385.51  1395.86
eigval :     1398.98  1412.49  1413.54  1419.89  1426.57  1429.77
eigval :     1433.75  1436.08  1440.07  1444.81  1459.57  1462.36
eigval :     1478.47  1489.56  1495.52  1505.28  1505.52  1528.97
eigval :     1551.42  1554.72  1561.88  1567.48  1580.60  1590.39
eigval :     3045.51  3046.09  3047.56  3050.05  3068.82  3070.68
eigval :     3072.99  3075.50  3076.31  3081.49  3082.84  3083.95
eigval :     3096.91  3097.83  3098.36  3098.75  3100.51  3100.92
eigval :     3102.62  3103.28  3105.42  3114.35  3117.80  3120.58

   temp. (K)  partition function   enthalpy   heat capacity  entropy
                                   cal/mol     cal/K/mol   cal/K/mol   J/K/mol
 298.15  VIB  0.208E+16            19030.852    120.580    119.378
         ROT  0.769E+08              888.752      2.981     39.064
         INT  0.160E+24            19919.605    123.561    158.443
         TR   0.120E+29             1481.254      4.968     44.706
         TOT                       21400.8587   128.5293   203.1484   849.9730

       T/K    H(0)-H(T)+PV         H(T)/Eh          T*S/Eh         G(T)/Eh
   ------------------------------------------------------------------------
    298.15    0.341044E-01    0.526889E+00    0.965224E-01    0.430366E+00
   ------------------------------------------------------------------------

         :::::::::::::::::::::::::::::::::::::::::::::::::::::
         ::                  THERMODYNAMIC                  ::
         :::::::::::::::::::::::::::::::::::::::::::::::::::::
         :: total free energy        -104.847105571740 Eh   ::
         ::.................................................::
         :: total energy             -105.277471748413 Eh   ::
         :: zero point energy           0.492784108051 Eh   ::
         :: G(RRHO) w/o ZPVE           -0.062417931378 Eh   ::
         :: G(RRHO) contrib.            0.430366176673 Eh   ::
         :::::::::::::::::::::::::::::::::::::::::::::::::::::

           -------------------------------------------------
          | TOTAL ENERGY             -105.277471748413 Eh   |
          | TOTAL ENTHALPY           -104.750583201127 Eh   |
          | TOTAL FREE ENERGY        -104.847105571740 Eh   |
          | GRADIENT NORM               0.000085510830 Eh/α |
          | HOMO-LUMO GAP               0.268208609353 eV   |
           -------------------------------------------------

 * finished run on 2025/08/26 at 12:39:07.943
