   * xtb version 6.7.1 (edcfbbe) compiled by 'albert@albert-system' on 2024-07-22

   ID    Z sym.   atoms
    1    6 C      1-4, 6-24, 26-38
    2    7 N      5, 25
    3    1 H      39-62

          program call               : xtb data2507/gas/oCBP/oCBP_gas_S0_crest.xyz --gfn 2 --ohess vtight --parallel 40 --molden --ceasefiles --namespace data2507/gas/oCBP/oCBP_gas_S0_finalOpt
          :  Hamiltonian                  GFN2-xTB          :
 * total energy  :   -95.2512632 Eh     change       -0.1435581E-08 Eh
 * total energy  :   -95.2512638 Eh     change       -0.5373752E-06 Eh
 * total energy  :   -95.2512643 Eh     change       -0.5514184E-06 Eh
 * total energy  :   -95.2512651 Eh     change       -0.7716352E-06 Eh
 * total energy  :   -95.2512653 Eh     change       -0.1888083E-06 Eh
 * total energy  :   -95.2512655 Eh     change       -0.1630212E-06 Eh
 * total energy  :   -95.2512656 Eh     change       -0.1905021E-06 Eh
 * total energy  :   -95.2512658 Eh     change       -0.1315441E-06 Eh
 * total energy  :   -95.2512659 Eh     change       -0.9396078E-07 Eh
   *** GEOMETRY OPTIMIZATION CONVERGED AFTER 9 ITERATIONS ***

 final structure:
================
62
 xtb: 6.7.1 (edcfbbe)
C            3.65385420568075       -2.09254733380032       -1.88254258358171
C            2.62153149432700       -2.14479978650727       -2.80442306020929
C            1.51283251229976       -1.34183292651641       -2.63287811138930
C            1.40126736292175       -0.49219358194916       -1.53338224273987
N            0.24202914413044        0.28966837518838       -1.42496401760800
C           -1.04371432607197       -0.20161415839444       -1.56516139245905
C           -1.47790779361284       -1.51235536026237       -1.69814803279324
C           -2.83818391831121       -1.73309169455255       -1.79126665529712
C           -3.75141153171193       -0.68285513169851       -1.74552845843030
C           -3.32586400242623        0.62069310786773       -1.59082917850669
C           -1.96337456079119        0.86768339874098       -1.49759927018278
C           -1.18681492268004        2.06177005140845       -1.32181879087583
C           -1.51970389362807        3.40362800125555       -1.20020636101400
C           -0.50371057259107        4.32823798978644       -1.06435435796118
C            0.83066638031578        3.92963602451227       -1.07945937222290
C            1.18651198973379        2.60048787450476       -1.20481046721936
C            0.16925171125961        1.66179073684267       -1.29338611723001
C            2.43665084695431       -0.43856297723268       -0.59266741628403
C            2.43556195871566        0.43522054270729        0.59919158765207
C            3.55905235137667        1.23488472678228        0.81112386136397
C            3.65107312025398        2.08844521868748        1.89167549666433
C            2.61659480704413        2.14171264514220        2.81106917909494
C            1.50766328363863        1.33960473316552        2.63702621755550
C            1.39791795868843        0.48993022670597        1.53736079844294
N            0.23802831678998       -0.29058727806887        1.42624103412599
C            0.16368659001454       -1.66259068997824        1.29419556073619
C            1.17980325100374       -2.60268383425642        1.20734973812947
C            0.82236335601896       -3.93132578357511        1.08106233994396
C           -0.51250980372637       -4.32814257907208        1.06352462571990
C           -1.52748673600024       -3.40214396109554        1.19751258515299
C           -1.19298329856041       -2.06075004678063        1.31972204376732
C           -1.96833034870488       -0.86563835037871        1.49381458373346
C           -3.33072578864629       -0.61682877793879        1.58350030052816
C           -3.75492836957152        0.68727950233419        1.73715223094612
C           -2.84039619825986        1.73626324626968        1.78537442524731
C           -1.48018528045563        1.51371197826412        1.69563503043138
C           -1.04739434795470        0.20241063319498        1.56359139572190
C            3.55995081120231       -1.23917687456838       -0.80200060123731
H            4.52912521871917       -2.71196235619489       -2.00700702399706
H            2.68566246961752       -2.79938780994768       -3.66041439982171
H            0.71800999173854       -1.34879522814670       -3.36379581846608
H           -0.78149787754731       -2.33728246548881       -1.71074986110015
H           -3.19965901144401       -2.74529404008370       -1.89693807591738
H           -4.80702877746564       -0.89702644354262       -1.82310045029308
H           -4.03299990133810        1.43432108940260       -1.53737734411245
H           -2.55432087212520        3.71119010647352       -1.21403257066830
H           -0.74054809511940        5.37686621818127       -0.96065391352046
H            1.60694727212905        4.67634267517355       -0.99828367415392
H            2.22443324066570        2.31089485277044       -1.24337151098201
H            4.36199303087983        1.20077551571919        0.08803979187982
H            4.52653668119471        2.70719493540611        2.01807497679305
H            2.67918212004256        2.79641802766857        3.66708550859860
H            0.71115844824241        1.34734052172111        3.36610191258020
H            2.21806656207531       -2.31459891458013        1.24785122094920
H            1.59777239056768       -4.67906357468656        1.00107066802266
H           -0.75058084919558       -5.37644844502439        0.95939699932836
H           -2.56254869305485       -3.70828441664180        1.20946071506669
H           -4.03879735164017       -1.42951061381735        1.52810174076585
H           -4.81045963705112        0.90286859344673        1.81191167074004
H           -3.20076006942915        2.74894570513790        1.89024303764663
H           -0.78275205681459        2.33774375690023        1.70998040286006
H            4.36116368818695       -1.20592082318115       -0.07696154651448

          :  Hamiltonian                  GFN2-xTB          :
         :: gradient norm              0.000029720503 Eh/a0 ::
         :: HOMO-LUMO gap              2.723396184182 eV    ::
         :: SCC energy               -97.076669011730 Eh    ::
         :: -> dispersion             -0.109583367240 Eh    ::
         :: repulsion energy           1.825403138366 Eh    ::

    * Orbital Energies and Occupations

         #    Occupation            Energy/Eh            Energy/eV
      -------------------------------------------------------------
         1        2.0000           -0.6724175             -18.2974
       ...           ...                  ...                  ...
        77        2.0000           -0.4153573             -11.3024
        78        2.0000           -0.4142218             -11.2715
        79        2.0000           -0.4127253             -11.2308
        80        2.0000           -0.4124947             -11.2246
        81        2.0000           -0.4104186             -11.1681
        82        2.0000           -0.4089155             -11.1272
        83        2.0000           -0.4017513             -10.9322
        84        2.0000           -0.3973287             -10.8119
        85        2.0000           -0.3951847             -10.7535
        86        2.0000           -0.3751018             -10.2070
        87        2.0000           -0.3717631             -10.1162
        88        2.0000           -0.3632446              -9.8844
        89        2.0000           -0.3530851              -9.6079 (HOMO)
        90                         -0.2530021              -6.8845 (LUMO)
        91                         -0.2423657              -6.5951
        92                         -0.2399843              -6.5303
        93                         -0.2332261              -6.3464
        94                         -0.2327878              -6.3345
        95                         -0.2176652              -5.9230
        96                         -0.2154670              -5.8632
        97                         -0.2131992              -5.8014
        98                         -0.1880559              -5.1173
        99                         -0.1844082              -5.0180
       100                         -0.1829607              -4.9786
       ...                                ...                  ...
       176                          0.7529486              20.4888
      -------------------------------------------------------------
                  HL-Gap            0.1000830 Eh            2.7234 eV

     #   Z          covCN         q      C6AA      α(0)
     1   6 C        2.917    -0.034    28.840     8.806
     2   6 C        2.919    -0.029    28.735     8.790
     3   6 C        2.926    -0.042    29.052     8.839
     4   6 C        2.913     0.062    26.606     8.458
     5   7 N        2.803    -0.047    22.138     6.988
     6   6 C        3.079     0.048    26.841     8.494
     7   6 C        2.910    -0.048    29.196     8.860
     8   6 C        2.925    -0.032    28.798     8.800
     9   6 C        2.920    -0.040    28.988     8.829
    10   6 C        2.913    -0.032    28.790     8.798
    11   6 C        3.068    -0.017    28.354     8.731
    12   6 C        3.071    -0.016    28.339     8.729
    13   6 C        2.913    -0.032    28.800     8.800
    14   6 C        2.920    -0.042    29.031     8.836
    15   6 C        2.924    -0.035    28.864     8.810
    16   6 C        2.910    -0.052    29.291     8.875
    17   6 C        3.073     0.048    26.841     8.495
    18   6 C        2.976     0.002    27.985     8.677
    19   6 C        2.976     0.002    27.985     8.678
    20   6 C        2.930    -0.033    28.824     8.805
    21   6 C        2.917    -0.034    28.840     8.806
    22   6 C        2.919    -0.029    28.735     8.790
    23   6 C        2.926    -0.042    29.052     8.839
    24   6 C        2.913     0.062    26.606     8.458
    25   7 N        2.803    -0.047    22.138     6.988
    26   6 C        3.073     0.048    26.841     8.495
    27   6 C        2.910    -0.052    29.291     8.875
    28   6 C        2.924    -0.035    28.864     8.810
    29   6 C        2.920    -0.042    29.031     8.836
    30   6 C        2.913    -0.032    28.800     8.800
    31   6 C        3.071    -0.016    28.339     8.729
    32   6 C        3.068    -0.017    28.354     8.731
    33   6 C        2.913    -0.032    28.790     8.798
    34   6 C        2.920    -0.040    28.988     8.829
    35   6 C        2.925    -0.032    28.798     8.800
    36   6 C        2.910    -0.048    29.196     8.860
    37   6 C        3.079     0.048    26.841     8.494
    38   6 C        2.930    -0.033    28.824     8.805
    39   1 H        0.926     0.036     2.508     2.476
    40   1 H        0.926     0.037     2.494     2.469
    41   1 H        0.926     0.042     2.426     2.436
    42   1 H        0.926     0.026     2.644     2.543
    43   1 H        0.926     0.029     2.604     2.524
    44   1 H        0.926     0.028     2.618     2.530
    45   1 H        0.926     0.030     2.587     2.515
    46   1 H        0.926     0.030     2.581     2.512
    47   1 H        0.926     0.027     2.631     2.536
    48   1 H        0.926     0.027     2.634     2.538
    49   1 H        0.926     0.024     2.674     2.557
    50   1 H        0.926     0.035     2.512     2.478
    51   1 H        0.926     0.036     2.508     2.476
    52   1 H        0.926     0.037     2.494     2.469
    53   1 H        0.926     0.042     2.426     2.436
    54   1 H        0.926     0.024     2.674     2.557
    55   1 H        0.926     0.027     2.634     2.538
    56   1 H        0.926     0.027     2.631     2.536
    57   1 H        0.926     0.030     2.581     2.512
    58   1 H        0.926     0.030     2.587     2.515
    59   1 H        0.926     0.028     2.618     2.530
    60   1 H        0.926     0.029     2.604     2.523
    61   1 H        0.926     0.026     2.644     2.543
    62   1 H        0.926     0.035     2.512     2.478

molecular dipole:
                 x           y           z       tot (Debye)
 q only:        0.678      -0.000       0.001
   full:        0.831      -0.001       0.001       2.111

 projected vibrational frequencies (cm⁻¹)
eigval :       -0.00    -0.00     0.00     0.00     0.00     0.00
eigval :       23.72    37.11    43.14    49.93    74.90    77.90
eigval :       79.78    85.28    92.87   125.68   126.41   141.60
eigval :      158.63   169.99   172.00   189.63   197.60   230.62
eigval :      239.77   275.46   277.98   292.32   294.29   298.53
eigval :      354.57   360.24   397.48   400.92   404.20   423.25
eigval :      426.05   433.27   438.37   440.79   467.27   476.75
eigval :      517.94   519.22   519.32   539.19   541.36   542.47
eigval :      544.85   545.32   582.82   584.07   587.79   602.38
eigval :      608.24   610.04   612.12   673.74   673.98   687.55
eigval :      691.75   705.15   707.76   715.83   717.00   752.27
eigval :      757.94   762.26   768.37   770.38   779.73   780.50
eigval :      783.03   794.92   868.74   869.02   872.98   873.94
eigval :      888.92   892.56   896.81   898.11   900.58   900.60
eigval :      904.25   904.37   919.14   919.62   920.22   920.80
eigval :      921.87   924.44   926.29   931.96   934.22   934.83
eigval :     1006.29  1011.74  1012.50  1071.39  1071.66  1075.60
eigval :     1075.79  1094.35  1100.02  1104.01  1118.61  1138.75
eigval :     1152.96  1154.19  1154.29  1176.48  1177.91  1180.33
eigval :     1180.80  1181.62  1182.26  1195.28  1195.73  1236.44
eigval :     1237.66  1242.71  1242.92  1249.65  1252.88  1273.87
eigval :     1299.90  1300.06  1303.94  1304.27  1310.33  1319.55
eigval :     1356.40  1356.73  1362.20  1363.94  1364.73  1365.36
eigval :     1416.12  1419.52  1428.42  1429.29  1432.13  1443.67
eigval :     1474.23  1476.59  1477.86  1489.70  1489.90  1496.23
eigval :     1565.59  1571.88  1576.83  1577.52  1588.57  1590.62
eigval :     1591.56  1593.70  1600.70  1600.92  1616.94  1618.07
eigval :     3071.26  3074.24  3075.42  3075.46  3075.90  3076.16
eigval :     3081.41  3082.04  3083.25  3083.58  3083.71  3083.75
eigval :     3089.71  3089.84  3091.86  3091.95  3093.31  3093.69
eigval :     3095.91  3097.40  3099.36  3099.90  3106.21  3106.35

   temp. (K)  partition function   enthalpy   heat capacity  entropy
                                   cal/mol     cal/K/mol   cal/K/mol   J/K/mol
 298.15  VIB  0.224E+11            15985.583    109.620     95.775
         ROT  0.900E+07              888.752      2.981     34.802
         INT  0.201E+18            16874.335    112.601    130.578
         TR   0.103E+29             1481.254      4.968     44.402
         TOT                       18355.5890   117.5691   174.9795   732.1141

       T/K    H(0)-H(T)+PV         H(T)/Eh          T*S/Eh         G(T)/Eh
   ------------------------------------------------------------------------
    298.15    0.292515E-01    0.509731E+00    0.831384E-01    0.426593E+00
   ------------------------------------------------------------------------

         :::::::::::::::::::::::::::::::::::::::::::::::::::::
         ::                  THERMODYNAMIC                  ::
         :::::::::::::::::::::::::::::::::::::::::::::::::::::
         :: total free energy         -94.824672981631 Eh   ::
         ::.................................................::
         :: total energy              -95.251265873362 Eh   ::
         :: zero point energy           0.480479789040 Eh   ::
         :: G(RRHO) w/o ZPVE           -0.053886897309 Eh   ::
         :: G(RRHO) contrib.            0.426592891731 Eh   ::
         :::::::::::::::::::::::::::::::::::::::::::::::::::::

           -------------------------------------------------
          | TOTAL ENERGY              -95.251265873362 Eh   |
          | TOTAL ENTHALPY            -94.741534591272 Eh   |
          | TOTAL FREE ENERGY         -94.824672981631 Eh   |
          | GRADIENT NORM               0.000029735650 Eh/α |
          | HOMO-LUMO GAP               2.723396307547 eV   |
           -------------------------------------------------

 * finished run on 2025/07/19 at 00:15:23.124
