   * xtb version 6.7.1 (edcfbbe) compiled by 'albert@albert-system' on 2024-07-22

   ID    Z sym.   atoms
    1    6 C      1-4, 6-24, 26-38
    2    7 N      5, 25
    3    1 H      39-62

          program call               : xtb data2507/gas/oCBP/oCBP.xyz --gfn 2 --ohess vtight --parallel 40 --molden --ceasefiles --namespace data2507/gas/oCBP/oCBP_gas_S0_preOpt
          :  Hamiltonian                  GFN2-xTB          :
 * total energy  :   -95.2271530 Eh     change       -0.1728367E-08 Eh
 * total energy  :   -95.2410550 Eh     change       -0.1390199E-01 Eh
 * total energy  :   -95.2448370 Eh     change       -0.3782071E-02 Eh
 * total energy  :   -95.2460730 Eh     change       -0.1236001E-02 Eh
 * total energy  :   -95.2471035 Eh     change       -0.1030503E-02 Eh
 * total energy  :   -95.2477201 Eh     change       -0.6165855E-03 Eh
 * total energy  :   -95.2482178 Eh     change       -0.4976846E-03 Eh
 * total energy  :   -95.2486638 Eh     change       -0.4459883E-03 Eh
 * total energy  :   -95.2489764 Eh     change       -0.3126439E-03 Eh
 * total energy  :   -95.2491483 Eh     change       -0.1718825E-03 Eh
 * total energy  :   -95.2512386 Eh     change       -0.9925880E-06 Eh
 * total energy  :   -95.2512395 Eh     change       -0.9600858E-06 Eh
 * total energy  :   -95.2512405 Eh     change       -0.9282869E-06 Eh
 * total energy  :   -95.2512414 Eh     change       -0.8963364E-06 Eh
 * total energy  :   -95.2512422 Eh     change       -0.8643859E-06 Eh
 * total energy  :   -95.2512431 Eh     change       -0.8317788E-06 Eh
 * total energy  :   -95.2512439 Eh     change       -0.8001022E-06 Eh
 * total energy  :   -95.2512446 Eh     change       -0.7701216E-06 Eh
 * total energy  :   -95.2512446 Eh     change       -0.7957738E-08 Eh
   *** GEOMETRY OPTIMIZATION CONVERGED AFTER 122 ITERATIONS ***

 final structure:
================
62
 xtb: 6.7.1 (edcfbbe)
C           -1.63365227083288       -3.63988918714286       -2.29511664840153
C           -1.48500759770419       -2.60499470863961       -3.20349615650730
C           -0.73466470673856       -1.49899667028035       -2.86091285349978
C           -0.14091136165537       -1.39261619204575       -1.60432934729736
N            0.60573599646662       -0.23840522226652       -1.32655416964280
C            0.16535596100249        1.05149282220020       -1.56369304600763
C           -1.08175986474326        1.49645213262611       -1.97711600696807
C           -1.26702495355673        2.85872183829729       -2.11027407342448
C           -0.24542802036923        3.76346007879562       -1.83310326117017
C            0.98989192865125        3.32717110991196       -1.39972095558273
C            1.20078594806127        1.96254560753409       -1.26070532614786
C            2.32285968729330        1.17618489501645       -0.83350808491546
C            3.60877063816921        1.49782918326143       -0.42200957045703
C            4.47560310306640        0.47389466646760       -0.09668004405053
C            4.08141873677646       -0.85724476590661       -0.20787802138101
C            2.80847759561656       -1.20186733098833       -0.61982906362835
C            1.91730456847618       -0.17680252488864       -0.90077642143020
C           -0.29464857329091       -2.42944165234421       -0.67631331520548
C            0.29983884386185       -2.42869718343949        0.67670318671857
C            1.04022609884529       -3.54834923541575        1.05646695881710
C            1.64142730844834       -3.63601895176921        2.29570070936189
C            1.49057364022781       -2.60129684899177        3.20391240444634
C            0.73786860709822       -1.49696024720147        2.86115120989646
C            0.14388774432813       -1.39205219354680        1.60455142540658
N           -0.60522449168143       -0.23948426787902        1.32659047452855
C           -1.91692231287549       -0.18075340691650        0.90080496662130
C           -2.80590290524255       -1.20776580558495        0.62002451138212
C           -4.07957870160764       -0.86593101202695        0.20802154781390
C           -4.47660780713072        0.46434495620469        0.09661127741001
C           -3.61196510064290        1.49018218813988        0.42177378516003
C           -2.32536852505340        1.17135325538559        0.83332016202462
C           -1.20497728624444        1.96017914587529        1.26038836915018
C           -0.99700031344607        3.32527463403501        1.39918413282439
C            0.23738450965803        3.76427260189634        1.83249525582253
C            1.26091301319362        2.86176450332356        2.10981055909945
C            1.07855998315965        1.49908054442340        1.97687159994907
C           -0.16760218867721        1.05139022676789        1.56352135061782
C           -1.03264189438759       -3.55073426731996       -1.05589629292022
H           -2.21324662431757       -4.51340863924829       -2.55258540017004
H           -1.94105270919816       -2.66527943333085       -4.18007888990951
H           -0.58221462480735       -0.70285099447189       -3.57430701647152
H           -1.88905309968742        0.80665314400305       -2.17228695627860
H           -2.22917816402561        3.22865231312716       -2.43241866161074
H           -0.42982119760620        4.82094688777101       -1.95103466695296
H            1.77752450083146        4.02762379239414       -1.16751019223827
H            3.91905799869743        2.53000141606904       -0.36213235968028
H            5.47853127635701        0.70192443493215        0.23287310207259
H            4.78823173169985       -1.63981472551896        0.02613358359666
H            2.52780107374370       -2.23717462459713       -0.72898782339087
H            1.16628483316558       -4.35133751722263        0.34366856573813
H            2.22288700519193       -4.50825631519555        2.55331007419021
H            1.94674705626299       -2.66044912144907        4.18050445453288
H            0.58371821817899       -0.70102684312006        3.57441682534375
H           -2.52301411494783       -2.24245324422525        0.72934964065273
H           -4.78471845232414       -1.65004753674653       -0.02586088784684
H           -5.48002194648293        0.69017752749036       -0.23297556429153
H           -3.92445761403096        2.52167928147219        0.36173016258057
H           -1.78612845911349        4.02400488303866        1.16686174627492
H            0.41951719102103        4.82217007025964        1.95025623202599
H            2.22227347992196        3.23380239288843        2.43189495915275
H            1.88732577788033        0.81104003626903        2.17215307312970
H           -1.15698517293664       -4.35387490014221       -0.34296822886048

          :  Hamiltonian                  GFN2-xTB          :
         :: gradient norm              0.000074023730 Eh/a0 ::
         :: HOMO-LUMO gap              2.728054490215 eV    ::
         :: SCC energy               -97.076729595006 Eh    ::
         :: -> dispersion             -0.109458727944 Eh    ::
         :: repulsion energy           1.825484966385 Eh    ::

    * Orbital Energies and Occupations

         #    Occupation            Energy/Eh            Energy/eV
      -------------------------------------------------------------
         1        2.0000           -0.6724435             -18.2981
       ...           ...                  ...                  ...
        77        2.0000           -0.4153620             -11.3026
        78        2.0000           -0.4143350             -11.2746
        79        2.0000           -0.4126753             -11.2295
        80        2.0000           -0.4125055             -11.2248
        81        2.0000           -0.4104564             -11.1691
        82        2.0000           -0.4088900             -11.1265
        83        2.0000           -0.4017431             -10.9320
        84        2.0000           -0.3972362             -10.8093
        85        2.0000           -0.3951916             -10.7537
        86        2.0000           -0.3748280             -10.1996
        87        2.0000           -0.3720794             -10.1248
        88        2.0000           -0.3632786              -9.8853
        89        2.0000           -0.3531048              -9.6085 (HOMO)
        90                         -0.2528507              -6.8804 (LUMO)
        91                         -0.2425225              -6.5994
        92                         -0.2400558              -6.5323
        93                         -0.2333194              -6.3489
        94                         -0.2326175              -6.3298
        95                         -0.2175179              -5.9190
        96                         -0.2155330              -5.8650
        97                         -0.2133458              -5.8054
        98                         -0.1880221              -5.1163
        99                         -0.1844241              -5.0184
       100                         -0.1828936              -4.9768
       ...                                ...                  ...
       176                          0.7528875              20.4871
      -------------------------------------------------------------
                  HL-Gap            0.1002542 Eh            2.7281 eV

     #   Z          covCN         q      C6AA      α(0)
     1   6 C        2.917    -0.034    28.839     8.806
     2   6 C        2.919    -0.029    28.735     8.790
     3   6 C        2.925    -0.042    29.052     8.839
     4   6 C        2.913     0.062    26.606     8.458
     5   7 N        2.803    -0.047    22.138     6.988
     6   6 C        3.079     0.048    26.841     8.494
     7   6 C        2.910    -0.048    29.197     8.860
     8   6 C        2.925    -0.032    28.798     8.800
     9   6 C        2.920    -0.040    28.989     8.829
    10   6 C        2.913    -0.032    28.790     8.798
    11   6 C        3.068    -0.017    28.354     8.731
    12   6 C        3.071    -0.016    28.340     8.729
    13   6 C        2.913    -0.032    28.802     8.800
    14   6 C        2.920    -0.042    29.033     8.836
    15   6 C        2.924    -0.035    28.863     8.810
    16   6 C        2.910    -0.052    29.291     8.875
    17   6 C        3.073     0.048    26.842     8.495
    18   6 C        2.976     0.002    27.985     8.677
    19   6 C        2.976     0.002    27.985     8.677
    20   6 C        2.930    -0.033    28.821     8.804
    21   6 C        2.917    -0.034    28.839     8.806
    22   6 C        2.919    -0.029    28.735     8.790
    23   6 C        2.925    -0.042    29.052     8.839
    24   6 C        2.913     0.062    26.606     8.458
    25   7 N        2.803    -0.047    22.138     6.988
    26   6 C        3.073     0.048    26.842     8.495
    27   6 C        2.910    -0.052    29.291     8.875
    28   6 C        2.924    -0.035    28.863     8.810
    29   6 C        2.920    -0.042    29.033     8.836
    30   6 C        2.913    -0.032    28.802     8.800
    31   6 C        3.071    -0.016    28.340     8.729
    32   6 C        3.068    -0.017    28.354     8.731
    33   6 C        2.913    -0.032    28.790     8.798
    34   6 C        2.920    -0.040    28.989     8.829
    35   6 C        2.925    -0.032    28.798     8.800
    36   6 C        2.910    -0.048    29.197     8.860
    37   6 C        3.079     0.048    26.841     8.494
    38   6 C        2.930    -0.033    28.821     8.804
    39   1 H        0.926     0.036     2.507     2.476
    40   1 H        0.926     0.037     2.493     2.469
    41   1 H        0.926     0.042     2.426     2.436
    42   1 H        0.926     0.026     2.643     2.542
    43   1 H        0.926     0.029     2.604     2.523
    44   1 H        0.926     0.028     2.618     2.530
    45   1 H        0.926     0.030     2.587     2.515
    46   1 H        0.926     0.030     2.581     2.512
    47   1 H        0.926     0.027     2.631     2.536
    48   1 H        0.926     0.027     2.634     2.538
    49   1 H        0.926     0.024     2.672     2.556
    50   1 H        0.926     0.035     2.513     2.479
    51   1 H        0.926     0.036     2.507     2.476
    52   1 H        0.926     0.037     2.493     2.469
    53   1 H        0.926     0.042     2.426     2.436
    54   1 H        0.926     0.024     2.672     2.556
    55   1 H        0.926     0.027     2.634     2.538
    56   1 H        0.926     0.027     2.631     2.536
    57   1 H        0.926     0.030     2.581     2.512
    58   1 H        0.926     0.030     2.587     2.515
    59   1 H        0.926     0.028     2.618     2.530
    60   1 H        0.926     0.029     2.604     2.523
    61   1 H        0.926     0.026     2.643     2.542
    62   1 H        0.926     0.035     2.513     2.479

molecular dipole:
                 x           y           z       tot (Debye)
 q only:        0.001      -0.676       0.000
   full:        0.001      -0.827       0.000       2.102

 projected vibrational frequencies (cm⁻¹)
eigval :       -0.00    -0.00     0.00     0.00     0.00     0.00
eigval :       23.49    36.51    42.92    49.17    74.69    77.61
eigval :       80.70    85.15    92.79   125.06   126.43   141.83
eigval :      158.46   170.56   171.89   189.55   197.41   230.61
eigval :      239.78   275.39   277.86   291.89   294.79   298.34
eigval :      354.20   360.03   397.59   400.96   404.45   423.11
eigval :      425.94   433.04   438.36   440.95   466.97   476.75
eigval :      517.97   519.16   519.33   539.18   541.28   542.52
eigval :      544.91   545.09   582.77   584.07   587.80   602.28
eigval :      608.29   610.08   611.97   673.71   673.97   687.69
eigval :      691.98   705.17   707.69   715.82   717.00   752.12
eigval :      757.85   762.07   768.34   770.39   779.81   780.43
eigval :      782.98   794.82   868.86   869.15   872.97   873.80
eigval :      889.02   892.53   896.79   898.08   900.62   900.65
eigval :      904.16   904.33   919.06   919.59   920.21   920.85
eigval :      921.82   924.39   926.31   931.76   934.06   934.70
eigval :     1006.31  1011.72  1012.54  1071.38  1071.65  1075.55
eigval :     1075.73  1094.26  1099.79  1103.66  1118.45  1138.66
eigval :     1152.98  1154.15  1154.17  1176.53  1177.95  1180.30
eigval :     1180.74  1181.66  1182.13  1195.31  1195.83  1236.42
eigval :     1237.62  1242.49  1242.90  1249.57  1252.75  1274.30
eigval :     1300.12  1300.12  1303.94  1304.33  1310.34  1319.33
eigval :     1356.37  1356.77  1362.22  1363.89  1364.73  1365.29
eigval :     1416.38  1419.70  1428.45  1429.25  1432.23  1443.84
eigval :     1474.18  1476.58  1477.84  1489.73  1489.90  1496.25
eigval :     1565.63  1571.90  1576.83  1577.53  1588.61  1590.66
eigval :     1591.55  1593.69  1600.70  1600.89  1616.89  1618.01
eigval :     3071.07  3074.04  3075.45  3075.48  3075.97  3076.26
eigval :     3081.43  3082.08  3083.26  3083.61  3083.75  3083.78
eigval :     3089.65  3089.85  3091.88  3091.98  3093.29  3093.67
eigval :     3095.90  3097.43  3099.40  3099.97  3106.50  3106.63

   temp. (K)  partition function   enthalpy   heat capacity  entropy
                                   cal/mol     cal/K/mol   cal/K/mol   J/K/mol
 298.15  VIB  0.234E+11            15989.238    109.593     95.795
         ROT  0.901E+07              888.752      2.981     34.805
         INT  0.211E+18            16877.990    112.574    130.600
         TR   0.103E+29             1481.254      4.968     44.402
         TOT                       18359.2442   117.5423   175.0021   732.2087

       T/K    H(0)-H(T)+PV         H(T)/Eh          T*S/Eh         G(T)/Eh
   ------------------------------------------------------------------------
    298.15    0.292573E-01    0.509727E+00    0.831491E-01    0.426578E+00
   ------------------------------------------------------------------------

         :::::::::::::::::::::::::::::::::::::::::::::::::::::
         ::                  THERMODYNAMIC                  ::
         :::::::::::::::::::::::::::::::::::::::::::::::::::::
         :: total free energy         -94.824666523576 Eh   ::
         ::.................................................::
         :: total energy              -95.251244628641 Eh   ::
         :: zero point energy           0.480469924743 Eh   ::
         :: G(RRHO) w/o ZPVE           -0.053891819679 Eh   ::
         :: G(RRHO) contrib.            0.426578105064 Eh   ::
         :::::::::::::::::::::::::::::::::::::::::::::::::::::

           -------------------------------------------------
          | TOTAL ENERGY              -95.251244628641 Eh   |
          | TOTAL ENTHALPY            -94.741517385922 Eh   |
          | TOTAL FREE ENERGY         -94.824666523576 Eh   |
          | GRADIENT NORM               0.000074023880 Eh/α |
          | HOMO-LUMO GAP               2.728054584868 eV   |
           -------------------------------------------------

 * finished run on 2025/07/19 at 00:13:10.542
