   * xtb version 6.7.1 (edcfbbe) compiled by 'albert@albert-system' on 2024-07-22

   ID    Z sym.   atoms
    1    6 C      1-4, 6-24, 26-38
    2    7 N      5, 25
    3    1 H      39-62

          program call               : xtb data2507/gas/oCBP/oCBP_gas_S0_finalOpt.xtbopt.xyz --gfn 2 --spinpol --tblite --uhf 2 --ohess vtight --parallel 40 --molden --ceasefiles --namespace data2507/gas/oCBP/oCBP_gas_T1_preOpt
 * total energy  :   -95.1438013 Eh     change       -0.4543594E-08 Eh
 * total energy  :   -95.1459920 Eh     change       -0.2190678E-02 Eh
 * total energy  :   -95.1471659 Eh     change       -0.1173893E-02 Eh
 * total energy  :   -95.1476318 Eh     change       -0.4659167E-03 Eh
 * total energy  :   -95.1480382 Eh     change       -0.4063797E-03 Eh
 * total energy  :   -95.1482685 Eh     change       -0.2303709E-03 Eh
 * total energy  :   -95.1483791 Eh     change       -0.1105886E-03 Eh
 * total energy  :   -95.1484324 Eh     change       -0.5329382E-04 Eh
 * total energy  :   -95.1484588 Eh     change       -0.2642213E-04 Eh
 * total energy  :   -95.1484726 Eh     change       -0.1373084E-04 Eh
 * total energy  :   -95.1485221 Eh     change       -0.4773695E-06 Eh
 * total energy  :   -95.1485225 Eh     change       -0.4585177E-06 Eh
 * total energy  :   -95.1485230 Eh     change       -0.4289578E-06 Eh
 * total energy  :   -95.1485233 Eh     change       -0.3823894E-06 Eh
 * total energy  :   -95.1485237 Eh     change       -0.3517217E-06 Eh
 * total energy  :   -95.1485240 Eh     change       -0.2974970E-06 Eh
 * total energy  :   -95.1485243 Eh     change       -0.2775293E-06 Eh
 * total energy  :   -95.1485245 Eh     change       -0.2287438E-06 Eh
 * total energy  :   -95.1485245 Eh     change       -0.1921933E-07 Eh
   *** GEOMETRY OPTIMIZATION CONVERGED AFTER 44 ITERATIONS ***

 final structure:
================
62
 xtb: 6.7.1 (edcfbbe)
C            3.66371764416758       -2.04052216037810       -1.96092483754227
C            2.56209235531469       -2.16721209078478       -2.80622201645303
C            1.43387134974326       -1.41107225358174       -2.56049465100335
C            1.36842741185006       -0.54303438812750       -1.47540870089393
N            0.21923242707211        0.24615240716366       -1.33310930795028
C           -1.07646091447207       -0.21735712642107       -1.45384088694261
C           -1.53614437524080       -1.52254049099791       -1.54178931170047
C           -2.91440040833517       -1.71817429673453       -1.63670288122189
C           -3.79391810146135       -0.64668302521338       -1.61749785263354
C           -3.34161458010966        0.66259226176017       -1.50313733432551
C           -1.97086233092106        0.88129936529765       -1.40713801018865
C           -1.16947060619458        2.05415354526330       -1.25027072282424
C           -1.46150126112221        3.41416861129632       -1.17733236301950
C           -0.41549514133171        4.31012944181569       -1.08024649682474
C            0.91228517861230        3.87932763397124       -1.08657115237749
C            1.23035024822088        2.53257050037298       -1.17444084823578
C            0.18809213183398        1.62177566398670       -1.22919002472893
C            2.47140156341884       -0.42158114376607       -0.59160285690884
C            2.47046585525561        0.41816117237591        0.59816031996918
C            3.61116958665091        1.17877600130510        0.89648750439022
C            3.66144088553148        2.03561145940733        1.97040833304718
C            2.55791165253133        2.16366673947542        2.81300744445583
C            1.42934950425075        1.40894106589273        2.56450712370649
C            1.36548026028382        0.54098918295523        1.47925735077938
N            0.21564554508254       -0.24674830492681        1.33413786254597
C            0.18300105381489       -1.62231703906572        1.23011557893356
C            1.22424168494745       -2.53445795978126        1.17786609736483
C            0.90467532793233       -3.88078263635330        1.08919079427956
C           -0.42362515089740       -4.30990865171469        1.07964050299035
C           -1.46872837453411       -3.41260528337545        1.17422331173728
C           -1.17514115302055       -2.05299928707588        1.24789882613847
C           -1.97544382956866       -0.87909676251591        1.40284534765532
C           -3.34611363946057       -0.65866267835807        1.49552148144035
C           -3.79704302539717        0.65119422214655        1.60878643545488
C           -2.91620705838742        1.72156101303474        1.63011631114451
C           -1.53799230625389        1.52418168075442        1.53854887237110
C           -1.07974544081732        0.21840130904316        1.45172085282490
C            3.61188662038475       -1.18361477737502       -0.88713645690482
H            4.55674237958766       -2.61763281467151       -2.14824649609635
H            2.59550646070724       -2.83251386613724       -3.65446569338251
H            0.59573206729436       -1.45291556923613       -3.24096352662507
H           -0.85784692403650       -2.36121409307182       -1.55454316940256
H           -3.29525081287205       -2.72457145609998       -1.71476037999568
H           -4.85508046557167       -0.83384928146676       -1.69378880677420
H           -4.03271424753902        1.49001789282681       -1.48702477057665
H           -2.48614399717804        3.75187230146118       -1.19447904290931
H           -0.62289606125800        5.36836992986392       -1.01586113674230
H            1.70742085488630        4.60684679197737       -1.03547333950375
H            2.25928059925509        2.21594228397988       -1.21794271938595
H            4.46009952180792        1.11148174525529        0.23106816111133
H            4.55472210532352        2.61160886868851        2.15992090093530
H            2.59008310337130        2.82891012638864        3.66134401276751
H            0.58960977132151        1.45181363361165        3.24293378774572
H            2.25346379682426       -2.21912369247649        1.22386869837648
H            1.69901019358721       -4.60932339780001        1.03998830607638
H           -0.63221899733507       -5.36788333306794        1.01471278236461
H           -2.49384119669661       -3.74902355827196        1.18887035492525
H           -4.03823986389895       -1.48520641685259        1.47773870310539
H           -4.85814854804976        0.83970817574887        1.68250378702569
H           -3.29597416605202        2.72844662069665        1.70724477567069
H           -0.85865346748670        2.36198869439007        1.55294548258355
H            4.45927098976837       -1.11736709156117       -0.21964486695565

 projected vibrational frequencies (cm⁻¹)
eigval :       -0.00    -0.00    -0.00    -0.00     0.00     0.00
eigval :       28.50    44.05    49.64    61.76    80.81    80.85
eigval :       90.27    90.67    99.74   132.07   132.99   142.45
eigval :      162.28   166.75   170.96   189.76   199.12   236.02
eigval :      236.83   269.19   270.87   290.65   297.14   297.51
eigval :      359.20   359.75   384.74   390.10   395.13   417.15
eigval :      420.10   430.41   432.46   438.39   453.44   459.36
eigval :      502.16   509.32   509.98   514.06   517.96   519.56
eigval :      550.69   552.41   574.88   575.01   577.96   596.22
eigval :      603.07   606.28   606.83   656.25   657.73   661.57
eigval :      674.72   684.56   687.25   695.51   708.40   744.41
eigval :      750.80   752.53   754.95   755.51   755.88   758.09
eigval :      761.10   768.70   833.34   833.83   849.63   850.10
eigval :      861.28   869.97   882.24   882.54   885.12   885.44
eigval :      891.13   891.89   901.30   902.62   905.40   905.93
eigval :      906.39   908.75   910.96   914.72   915.03   920.13
eigval :      990.26  1000.53  1003.66  1055.39  1062.14  1062.21
eigval :     1067.28  1082.48  1084.69  1092.48  1103.42  1124.52
eigval :     1124.59  1132.57  1139.99  1161.72  1167.35  1172.78
eigval :     1173.50  1174.89  1175.27  1182.01  1188.45  1216.56
eigval :     1219.19  1220.62  1230.44  1238.87  1244.08  1266.94
eigval :     1270.10  1270.66  1271.95  1295.44  1307.42  1311.92
eigval :     1324.86  1325.95  1338.63  1347.03  1376.84  1377.54
eigval :     1383.61  1385.41  1395.59  1398.29  1404.69  1412.77
eigval :     1417.01  1439.75  1440.72  1443.64  1467.92  1468.17
eigval :     1477.86  1482.19  1499.13  1503.48  1507.34  1507.72
eigval :     1536.91  1543.67  1549.65  1552.97  1554.39  1589.17
eigval :     3070.72  3074.60  3077.15  3077.21  3077.36  3078.28
eigval :     3079.10  3079.19  3086.57  3087.52  3091.03  3091.08
eigval :     3091.77  3092.11  3096.73  3097.08  3099.78  3100.29
eigval :     3100.40  3100.74  3102.22  3104.38  3115.72  3116.03

   temp. (K)  partition function   enthalpy   heat capacity  entropy
                                   cal/mol     cal/K/mol   cal/K/mol   J/K/mol
 298.15  VIB  0.100E+11            16168.495    112.577     96.123
         ROT  0.880E+07              888.752      2.981     34.757
         INT  0.883E+17            17057.247    115.558    130.880
         TR   0.103E+29             1481.254      4.968     44.402
         TOT                       18538.5009   120.5263   175.2815   733.3776

       T/K    H(0)-H(T)+PV         H(T)/Eh          T*S/Eh         G(T)/Eh
   ------------------------------------------------------------------------
    298.15    0.295430E-01    0.504175E+00    0.832819E-01    0.420893E+00
   ------------------------------------------------------------------------

         :::::::::::::::::::::::::::::::::::::::::::::::::::::
         ::                  THERMODYNAMIC                  ::
         :::::::::::::::::::::::::::::::::::::::::::::::::::::
         :: total free energy         -94.727631023349 Eh   ::
         ::.................................................::
         :: total energy              -95.148524487729 Eh   ::
         :: zero point energy           0.474632358161 Eh   ::
         :: G(RRHO) w/o ZPVE           -0.053738893781 Eh   ::
         :: G(RRHO) contrib.            0.420893464381 Eh   ::
         :::::::::::::::::::::::::::::::::::::::::::::::::::::

           -------------------------------------------------
          | TOTAL ENERGY              -95.148524487729 Eh   |
          | TOTAL ENTHALPY            -94.644349147904 Eh   |
          | TOTAL FREE ENERGY         -94.727631023349 Eh   |
          | GRADIENT NORM               0.000054835060 Eh/α |
           -------------------------------------------------

 * finished run on 2025/07/19 at 00:15:29.304
