   * xtb version 6.7.1 (edcfbbe) compiled by 'albert@albert-system' on 2024-07-22

   ID    Z sym.   atoms
    1    6 C      1-4, 6-24, 26-38
    2    7 N      5, 25
    3    1 H      39-62

          program call               : xtb data2507/gas/oCBP/oCBP_gas_T1_crest.xyz --gfn 2 --spinpol --tblite --uhf 2 --ohess vtight --parallel 40 --molden --ceasefiles --namespace data2507/gas/oCBP/oCBP_gas_T1_finalOpt
 * total energy  :   -95.1485117 Eh     change        0.4444013E-07 Eh
 * total energy  :   -95.1485155 Eh     change       -0.3765098E-05 Eh
 * total energy  :   -95.1485186 Eh     change       -0.3058968E-05 Eh
 * total energy  :   -95.1485208 Eh     change       -0.2210055E-05 Eh
 * total energy  :   -95.1485226 Eh     change       -0.1783811E-05 Eh
 * total energy  :   -95.1485234 Eh     change       -0.8830106E-06 Eh
 * total energy  :   -95.1485236 Eh     change       -0.1843189E-06 Eh
 * total energy  :   -95.1485241 Eh     change       -0.4281322E-06 Eh
 * total energy  :   -95.1485249 Eh     change       -0.8497132E-06 Eh
 * total energy  :   -95.1485254 Eh     change       -0.4629996E-06 Eh
 * total energy  :   -95.1485258 Eh     change       -0.3971436E-06 Eh
 * total energy  :   -95.1485262 Eh     change       -0.4783097E-06 Eh
 * total energy  :   -95.1485266 Eh     change       -0.3334373E-06 Eh
 * total energy  :   -95.1485268 Eh     change       -0.1907194E-06 Eh
 * total energy  :   -95.1485270 Eh     change       -0.1948295E-06 Eh
 * total energy  :   -95.1485271 Eh     change       -0.1289326E-06 Eh
 * total energy  :   -95.1485272 Eh     change       -0.8752004E-07 Eh
   *** GEOMETRY OPTIMIZATION CONVERGED AFTER 17 ITERATIONS ***

 final structure:
================
62
 xtb: 6.7.1 (edcfbbe)
C            3.65328558672410       -2.05094023850746       -1.95410461296711
C            2.55171896038654       -2.17625546267685       -2.79947488837451
C            1.42625638917272       -1.41470618446490       -2.55744786422059
C            1.36340296880864       -0.54351702266812       -1.47486299362399
N            0.21848836639488        0.25216114359771       -1.33497095095075
C           -1.08038264323109       -0.20181338887262       -1.45405366388039
C           -1.55005016656574       -1.50353825323189       -1.54525171297913
C           -2.92992680975110       -1.68833383435120       -1.63795504844995
C           -3.80147114987050       -0.61048341553716       -1.61383814869448
C           -3.33938058998150        0.69522430431987       -1.49629612085114
C           -1.96673409712061        0.90323485904003       -1.40230799915996
C           -1.15670419839062        2.07007465318256       -1.24450933276342
C           -1.43839091996500        3.43193226459701       -1.16682671833710
C           -0.38543876762548        4.32019370291506       -1.07220618513826
C            0.93904695873877        3.87998492146397       -1.08645867105725
C            1.24672888234689        2.53108346299924       -1.17850776851645
C            0.19759419152690        1.62803115085143       -1.22869859210243
C            2.46572227014740       -0.42461606328686       -0.59010644151584
C            2.46501022713210        0.41746612571016        0.59851715595825
C            3.60455025958984        1.18013450147827        0.89483665449788
C            3.65267775833409        2.04081694557330        1.96592747877850
C            2.54844040440766        2.17002447451554        2.80722654186571
C            1.42157213852292        1.41168476211081        2.56168887855368
C            1.35997645769767        0.54003745550585        1.47940362259068
N            0.21348476039383       -0.25270039122114        1.33598644958845
C            0.18970336536077       -1.62856133548824        1.23013621537711
C            1.23690597755605       -2.53410051211059        1.18463868220386
C            0.92641456867267       -3.88233132758648        1.09216407070194
C           -0.39903952949258       -4.31940874873184        1.07279226435773
C           -1.45026974830282       -3.42859887278645        1.16268529505041
C           -1.16567388406852       -2.06737786396827        1.24085018598346
C           -1.97351147862399       -0.89853635935518        1.39518123944185
C           -3.34600738855307       -0.68723680817284        1.48386112819289
C           -3.80542652758693        0.61959102463531        1.59948562224180
C           -2.93139450082912        1.69534207108670        1.62695677061540
C           -1.55162700047938        1.50725032642266        1.53950324506318
C           -1.08470391042410        0.20439879066908        1.45013141405706
C            3.60394629124284       -1.19067498035905       -0.88273748976347
H            4.54433283945922       -2.63177006292075       -2.13926858913859
H            2.58309067604119       -2.84463076984010       -3.64538362517455
H            0.58873873869231       -1.45503373032439       -3.23872977722500
H           -0.87816152397923       -2.34721895240921       -1.56194865623334
H           -3.31861529251347       -2.69154387530626       -1.71846379210873
H           -4.86413448124233       -0.78952593457337       -1.68879340254142
H           -4.02414625528823        1.52780480358957       -1.47692203147682
H           -2.46053471039705        3.77738399918075       -1.17899342051342
H           -0.58495592551799        5.37973139415872       -1.00425956743289
H            1.73977699913127        4.60156604157092       -1.03849404317314
H            2.27305148448887        2.20717115482851       -1.22912236215280
H            4.45402728819641        1.11148869779985        0.23022832327487
H            4.54484028397732        2.61900004189730        2.15398964560962
H            2.57880765157786        2.83886943471290        3.65280176834045
H            0.58180384609812        1.45487879310462        3.24001477117976
H            2.26376974547807       -2.21253722456855        1.23916444647954
H            1.72561675496818       -4.60583989658119        1.04788430393333
H           -0.60079156872771       -5.37851020720275        1.00470134530264
H           -2.47325699215042       -3.77165465839099        1.17100708781218
H           -4.03268829305600       -1.51817218097721        1.46188925631283
H           -4.86793875672018        0.80117998807847        1.67031438367013
H           -3.31798765321598        2.69948204510359        1.70596797359513
H           -0.87779012443084        2.34931809988794        1.55879790143952
H            4.45126538293489       -1.12496662231554       -0.21508137505270

 projected vibrational frequencies (cm⁻¹)
eigval :       -0.00    -0.00    -0.00    -0.00     0.00     0.00
eigval :       28.18    43.56    49.66    61.38    80.70    80.88
eigval :       90.82    90.88    99.90   132.17   132.73   143.16
eigval :      162.16   167.65   171.05   190.04   198.82   235.98
eigval :      237.09   269.02   270.62   290.66   297.28   297.38
eigval :      359.31   359.58   384.84   390.09   395.34   417.05
eigval :      419.78   430.14   432.39   438.73   453.46   459.61
eigval :      502.27   509.23   509.93   514.17   517.50   519.57
eigval :      550.47   552.52   574.86   575.05   578.06   596.13
eigval :      603.05   606.40   606.87   656.56   657.62   661.47
eigval :      674.83   684.72   686.82   695.30   708.21   744.17
eigval :      750.61   752.22   754.64   755.36   755.49   757.81
eigval :      760.87   768.77   831.84   832.23   849.37   849.82
eigval :      861.57   869.97   881.10   881.45   885.00   885.26
eigval :      890.98   891.73   900.61   902.11   905.51   905.53
eigval :      905.94   908.71   910.64   914.42   914.56   919.93
eigval :      990.54  1000.24  1003.38  1055.92  1061.93  1062.04
eigval :     1067.45  1082.23  1084.46  1091.94  1103.37  1124.60
eigval :     1124.79  1132.27  1139.87  1161.79  1167.42  1172.35
eigval :     1173.06  1174.45  1174.82  1181.84  1188.17  1216.53
eigval :     1219.16  1220.59  1230.02  1238.62  1243.92  1265.62
eigval :     1270.18  1270.48  1272.07  1295.59  1307.17  1312.62
eigval :     1324.62  1325.20  1338.54  1346.57  1376.70  1377.87
eigval :     1383.94  1386.05  1395.78  1398.33  1404.31  1413.06
eigval :     1417.00  1439.36  1440.56  1443.38  1467.68  1467.89
eigval :     1478.17  1482.30  1499.18  1502.92  1507.33  1507.51
eigval :     1536.07  1543.12  1549.96  1553.14  1553.85  1589.14
eigval :     3070.60  3074.42  3077.11  3077.17  3077.23  3078.26
eigval :     3079.33  3079.45  3086.62  3087.51  3091.21  3091.22
eigval :     3091.81  3092.17  3096.96  3097.13  3100.12  3100.46
eigval :     3100.77  3101.15  3102.52  3104.57  3115.74  3115.99

   temp. (K)  partition function   enthalpy   heat capacity  entropy
                                   cal/mol     cal/K/mol   cal/K/mol   J/K/mol
 298.15  VIB  0.102E+11            16169.913    112.583     96.112
         ROT  0.880E+07              888.752      2.981     34.757
         INT  0.895E+17            17058.666    115.564    130.869
         TR   0.103E+29             1481.254      4.968     44.402
         TOT                       18539.9196   120.5318   175.2706   733.3321

       T/K    H(0)-H(T)+PV         H(T)/Eh          T*S/Eh         G(T)/Eh
   ------------------------------------------------------------------------
    298.15    0.295452E-01    0.504139E+00    0.832767E-01    0.420862E+00
   ------------------------------------------------------------------------

         :::::::::::::::::::::::::::::::::::::::::::::::::::::
         ::                  THERMODYNAMIC                  ::
         :::::::::::::::::::::::::::::::::::::::::::::::::::::
         :: total free energy         -94.727665026368 Eh   ::
         ::.................................................::
         :: total energy              -95.148527201644 Eh   ::
         :: zero point energy           0.474593637322 Eh   ::
         :: G(RRHO) w/o ZPVE           -0.053731462045 Eh   ::
         :: G(RRHO) contrib.            0.420862175276 Eh   ::
         :::::::::::::::::::::::::::::::::::::::::::::::::::::

           -------------------------------------------------
          | TOTAL ENERGY              -95.148527201644 Eh   |
          | TOTAL ENTHALPY            -94.644388321777 Eh   |
          | TOTAL FREE ENERGY         -94.727665026368 Eh   |
          | GRADIENT NORM               0.000058405998 Eh/α |
           -------------------------------------------------

 * finished run on 2025/07/19 at 00:18:38.965
