   * xtb version 6.7.1 (edcfbbe) compiled by 'albert@albert-system' on 2024-07-22

   ID    Z sym.   atoms
    1    7 N      1, 10, 31, 36
    2    6 C      2-9, 11-16, 18-30, 32-35, 37, 38
    3    8 O      17
    4    1 H      39-56

          program call               : xtb data2507/gas/mPTBC/mPTBC.xyz --gfn 2 --ohess vtight --parallel 40 --molden --ceasefiles --namespace data2507/gas/mPTBC/mPTBC_gas_S0_preOpt
          :  Hamiltonian                  GFN2-xTB          :
 * total energy  :   -95.4872246 Eh     change       -0.5677904E-08 Eh
 * total energy  :   -95.4969651 Eh     change       -0.9740479E-02 Eh
 * total energy  :   -95.4996506 Eh     change       -0.2685458E-02 Eh
 * total energy  :   -95.5005590 Eh     change       -0.9084119E-03 Eh
 * total energy  :   -95.5009638 Eh     change       -0.4048478E-03 Eh
 * total energy  :   -95.5011271 Eh     change       -0.1633132E-03 Eh
 * total energy  :   -95.5012785 Eh     change       -0.1513252E-03 Eh
 * total energy  :   -95.5014671 Eh     change       -0.1886336E-03 Eh
 * total energy  :   -95.5017387 Eh     change       -0.2716112E-03 Eh
 * total energy  :   -95.5021116 Eh     change       -0.3729211E-03 Eh
 * total energy  :   -95.5065159 Eh     change       -0.8269396E-06 Eh
 * total energy  :   -95.5065167 Eh     change       -0.8020113E-06 Eh
 * total energy  :   -95.5065175 Eh     change       -0.7852105E-06 Eh
 * total energy  :   -95.5065182 Eh     change       -0.7630366E-06 Eh
 * total energy  :   -95.5065190 Eh     change       -0.7506234E-06 Eh
 * total energy  :   -95.5065197 Eh     change       -0.7309035E-06 Eh
 * total energy  :   -95.5065204 Eh     change       -0.7216991E-06 Eh
 * total energy  :   -95.5065211 Eh     change       -0.7063146E-06 Eh
 * total energy  :   -95.5065211 Eh     change       -0.8244200E-08 Eh
   *** GEOMETRY OPTIMIZATION CONVERGED AFTER 300 ITERATIONS ***

 final structure:
================
56
 xtb: 6.7.1 (edcfbbe)
N           -4.64368360113521        7.12510920443904        0.63709449640843
C           -4.08656283121775        6.12691157417231        0.55443154218426
C           -3.39175322602029        4.89931164059788        0.45371230528239
C           -2.32844921394978        4.77380877193995       -0.44112873647629
C           -1.65061858107555        3.57648334323243       -0.53375381787656
C           -2.02385447946620        2.48656589292635        0.25169193581754
C           -1.29259583702151        1.21531643518542        0.13601434891662
C            0.09394020906641        1.20904593309356        0.14899977977007
C            0.80148497949943        0.01633935671580        0.02431880539318
N            2.20498607216597        0.02163788164944        0.03152970262131
C            2.91539656048754        0.49062887643593        1.14377487274474
C            2.28315385648833        0.92835299898069        2.30038086072506
C            3.01893061690259        1.37808975263261        3.38617580388876
C            4.39816083397240        1.38598658815643        3.33904821274446
C            5.04517319831106        0.91890648418121        2.20537150170460
C            4.31590523094719        0.46693542322138        1.12068518860677
O            5.02843904700250       -0.01523445799619        0.05274926910542
C            4.32054326650505       -0.47597068379821       -1.02704611042862
C            5.05346422435942       -0.94464045683236       -2.10228559436427
C            4.41122624563842       -1.39127650502245       -3.24687874306160
C            3.03357923321667       -1.34494778970226       -3.31520300280535
C            2.29438282675726       -0.87849655476546       -2.23888253111284
C            2.92052367043325       -0.46274058470505       -1.07063806185281
C            0.10998847672533       -1.18481854822644       -0.11243271697773
C           -1.27573506958939       -1.20945597353862       -0.12851723694994
C           -1.98575005092984       -2.49036349745188       -0.26294073293561
C           -1.58980435763686       -3.40570017929192       -1.23758063462121
C           -2.24360733011476       -4.61207176951669       -1.37502744288813
C           -3.30507604118824       -4.92446587935105       -0.52485929460528
C           -3.97329070832422       -6.16374249215873       -0.65734057129815
N           -4.50877268146907       -7.17153688648018       -0.76329428905024
C           -3.70103114385594       -4.01879131281396        0.45956136667226
C           -3.04414712902778       -2.81242212606305        0.58502904688559
C           -1.98241958329689       -0.00013063866706       -0.01049273381810
C           -3.38864015888949        0.00633701940061       -0.14842006870670
N           -4.52606412988721        0.01691249794816       -0.29917300114336
C           -3.08351779211660        2.62211084655172        1.14693633265868
C           -3.76440658916825        3.81725689933926        1.25138343402952
H           -2.04518662693329        5.61454179231158       -1.05685249747453
H           -0.83744237421543        3.47304052817520       -1.23720866977359
H            0.63211521215146        2.13882857804597        0.25860795058620
H            1.20632422320659        0.90912267306229        2.36311456655117
H            2.50002334464089        1.71672222061440        4.26946285214564
H            4.97501570191975        1.73865137798914        4.17899788476836
H            6.12107740539138        0.88930583775221        2.14338328707028
H            6.12871142558044       -0.94465271721284       -2.02422404730729
H            4.99082001376948       -1.75753994952283       -4.07907945899578
H            2.51953296347510       -1.66527901127042       -4.20823843599127
H            1.21949777568209       -0.82605964353626       -2.31775455588849
H            0.66246946013463       -2.11013299446482       -0.18107726522904
H           -0.77627808218836       -3.15848931975211       -1.90398434341739
H           -1.94197263673346       -5.31690579832392       -2.13554636716360
H           -4.51930694307331       -4.26777455012216        1.11822802710333
H           -3.34361339655462       -2.12099616956274        1.35821426653644
H           -3.36660582129198        1.79114787963502        1.77550264442327
H           -4.58467765805652        3.92122718173749        1.94546167686570

          :  Hamiltonian                  GFN2-xTB          :
         :: gradient norm              0.000071415393 Eh/a0 ::
         :: HOMO-LUMO gap              1.543224164693 eV    ::
         :: SCC energy               -97.342284005506 Eh    ::
         :: -> dispersion             -0.077828721057 Eh    ::
         :: repulsion energy           1.835762861281 Eh    ::

    * Orbital Energies and Occupations

         #    Occupation            Energy/Eh            Energy/eV
      -------------------------------------------------------------
         1        2.0000           -0.7417086             -20.1829
       ...           ...                  ...                  ...
        76        2.0000           -0.4417362             -12.0203
        77        2.0000           -0.4401021             -11.9758
        78        2.0000           -0.4394850             -11.9590
        79        2.0000           -0.4391263             -11.9492
        80        2.0000           -0.4344306             -11.8215
        81        2.0000           -0.4295621             -11.6890
        82        2.0000           -0.4285866             -11.6624
        83        2.0000           -0.4281308             -11.6500
        84        2.0000           -0.4270938             -11.6218
        85        2.0000           -0.4242701             -11.5450
        86        2.0000           -0.4206700             -11.4470
        87        2.0000           -0.4043569             -11.0031
        88        2.0000           -0.3591899              -9.7741 (HOMO)
        89                         -0.3024774              -8.2308 (LUMO)
        90                         -0.2959138              -8.0522
        91                         -0.2755280              -7.4975
        92                         -0.2569850              -6.9929
        93                         -0.2563682              -6.9761
        94                         -0.2536034              -6.9009
        95                         -0.2521543              -6.8615
        96                         -0.2435840              -6.6283
        97                         -0.2298154              -6.2536
        98                         -0.2199091              -5.9840
        99                         -0.2137799              -5.8172
       ...                                ...                  ...
       170                          1.1645455              31.6889
      -------------------------------------------------------------
                  HL-Gap            0.0567124 Eh            1.5432 eV

     #   Z          covCN         q      C6AA      α(0)
     1   7 N        0.911    -0.225    25.907     7.361
     2   6 C        1.912     0.113    28.314     8.593
     3   6 C        2.974     0.023    27.483     8.599
     4   6 C        2.925    -0.019    28.473     8.751
     5   6 C        2.924    -0.029    28.726     8.789
     6   6 C        2.978     0.017    27.626     8.622
     7   6 C        2.982     0.018    27.612     8.620
     8   6 C        2.926    -0.047    29.175     8.858
     9   6 C        2.917     0.073    26.364     8.420
    10   7 N        2.752    -0.070    22.605     7.061
    11   6 C        2.921     0.041    27.074     8.533
    12   6 C        2.924    -0.059    29.466     8.902
    13   6 C        2.919    -0.038    28.941     8.822
    14   6 C        2.919    -0.038    28.938     8.821
    15   6 C        2.920    -0.055    29.355     8.885
    16   6 C        2.884     0.126    25.234     8.235
    17   8 O        1.709    -0.251    18.153     5.753
    18   6 C        2.884     0.126    25.229     8.235
    19   6 C        2.920    -0.055    29.356     8.885
    20   6 C        2.919    -0.038    28.940     8.822
    21   6 C        2.919    -0.038    28.949     8.823
    22   6 C        2.924    -0.059    29.468     8.902
    23   6 C        2.922     0.041    27.076     8.533
    24   6 C        2.927    -0.047    29.174     8.858
    25   6 C        2.982     0.017    27.614     8.620
    26   6 C        2.978     0.017    27.626     8.622
    27   6 C        2.924    -0.029    28.723     8.789
    28   6 C        2.925    -0.019    28.476     8.751
    29   6 C        2.974     0.023    27.483     8.599
    30   6 C        1.912     0.113    28.314     8.593
    31   7 N        0.911    -0.224    25.906     7.361
    32   6 C        2.925    -0.016    28.422     8.743
    33   6 C        2.923    -0.024    28.611     8.772
    34   6 C        2.978     0.002    27.982     8.677
    35   6 C        1.911     0.114    28.299     8.591
    36   7 N        0.911    -0.242    26.305     7.418
    37   6 C        2.923    -0.024    28.613     8.772
    38   6 C        2.925    -0.017    28.423     8.743
    39   1 H        0.926     0.048     2.351     2.398
    40   1 H        0.926     0.041     2.430     2.438
    41   1 H        0.926     0.049     2.329     2.386
    42   1 H        0.926     0.032     2.554     2.499
    43   1 H        0.926     0.039     2.464     2.455
    44   1 H        0.926     0.042     2.416     2.431
    45   1 H        0.926     0.054     2.266     2.354
    46   1 H        0.926     0.054     2.267     2.354
    47   1 H        0.926     0.042     2.416     2.431
    48   1 H        0.926     0.038     2.470     2.458
    49   1 H        0.926     0.031     2.572     2.508
    50   1 H        0.926     0.049     2.334     2.389
    51   1 H        0.926     0.041     2.431     2.438
    52   1 H        0.926     0.048     2.351     2.398
    53   1 H        0.926     0.051     2.311     2.377
    54   1 H        0.926     0.043     2.409     2.427
    55   1 H        0.926     0.043     2.413     2.429
    56   1 H        0.926     0.051     2.311     2.377

molecular dipole:
                 x           y           z       tot (Debye)
 q only:        1.946       0.003       0.193
   full:        2.737       0.006       0.234       6.982

 projected vibrational frequencies (cm⁻¹)
eigval :       -0.00     0.00     0.00     0.00     0.00     0.00
eigval :       16.67    20.30    21.82    28.17    33.08    41.09
eigval :       46.69    54.68    68.65    86.59    98.46   112.42
eigval :      115.55   124.50   137.71   148.35   155.15   165.42
eigval :      197.47   210.69   244.62   249.41   259.67   269.32
eigval :      276.81   285.35   289.67   322.37   328.07   367.96
eigval :      368.42   382.96   392.18   419.79   430.32   434.89
eigval :      442.40   463.60   488.28   493.05   502.36   509.39
eigval :      522.03   527.07   532.39   534.54   541.11   548.91
eigval :      572.01   578.89   584.90   606.55   610.59   630.69
eigval :      636.66   643.49   660.06   661.56   674.49   695.79
eigval :      700.25   710.41   729.09   768.52   779.17   779.68
eigval :      788.05   816.67   819.17   826.09   856.09   857.57
eigval :      862.94   865.45   868.50   868.96   876.76   896.28
eigval :      901.37   907.78   916.25   916.42   917.02   918.82
eigval :      919.41   926.14   926.40   968.73  1014.32  1018.40
eigval :     1061.15  1090.96  1092.14  1109.48  1123.25  1136.35
eigval :     1138.01  1164.76  1168.23  1175.62  1185.37  1187.73
eigval :     1188.71  1202.98  1208.89  1216.17  1225.42  1237.60
eigval :     1243.57  1253.39  1262.36  1265.68  1266.69  1277.52
eigval :     1308.52  1311.29  1313.74  1314.70  1335.47  1343.88
eigval :     1370.20  1390.96  1392.40  1416.76  1426.46  1436.39
eigval :     1445.88  1484.78  1485.30  1486.80  1502.72  1530.84
eigval :     1550.81  1552.83  1564.06  1569.04  1580.62  1590.16
eigval :     1590.47  1591.52  1602.38  2360.47  2376.41  2377.12
eigval :     3081.67  3082.88  3089.14  3089.50  3089.96  3091.28
eigval :     3093.96  3094.62  3095.97  3096.22  3098.62  3100.19
eigval :     3101.10  3101.44  3106.01  3107.00  3115.91  3116.43

   temp. (K)  partition function   enthalpy   heat capacity  entropy
                                   cal/mol     cal/K/mol   cal/K/mol   J/K/mol
 298.15  VIB  0.492E+14            17661.173    108.559    109.711
         ROT  0.469E+08              888.752      2.981     38.082
         INT  0.230E+22            18549.925    111.540    147.793
         TR   0.104E+29             1481.254      4.968     44.414
         TOT                       20031.1794   116.5085   192.2069   804.1936

       T/K    H(0)-H(T)+PV         H(T)/Eh          T*S/Eh         G(T)/Eh
   ------------------------------------------------------------------------
    298.15    0.319217E-01    0.436578E+00    0.913237E-01    0.345255E+00
   ------------------------------------------------------------------------

         :::::::::::::::::::::::::::::::::::::::::::::::::::::
         ::                  THERMODYNAMIC                  ::
         :::::::::::::::::::::::::::::::::::::::::::::::::::::
         :: total free energy         -95.161266599473 Eh   ::
         ::.................................................::
         :: total energy              -95.506521144225 Eh   ::
         :: zero point energy           0.404656515473 Eh   ::
         :: G(RRHO) w/o ZPVE           -0.059401970722 Eh   ::
         :: G(RRHO) contrib.            0.345254544751 Eh   ::
         :::::::::::::::::::::::::::::::::::::::::::::::::::::

           -------------------------------------------------
          | TOTAL ENERGY              -95.506521144225 Eh   |
          | TOTAL ENTHALPY            -95.069942912463 Eh   |
          | TOTAL FREE ENERGY         -95.161266599473 Eh   |
          | GRADIENT NORM               0.000071402907 Eh/α |
          | HOMO-LUMO GAP               1.543223710841 eV   |
           -------------------------------------------------

 * finished run on 2025/08/21 at 15:55:46.978
