   * xtb version 6.7.1 (edcfbbe) compiled by 'albert@albert-system' on 2024-07-22

   ID    Z sym.   atoms
    1    7 N      1, 10, 31, 36
    2    6 C      2-9, 11-16, 18-30, 32-35, 37, 38
    3    8 O      17
    4    1 H      39-56

          program call               : xtb data2507/gas/mPTBC/mPTBC_gas_T1_crest.xyz --gfn 2 --spinpol --tblite --uhf 2 --ohess vtight --parallel 40 --molden --ceasefiles --namespace data2507/gas/mPTBC/mPTBC_gas_T1_finalOpt
 * total energy  :   -95.4238887 Eh     change       -0.2353318E-10 Eh
 * total energy  :   -95.4238921 Eh     change       -0.3432763E-05 Eh
 * total energy  :   -95.4238916 Eh     change        0.4531601E-06 Eh
 * total energy  :   -95.4238955 Eh     change       -0.3850670E-05 Eh
 * total energy  :   -95.4238964 Eh     change       -0.9050242E-06 Eh
 * total energy  :   -95.4238970 Eh     change       -0.6119307E-06 Eh
 * total energy  :   -95.4238977 Eh     change       -0.6509968E-06 Eh
 * total energy  :   -95.4238979 Eh     change       -0.2799270E-06 Eh
 * total energy  :   -95.4238981 Eh     change       -0.1943173E-06 Eh
 * total energy  :   -95.4238983 Eh     change       -0.1311414E-06 Eh
 * total energy  :   -95.4238983 Eh     change        0.7241312E-08 Eh
 * total energy  :   -95.4238983 Eh     change       -0.9172462E-07 Eh
   *** GEOMETRY OPTIMIZATION CONVERGED AFTER 12 ITERATIONS ***

 final structure:
================
56
 xtb: 6.7.1 (edcfbbe)
N           -3.13791169468930        7.74644773129893       -0.85339373679315
C           -2.77092110986154        6.66766279640762       -0.71310108618053
C           -2.30677521855800        5.34751108326942       -0.54523625417244
C           -2.95830782258417        4.28321647580504       -1.17640578865233
C           -2.49673217372556        2.99755021123502       -1.01018623317331
C           -1.37455137152276        2.73513371066124       -0.21733000514035
C           -0.87050318228676        1.37468270498352       -0.04770721778654
C            0.48935843187962        1.13935842822201       -0.07510269973987
C            0.99162614993427       -0.15966758792365        0.03282124662659
N            2.38928535290463       -0.37448135749199       -0.02184502206518
C            3.20182960636507        0.16699574646564        0.94629127032187
C            2.70410615355302        0.87949079751552        2.04725660353820
C            3.55779236671278        1.41422278028226        2.97902628990233
C            4.94954947272399        1.24833583323311        2.85613751358577
C            5.46492012837797        0.51808919366716        1.80971174123470
C            4.61550293823350       -0.03552817530879        0.85674561988234
O            5.16131855119123       -0.78017926876622       -0.12833487447538
C            4.35289900019875       -1.32267435023820       -1.06358159559641
C            4.93520429576130       -2.08221235927754       -2.07379440174848
C            4.15611486990779       -2.61930812056868       -3.07290859355545
C            2.77034586810498       -2.37841801992768       -3.08954842931322
C            2.17689178905699       -1.63475904685419       -2.10041965956145
C            2.93773177855580       -1.11133470010022       -1.04509149298913
C            0.12191462284666       -1.24697854313269        0.16118415207096
C           -1.24378607952340       -1.05425428345485        0.20227687443611
C           -2.13952300035493       -2.20563389891339        0.30652331862383
C           -1.83243492028736       -3.26461908043550        1.16725031919489
C           -2.66052098318325       -4.35947134185314        1.26464097347907
C           -3.82216585251359       -4.42557704641858        0.48957363083708
C           -4.66658889651591       -5.55097975715668        0.57981318207181
N           -5.34458161734821       -6.47468853192158        0.64950154138319
C           -4.13520120421509       -3.37568933158805       -0.37882088884546
C           -3.30396349657305       -2.28178321791582       -0.46363728643828
C           -1.75948230450194        0.27340746296508        0.13369914209246
C           -3.11651754085232        0.50507412151950        0.36849310103418
N           -4.22917657529895        0.69888603477082        0.60620609566703
C           -0.72566372032353        3.80903035863040        0.40357421827291
C           -1.18338629934607        5.09709979113790        0.24909317888222
H           -3.82203568501878        4.47877476120676       -1.79412191628160
H           -2.99622794331549        2.18529551546040       -1.51573094622754
H            1.17654859321522        1.95642809070691       -0.23985721875335
H            1.63790015961748        0.99608997906184        2.15889127721285
H            3.15875257838564        1.96069992337992        3.81817908000476
H            5.60855394331429        1.67907192411718        3.59175217107628
H            6.52484855800978        0.35127825547094        1.70356848482331
H            6.00348049276044       -2.22617203658579       -2.04937413427556
H            4.60793665020466       -3.20917322769651       -3.85323197834754
H            2.17008802166146       -2.77576245957005       -3.89184154243716
H            1.11681790427185       -1.44052172679141       -2.13172505210975
H            0.53003308117574       -2.24534831802215        0.21933552928279
H           -0.94804550571695       -3.20911725297597        1.78565971124942
H           -2.42413297303221       -5.16893761799544        1.93988387277157
H           -5.03016156725321       -3.43056136045560       -0.98038330614940
H           -3.54556391393456       -1.48361761582165       -1.14890736637849
H            0.12974700470595        3.62147620782536        1.03696787120827
H           -0.68525083119399        5.91989796466249        0.74102804652057

 projected vibrational frequencies (cm⁻¹)
eigval :       -0.00    -0.00     0.00     0.00     0.00     0.00
eigval :       13.53    20.51    22.21    27.29    31.75    41.76
eigval :       46.92    66.86    71.14    88.09    99.00   102.20
eigval :      118.27   124.15   135.99   148.48   153.66   163.66
eigval :      198.28   207.50   234.36   247.11   255.59   263.05
eigval :      273.13   283.92   302.15   321.58   344.54   369.56
eigval :      370.81   378.22   396.17   408.90   411.84   424.41
eigval :      441.94   453.76   462.28   473.31   486.46   492.72
eigval :      497.75   521.37   527.53   533.85   536.42   538.95
eigval :      567.01   571.68   572.30   591.01   606.42   611.28
eigval :      622.00   634.72   635.42   646.68   651.62   679.85
eigval :      690.23   691.06   728.23   753.68   755.66   758.93
eigval :      777.67   809.63   812.20   820.47   842.71   848.13
eigval :      853.01   858.22   858.68   860.10   863.31   873.26
eigval :      893.45   895.30   896.27   901.70   901.81   913.12
eigval :      913.56   921.52   922.15   939.21  1001.13  1008.95
eigval :     1048.33  1052.16  1057.76  1095.77  1122.15  1137.19
eigval :     1139.87  1144.61  1154.82  1161.97  1168.48  1173.72
eigval :     1187.15  1192.28  1202.03  1222.96  1228.98  1234.98
eigval :     1245.49  1245.94  1251.34  1251.74  1267.66  1269.35
eigval :     1297.54  1305.48  1307.53  1318.30  1319.59  1341.39
eigval :     1354.67  1361.72  1370.86  1380.68  1385.12  1399.54
eigval :     1404.68  1410.42  1422.55  1428.70  1456.61  1464.96
eigval :     1468.69  1481.38  1486.69  1489.17  1522.66  1526.93
eigval :     1534.14  1572.22  1587.38  2270.49  2348.88  2355.68
eigval :     3071.35  3074.19  3083.16  3084.57  3088.27  3088.87
eigval :     3089.35  3089.62  3099.96  3100.89  3103.24  3104.44
eigval :     3107.87  3108.34  3113.55  3114.58  3119.87  3120.87

   temp. (K)  partition function   enthalpy   heat capacity  entropy
                                   cal/mol     cal/K/mol   cal/K/mol   J/K/mol
 298.15  VIB  0.650E+14            17885.979    110.474    111.032
         ROT  0.468E+08              888.752      2.981     38.080
         INT  0.304E+22            18774.731    113.455    149.112
         TR   0.104E+29             1481.254      4.968     44.414
         TOT                       20255.9849   118.4230   193.5257   809.7117

       T/K    H(0)-H(T)+PV         H(T)/Eh          T*S/Eh         G(T)/Eh
   ------------------------------------------------------------------------
    298.15    0.322800E-01    0.432054E+00    0.919503E-01    0.340104E+00
   ------------------------------------------------------------------------

         :::::::::::::::::::::::::::::::::::::::::::::::::::::
         ::                  THERMODYNAMIC                  ::
         :::::::::::::::::::::::::::::::::::::::::::::::::::::
         :: total free energy         -95.083794337177 Eh   ::
         ::.................................................::
         :: total energy              -95.423898345675 Eh   ::
         :: zero point energy           0.399774365388 Eh   ::
         :: G(RRHO) w/o ZPVE           -0.059670356891 Eh   ::
         :: G(RRHO) contrib.            0.340104008497 Eh   ::
         :::::::::::::::::::::::::::::::::::::::::::::::::::::

           -------------------------------------------------
          | TOTAL ENERGY              -95.423898345675 Eh   |
          | TOTAL ENTHALPY            -94.991844013676 Eh   |
          | TOTAL FREE ENERGY         -95.083794337177 Eh   |
          | GRADIENT NORM               0.000108239546 Eh/α |
           -------------------------------------------------

 * finished run on 2025/08/21 at 16:01:44.492
