   * xtb version 6.7.1 (edcfbbe) compiled by 'albert@albert-system' on 2024-07-22

   ID    Z sym.   atoms
    1    7 N      1, 10, 31, 36
    2    6 C      2-9, 11-16, 18-30, 32-35, 37, 38
    3    8 O      17
    4    1 H      39-56

          program call               : xtb data2507/gas/mPTBC/mPTBC_gas_S0_finalOpt.xtbopt.xyz --gfn 2 --spinpol --tblite --uhf 2 --ohess vtight --parallel 40 --molden --ceasefiles --namespace data2507/gas/mPTBC/mPTBC_gas_T1_preOpt
 * total energy  :   -95.4177364 Eh     change        0.3113844E-07 Eh
 * total energy  :   -95.4220471 Eh     change       -0.4310701E-02 Eh
 * total energy  :   -95.4229994 Eh     change       -0.9523001E-03 Eh
 * total energy  :   -95.4231064 Eh     change       -0.1070100E-03 Eh
 * total energy  :   -95.4231880 Eh     change       -0.8156346E-04 Eh
 * total energy  :   -95.4232627 Eh     change       -0.7472933E-04 Eh
 * total energy  :   -95.4232922 Eh     change       -0.2949428E-04 Eh
 * total energy  :   -95.4233466 Eh     change       -0.5437450E-04 Eh
 * total energy  :   -95.4233765 Eh     change       -0.2991809E-04 Eh
 * total energy  :   -95.4234048 Eh     change       -0.2828077E-04 Eh
 * total energy  :   -95.4235603 Eh     change       -0.4302438E-06 Eh
 * total energy  :   -95.4235607 Eh     change       -0.4580250E-06 Eh
 * total energy  :   -95.4235612 Eh     change       -0.4707989E-06 Eh
 * total energy  :   -95.4235617 Eh     change       -0.5029128E-06 Eh
 * total energy  :   -95.4235621 Eh     change       -0.4151379E-06 Eh
 * total energy  :   -95.4235625 Eh     change       -0.3756111E-06 Eh
 * total energy  :   -95.4235628 Eh     change       -0.3009981E-06 Eh
 * total energy  :   -95.4235630 Eh     change       -0.2434148E-06 Eh
 * total energy  :   -95.4235631 Eh     change       -0.3124818E-07 Eh
   *** GEOMETRY OPTIMIZATION CONVERGED AFTER 44 ITERATIONS ***

 final structure:
================
56
 xtb: 6.7.1 (edcfbbe)
N           -4.10318985862708        7.28529346713385       -0.96722311077030
C           -3.60629986266383        6.25963935771908       -0.82974080434398
C           -2.98329832693188        5.00608020471596       -0.66174006705204
C           -3.43182557034613        3.89194797842337       -1.37712990538382
C           -2.81854844104137        2.67094865782497       -1.20725193336255
C           -1.74387307420269        2.52741954019664       -0.32503513320486
C           -1.07040084289843        1.24089037464592       -0.14402209123220
C            0.30808026385266        1.20160965389953       -0.11826048088320
C            0.98789443375324       -0.01487418303957        0.00117311636285
N            2.40039234997633       -0.03514000888822        0.00222902868818
C            3.09913246325328        0.64289712638975        0.97457162209181
C            2.47314671758655        1.31721270004956        2.03311550820337
C            3.21415061610230        2.00020556291940        2.96481845597875
C            4.61797921279781        2.02570299441245        2.88622796770148
C            5.26252198574497        1.33198191343894        1.88739416057501
C            4.52874175887273        0.63009650857025        0.93620360637860
O            5.20512341944919       -0.07533032282699        0.00433835217230
C            4.51020807090640       -0.76112459478258       -0.92854845669915
C            5.22500840486039       -1.48377310029172       -1.87863858406886
C            4.56236229480473       -2.15878509586255       -2.87844528087783
C            3.15995462326079       -2.09309209007191       -2.95913937412542
C            2.43742147849456       -1.38912098215669       -2.02854693814870
C            3.08087338256884       -0.73296403511469       -0.96906420733417
C            0.27324786187660       -1.21123326369193        0.11959379044394
C           -1.10586519201937       -1.21096354619147        0.14339706558622
C           -1.81623388962962       -2.47757680767084        0.32337095898028
C           -1.39818278354542       -3.61453192427847       -0.37730423766863
C           -2.04348152128674       -4.81964032272502       -0.22010407154370
C           -3.12681567762624       -4.91969928794425        0.65811274610331
C           -3.78578695329942       -6.15483355598509        0.82506963591897
N           -4.31212574794884       -7.16581555993459        0.96182012167631
C           -3.54452065016696       -3.79301382350339        1.37255724981311
C           -2.89620250404341       -2.59014369047757        1.20366622037160
C           -1.80478891572110        0.02530307579079       -0.00081056902141
C           -3.20012104482103        0.04544261903866       -0.00179242217328
N           -4.35481324040935        0.06223192585249       -0.00262722825390
C           -1.29467214524149        3.65179696568235        0.37659048685228
C           -1.90490790785849        4.87494321578482        0.21843217068685
H           -4.25935295888637        3.99678809541110       -2.06265923952406
H           -3.16058983843053        1.82132438436093       -1.77754828199467
H            0.87590231497866        2.11040064945732       -0.25503753623170
H            1.39838032874280        1.28545919715365        2.11379043246902
H            2.71637265889239        2.51551652284883        3.77030099696113
H            5.18737244948953        2.57175204386630        3.62011901246078
H            6.33825502590869        1.30670406475725        1.81901709564716
H            6.30092008176221       -1.48931525910798       -1.80864710823788
H            5.11698109465194       -2.72094253050422       -3.61148479536152
H            2.64883479353489       -2.59397291625635       -3.76536686444339
H            1.36412649654721       -1.32660687454616       -2.11082871581279
H            0.81451602769565       -2.13597494449471        0.25718121759815
H           -0.57445619098968       -3.53905206299519       -1.07313462762600
H           -1.72436044350016       -5.69049000086698       -0.77408081282069
H           -4.37596395153327       -3.87398865507537        2.05657405349671
H           -3.21477863125009       -1.73098109416365        1.77325257288448
H           -0.47469450908409        3.55265988887243        1.07388733251334
H           -1.56197295332733        5.73621653963935        0.77315609853160

 projected vibrational frequencies (cm⁻¹)
eigval :       -0.00    -0.00    -0.00     0.00     0.00     0.00
eigval :       13.81    19.22    22.02    26.78    31.56    44.41
eigval :       55.12    56.95    71.11    84.31    99.90   101.54
eigval :      119.50   122.76   143.30   151.24   158.32   164.26
eigval :      198.44   205.80   235.39   246.78   255.88   266.33
eigval :      275.25   287.61   304.01   308.73   346.01   370.91
eigval :      371.35   378.23   396.21   409.54   419.48   419.66
eigval :      448.43   455.25   458.80   477.39   482.88   493.04
eigval :      497.09   522.42   527.65   533.87   536.71   539.65
eigval :      566.24   571.08   572.43   589.37   604.34   613.43
eigval :      626.73   627.08   636.02   646.31   663.78   668.24
eigval :      690.90   693.29   728.09   754.13   754.50   759.23
eigval :      774.52   812.39   812.45   820.48   843.57   848.47
eigval :      852.82   857.68   858.98   862.55   865.05   870.33
eigval :      893.80   895.28   896.37   901.72   902.63   914.12
eigval :      914.89   923.38   923.52   937.83   999.17  1009.41
eigval :     1048.27  1053.52  1054.84  1087.51  1122.07  1138.42
eigval :     1139.80  1141.56  1153.73  1162.63  1168.42  1172.01
eigval :     1187.21  1192.15  1200.22  1220.99  1229.24  1233.57
eigval :     1244.78  1245.18  1250.45  1251.15  1268.04  1268.90
eigval :     1291.77  1303.34  1303.92  1317.54  1318.42  1341.48
eigval :     1354.26  1361.84  1370.40  1380.71  1381.05  1398.54
eigval :     1403.47  1410.32  1420.35  1428.12  1457.30  1464.53
eigval :     1468.26  1480.55  1486.15  1487.65  1524.09  1526.78
eigval :     1534.34  1570.22  1586.70  2261.12  2349.08  2355.73
eigval :     3070.06  3070.38  3082.63  3083.46  3088.15  3088.19
eigval :     3091.81  3091.89  3102.98  3103.01  3105.04  3105.26
eigval :     3107.89  3108.15  3113.48  3113.70  3119.95  3120.55

   temp. (K)  partition function   enthalpy   heat capacity  entropy
                                   cal/mol     cal/K/mol   cal/K/mol   J/K/mol
 298.15  VIB  0.630E+14            17870.105    110.518    111.004
         ROT  0.234E+08              888.752      2.981     36.702
         INT  0.147E+22            18758.857    113.499    147.706
         TR   0.104E+29             1481.254      4.968     44.414
         TOT                       20240.1111   118.4672   192.1193   803.8272

       T/K    H(0)-H(T)+PV         H(T)/Eh          T*S/Eh         G(T)/Eh
   ------------------------------------------------------------------------
    298.15    0.322547E-01    0.431961E+00    0.912821E-01    0.340679E+00
   ------------------------------------------------------------------------

         :::::::::::::::::::::::::::::::::::::::::::::::::::::
         ::                  THERMODYNAMIC                  ::
         :::::::::::::::::::::::::::::::::::::::::::::::::::::
         :: total free energy         -95.082884354622 Eh   ::
         ::.................................................::
         :: total energy              -95.423563061555 Eh   ::
         :: zero point energy           0.399706126683 Eh   ::
         :: G(RRHO) w/o ZPVE           -0.059027419750 Eh   ::
         :: G(RRHO) contrib.            0.340678706933 Eh   ::
         :::::::::::::::::::::::::::::::::::::::::::::::::::::

           -------------------------------------------------
          | TOTAL ENERGY              -95.423563061555 Eh   |
          | TOTAL ENTHALPY            -94.991602264780 Eh   |
          | TOTAL FREE ENERGY         -95.082884354622 Eh   |
          | GRADIENT NORM               0.000103599797 Eh/α |
           -------------------------------------------------

 * finished run on 2025/08/21 at 15:58:12.052
