   * xtb version 6.7.1 (edcfbbe) compiled by 'albert@albert-system' on 2024-07-22

   ID    Z sym.   atoms
    1    7 N      1, 10, 31, 36
    2    6 C      2-9, 11-16, 18-30, 32-35, 37, 38
    3    8 O      17
    4    1 H      39-56

          program call               : xtb data2507/gas/mPTBC/mPTBC_gas_S0_crest.xyz --gfn 2 --ohess vtight --parallel 40 --molden --ceasefiles --namespace data2507/gas/mPTBC/mPTBC_gas_S0_finalOpt
          :  Hamiltonian                  GFN2-xTB          :
 * total energy  :   -95.5066524 Eh     change       -0.3455824E-08 Eh
 * total energy  :   -95.5066527 Eh     change       -0.3799175E-06 Eh
 * total energy  :   -95.5066527 Eh     change        0.3918124E-07 Eh
 * total energy  :   -95.5066534 Eh     change       -0.7267621E-06 Eh
 * total energy  :   -95.5066534 Eh     change        0.4641798E-07 Eh
 * total energy  :   -95.5066544 Eh     change       -0.9782978E-06 Eh
 * total energy  :   -95.5066543 Eh     change        0.3446435E-07 Eh
 * total energy  :   -95.5066545 Eh     change       -0.1437532E-06 Eh
 * total energy  :   -95.5066546 Eh     change       -0.7700525E-07 Eh
   *** GEOMETRY OPTIMIZATION CONVERGED AFTER 9 ITERATIONS ***

 final structure:
================
56
 xtb: 6.7.1 (edcfbbe)
N           -4.21627586217663        7.21452910759399       -0.87078689062175
C           -3.69205796702364        6.20220596035373       -0.75207397551842
C           -3.03762871639542        4.95724352299778       -0.60497956498002
C           -3.40581921085573        3.87456154345435       -1.40385550992662
C           -2.76435319447362        2.66231407868755       -1.25462682383819
C           -1.74935088899165        2.51066193428478       -0.31190308802679
C           -1.05426263532893        1.22418755076090       -0.14568308431909
C            0.33119436766212        1.18952821267476       -0.13496352727058
C            1.01488915618381       -0.01665886520821       -0.00070809139805
N            2.41691997633498       -0.03635058530020        0.00089914825876
C            3.13966931488984        0.69653454086583        0.95159186437851
C            2.52077192926206        1.40681898943300        1.97250245707430
C            3.26700110756151        2.12136651250015        2.89700022041981
C            4.64529724409045        2.12678148510024        2.82586634495130
C            5.28015240240840        1.38801389700176        1.83966061830282
C            4.53978489917748        0.67072616136025        0.91736478674894
O            5.24148331590757       -0.07001736660403        0.00194443743598
C            4.52284722131475       -0.79598960048626       -0.91223463077801
C            5.24666028960709       -1.53280194967791       -1.83225402459316
C            4.59519869393444       -2.25851385759160       -2.81732321072154
C            3.21748201577620       -2.22050669870214       -2.88956595386929
C            2.48770869278851       -1.48625739953086       -1.96734406130180
C            3.12249985556966       -0.78846115109645       -0.94760494480623
C            0.29619065749293       -1.20237038882974        0.13285919200689
C           -1.08969057765490       -1.19592225912311        0.14387934663082
C           -1.82263903703647       -2.46132572376671        0.30986432325724
C           -1.48808419009444       -3.56048427164632       -0.48022044218826
C           -2.16306201018010       -4.75521765196956       -0.34345435339613
C           -3.18310136648149       -4.86850144763321        0.60192855620716
C           -3.87440603950311       -6.09347400390932        0.74846441691913
N           -4.42856528526988       -7.08963935235620        0.86758126600555
C           -3.51487825840647       -3.77746359616905        1.40541148078270
C           -2.83776977936314       -2.58470465003835        1.25653408581216
C           -1.77187506676788        0.02440895031526       -0.00043192298083
C           -3.18436408151565        0.04481607173879        0.00144360890338
N           -4.33178923467770        0.06101559184437        0.00290873267974
C           -1.37820486775943        3.60142542103055        0.47354254561650
C           -2.01716376989877        4.81572041017374        0.33613928502741
H           -4.19135106605746        3.99129644510970       -2.13504491958498
H           -3.04202847050572        1.83103422149116       -1.88480659325174
H            0.88857524971236        2.10501146864795       -0.26682118758238
H            1.44547269637274        1.39228410707200        2.05903554108212
H            2.75787995351877        2.66824547125134        3.67550302258555
H            5.23046529524045        2.68622769956762        3.53804259105480
H            6.35528423857185        1.34757943042690        1.77113122853332
H            6.32240251535994       -1.51757797048155       -1.76303716623689
H            5.16747380656868       -2.83331101212063       -3.52775287965582
H            2.69612656571715       -2.75703759483121       -3.66716980740425
H            1.41314710707327       -1.44630857363121       -2.05487935292824
H            0.82612226323175       -2.13398329199700        0.26487693937048
H           -0.70569320392098       -3.46858380517730       -1.21957135004354
H           -1.90985492371638       -5.60342129162759       -0.96201838426383
H           -4.30018625075986       -3.87259433345429        2.13997077200945
H           -3.08727137222385       -1.74714922761334        1.89018109218577
H           -0.59576749992002        3.48799566722464        1.20984139897677
H           -1.73542802316941        5.65764310941026        0.95093760216901

          :  Hamiltonian                  GFN2-xTB          :
         :: gradient norm              0.000152172004 Eh/a0 ::
         :: HOMO-LUMO gap              1.592370959641 eV    ::
         :: SCC energy               -97.342293206369 Eh    ::
         :: -> dispersion             -0.078093702285 Eh    ::
         :: repulsion energy           1.835638652111 Eh    ::

    * Orbital Energies and Occupations

         #    Occupation            Energy/Eh            Energy/eV
      -------------------------------------------------------------
         1        2.0000           -0.7423717             -20.2010
       ...           ...                  ...                  ...
        76        2.0000           -0.4411588             -12.0045
        77        2.0000           -0.4393386             -11.9550
        78        2.0000           -0.4391481             -11.9498
        79        2.0000           -0.4386016             -11.9350
        80        2.0000           -0.4350738             -11.8390
        81        2.0000           -0.4302283             -11.7071
        82        2.0000           -0.4284853             -11.6597
        83        2.0000           -0.4278778             -11.6431
        84        2.0000           -0.4278237             -11.6417
        85        2.0000           -0.4242199             -11.5436
        86        2.0000           -0.4201744             -11.4335
        87        2.0000           -0.4048799             -11.0173
        88        2.0000           -0.3598775              -9.7928 (HOMO)
        89                         -0.3013591              -8.2004 (LUMO)
        90                         -0.2956548              -8.0452
        91                         -0.2747214              -7.4755
        92                         -0.2565219              -6.9803
        93                         -0.2560333              -6.9670
        94                         -0.2540864              -6.9140
        95                         -0.2528574              -6.8806
        96                         -0.2442277              -6.6458
        97                         -0.2304670              -6.2713
        98                         -0.2200806              -5.9887
        99                         -0.2134840              -5.8092
       ...                                ...                  ...
       170                          1.1647292              31.6939
      -------------------------------------------------------------
                  HL-Gap            0.0585184 Eh            1.5924 eV

     #   Z          covCN         q      C6AA      α(0)
     1   7 N        0.911    -0.225    25.914     7.363
     2   6 C        1.912     0.113    28.315     8.594
     3   6 C        2.974     0.023    27.489     8.600
     4   6 C        2.925    -0.016    28.420     8.742
     5   6 C        2.922    -0.025    28.619     8.773
     6   6 C        2.978     0.017    27.631     8.622
     7   6 C        2.981     0.017    27.616     8.620
     8   6 C        2.927    -0.048    29.187     8.860
     9   6 C        2.917     0.073    26.373     8.421
    10   7 N        2.751    -0.069    22.578     7.057
    11   6 C        2.921     0.041    27.077     8.533
    12   6 C        2.924    -0.059    29.461     8.901
    13   6 C        2.919    -0.038    28.947     8.823
    14   6 C        2.919    -0.038    28.934     8.821
    15   6 C        2.920    -0.054    29.352     8.884
    16   6 C        2.885     0.126    25.226     8.234
    17   8 O        1.709    -0.250    18.145     5.751
    18   6 C        2.885     0.126    25.226     8.234
    19   6 C        2.920    -0.054    29.352     8.884
    20   6 C        2.919    -0.038    28.935     8.821
    21   6 C        2.919    -0.038    28.947     8.823
    22   6 C        2.924    -0.059    29.461     8.901
    23   6 C        2.921     0.041    27.076     8.533
    24   6 C        2.927    -0.048    29.187     8.860
    25   6 C        2.982     0.017    27.616     8.620
    26   6 C        2.978     0.017    27.631     8.622
    27   6 C        2.924    -0.029    28.731     8.790
    28   6 C        2.925    -0.019    28.483     8.752
    29   6 C        2.974     0.023    27.489     8.600
    30   6 C        1.912     0.113    28.315     8.594
    31   7 N        0.911    -0.225    25.914     7.363
    32   6 C        2.925    -0.016    28.419     8.742
    33   6 C        2.922    -0.025    28.618     8.773
    34   6 C        2.978     0.001    27.991     8.678
    35   6 C        1.910     0.114    28.295     8.591
    36   7 N        0.911    -0.242    26.320     7.420
    37   6 C        2.924    -0.029    28.731     8.790
    38   6 C        2.925    -0.019    28.483     8.752
    39   1 H        0.926     0.051     2.309     2.376
    40   1 H        0.926     0.045     2.388     2.416
    41   1 H        0.926     0.049     2.335     2.390
    42   1 H        0.926     0.032     2.559     2.502
    43   1 H        0.926     0.039     2.468     2.457
    44   1 H        0.926     0.043     2.413     2.429
    45   1 H        0.926     0.055     2.264     2.353
    46   1 H        0.926     0.055     2.264     2.353
    47   1 H        0.926     0.043     2.413     2.429
    48   1 H        0.926     0.039     2.468     2.457
    49   1 H        0.926     0.032     2.559     2.501
    50   1 H        0.926     0.049     2.335     2.389
    51   1 H        0.926     0.041     2.441     2.443
    52   1 H        0.926     0.047     2.355     2.400
    53   1 H        0.926     0.051     2.309     2.376
    54   1 H        0.926     0.045     2.388     2.417
    55   1 H        0.926     0.041     2.440     2.443
    56   1 H        0.926     0.047     2.355     2.400

molecular dipole:
                 x           y           z       tot (Debye)
 q only:        1.977      -0.030      -0.001
   full:        2.771      -0.042      -0.001       7.045

 projected vibrational frequencies (cm⁻¹)
eigval :       -0.00    -0.00    -0.00     0.00     0.00     0.00
eigval :       18.00    20.32    22.77    26.08    32.31    43.10
eigval :       54.27    55.73    59.82    82.92   101.94   109.54
eigval :      121.38   121.74   141.94   152.23   154.05   166.94
eigval :      198.21   209.89   244.16   249.68   258.70   273.12
eigval :      277.28   290.30   291.11   303.83   337.44   368.19
eigval :      368.63   390.61   392.01   421.15   427.48   433.29
eigval :      445.01   462.50   488.54   493.42   503.39   509.36
eigval :      522.25   527.82   532.48   534.41   542.56   548.23
eigval :      571.89   578.94   584.91   605.37   614.88   621.70
eigval :      638.69   645.80   660.49   661.89   680.75   691.72
eigval :      699.05   710.65   729.34   767.43   779.53   779.67
eigval :      787.73   818.09   819.08   826.25   856.15   857.77
eigval :      862.73   865.75   869.11   869.23   878.89   896.25
eigval :      902.18   909.33   916.31   916.60   917.07   919.84
eigval :      921.08   926.53   927.29   968.71  1014.30  1018.28
eigval :     1061.23  1091.28  1092.22  1109.50  1123.42  1137.16
eigval :     1137.61  1165.48  1168.39  1175.67  1185.57  1187.86
eigval :     1188.59  1203.40  1209.53  1217.05  1225.50  1237.53
eigval :     1243.43  1253.70  1262.41  1266.02  1266.19  1277.31
eigval :     1308.81  1311.58  1313.47  1314.15  1334.52  1343.55
eigval :     1370.36  1390.88  1392.35  1416.58  1426.64  1437.04
eigval :     1446.34  1484.73  1485.46  1486.28  1502.44  1530.29
eigval :     1550.87  1552.73  1563.71  1569.17  1580.54  1590.22
eigval :     1590.43  1591.54  1602.27  2359.57  2376.36  2377.10
eigval :     3080.75  3080.81  3090.03  3090.12  3091.73  3091.84
eigval :     3093.88  3094.55  3095.57  3095.67  3099.47  3099.65
eigval :     3102.52  3102.60  3106.17  3106.68  3116.11  3116.59

   temp. (K)  partition function   enthalpy   heat capacity  entropy
                                   cal/mol     cal/K/mol   cal/K/mol   J/K/mol
 298.15  VIB  0.428E+14            17642.374    108.583    109.586
         ROT  0.234E+08              888.752      2.981     36.702
         INT  0.100E+22            18531.127    111.564    146.288
         TR   0.104E+29             1481.254      4.968     44.414
         TOT                       20012.3805   116.5323   190.7016   797.8957

       T/K    H(0)-H(T)+PV         H(T)/Eh          T*S/Eh         G(T)/Eh
   ------------------------------------------------------------------------
    298.15    0.318918E-01    0.436627E+00    0.906085E-01    0.346018E+00
   ------------------------------------------------------------------------

         :::::::::::::::::::::::::::::::::::::::::::::::::::::
         ::                  THERMODYNAMIC                  ::
         :::::::::::::::::::::::::::::::::::::::::::::::::::::
         :: total free energy         -95.160636240346 Eh   ::
         ::.................................................::
         :: total energy              -95.506654554252 Eh   ::
         :: zero point energy           0.404735057466 Eh   ::
         :: G(RRHO) w/o ZPVE           -0.058716743560 Eh   ::
         :: G(RRHO) contrib.            0.346018313906 Eh   ::
         :::::::::::::::::::::::::::::::::::::::::::::::::::::

           -------------------------------------------------
          | TOTAL ENERGY              -95.506654554252 Eh   |
          | TOTAL ENTHALPY            -95.070027738524 Eh   |
          | TOTAL FREE ENERGY         -95.160636240346 Eh   |
          | GRADIENT NORM               0.000152260191 Eh/α |
          | HOMO-LUMO GAP               1.592366954449 eV   |
           -------------------------------------------------

 * finished run on 2025/08/21 at 15:58:05.363
