   * xtb version 6.7.1 (edcfbbe) compiled by 'albert@albert-system' on 2024-07-22

   ID    Z sym.   atoms
    1    6 C      1-29, 31-39, 41-52
    2    7 N      30, 40
    3    1 H      53-98

          program call               : xtb data2507/gas/IPTAC/IPTAC_gas_S0_finalOpt.xtbopt.xyz --gfn 2 --spinpol --tblite --uhf 2 --ohess vtight --parallel 40 --molden --ceasefiles --namespace data2507/gas/IPTAC/IPTAC_gas_T1_preOpt
 * total energy  :  -136.3496457 Eh     change        0.1310667E-07 Eh
 * total energy  :  -136.3555732 Eh     change       -0.5927497E-02 Eh
 * total energy  :  -136.3575673 Eh     change       -0.1994053E-02 Eh
 * total energy  :  -136.3578512 Eh     change       -0.2838937E-03 Eh
 * total energy  :  -136.3581298 Eh     change       -0.2786166E-03 Eh
 * total energy  :  -136.3582708 Eh     change       -0.1410171E-03 Eh
 * total energy  :  -136.3583918 Eh     change       -0.1209809E-03 Eh
 * total energy  :  -136.3584644 Eh     change       -0.7262294E-04 Eh
 * total energy  :  -136.3585169 Eh     change       -0.5247753E-04 Eh
 * total energy  :  -136.3585609 Eh     change       -0.4398597E-04 Eh
 * total energy  :  -136.3590811 Eh     change       -0.2426941E-06 Eh
 * total energy  :  -136.3590813 Eh     change       -0.1999864E-06 Eh
 * total energy  :  -136.3590812 Eh     change        0.1058279E-06 Eh
 * total energy  :  -136.3590813 Eh     change       -0.1095721E-06 Eh
 * total energy  :  -136.3590813 Eh     change        0.7118047E-08 Eh
 * total energy  :  -136.3590813 Eh     change        0.7603660E-09 Eh
 * total energy  :  -136.3590813 Eh     change        0.4138684E-08 Eh
 * total energy  :  -136.3590813 Eh     change        0.4787097E-08 Eh
 * total energy  :  -136.3590813 Eh     change       -0.1422362E-07 Eh
   *** GEOMETRY OPTIMIZATION CONVERGED AFTER 74 ITERATIONS ***

 final structure:
================
98
 xtb: 6.7.1 (edcfbbe)
C            7.47223623708259       -0.55228134481428        0.33358956526525
C            6.00220905018431       -0.26917730668325        0.25351041824537
C            5.37233887595797        0.51022261958523        1.21498284620506
C            4.02252451585072        0.79051956201114        1.12888095357375
C            3.26270869149608        0.29497154048970        0.07495258485668
C            1.81553213755101        0.58159310665446       -0.01422270180993
C            0.90896718066827       -0.47102017212349        0.00160580808107
C            1.37916915097612       -1.86583133349518        0.01676142097604
C            2.23202560440468       -2.33205886624051        1.01257358141736
C            2.65125263755306       -3.64806213652585        1.01988190634982
C            2.23891568588799       -4.53963838967695        0.03829874386961
C            2.69338796889640       -5.97803118514089        0.06655363792014
C            3.51386648150457       -6.31510454481254       -1.18019749455195
C            1.49618539901868       -6.92164811235706        0.20066933218159
C            1.39483769971037       -4.06923443905266       -0.96106080517298
C            0.96967221671568       -2.75707991954356       -0.97247435456025
C           -0.48391329085130       -0.19821951881062        0.04168322626870
C           -1.41368696303306       -1.34105173932916        0.06389972406015
C           -1.32402833883125       -2.33537129083857        1.03424753438265
C           -2.18016383324735       -3.41943506676954        1.01143128918063
C           -3.14486163507408       -3.55322177258966        0.02212691706428
C           -4.06627562495412       -4.74765847560600        0.00491041880163
C           -3.83707546492944       -5.58621680824610       -1.25440387130486
C           -5.52963372716249       -4.31326725637231        0.10996235663411
C           -3.22898828419866       -2.56161977209938       -0.94986312500495
C           -2.37984900240911       -1.47536889089569       -0.93146276308188
C           -0.94059394157753        1.11497141863227        0.00479910848207
C           -0.02125357033862        2.17969073235035       -0.24043887632468
C           -0.55414037436009        3.41451135294278       -0.68337113653181
N            0.22950657198105        4.45991036319658       -1.10165451514952
C           -1.95955895436537        3.60510119839929       -0.77457369740991
C           -2.85969299574790        2.66875807918278       -0.34258842079438
C           -4.29916205247717        2.87366966356981       -0.35670507499309
C           -4.89106372059715        3.88153166994046       -1.11061415623350
C           -6.26485279438435        4.08220652560050       -1.10603246615905
C           -7.07765306003520        3.25757215850585       -0.34813741173654
C           -6.52229557711712        2.23601983954909        0.39577640002355
C           -5.13310302464770        2.01941116307978        0.41181092506811
C           -4.52997177102739        0.97464592763416        1.17348804930762
N           -5.28346489564112        0.15128949448206        1.97745786968157
C           -3.16380157685319        0.69520355905530        1.02703204711946
C           -2.34170153856664        1.44417388304618        0.21770045258478
C            1.37235131724017        1.90808965937351       -0.13185584473002
C            2.37276119664675        2.98171480954423       -0.06422791925494
C            2.28161492588199        3.95984538960425        0.93061808259849
C            3.24938259824903        4.93500472341747        1.05143869594810
C            4.33939579126104        4.97392669042682        0.18811716532787
C            5.40374198752018        6.01772216772619        0.34158375734614
C            4.42841853004070        4.00573133492925       -0.80538183373576
C            3.46724596366016        3.02284729550083       -0.93051548140558
C            3.89058073482130       -0.48855265215061       -0.88753674632466
C            5.24096050543595       -0.76348231596101       -0.79816450216540
H            7.69985776235889       -1.53601567907263       -0.07151032785025
H            7.82199591112967       -0.50411684711172        1.36234759213182
H            8.02707928255881        0.18652356621680       -0.24643028237494
H            5.94610256903960        0.90183218134870        2.04353540062889
H            3.54781631369220        1.39205136328290        1.89092031529565
H            2.55454154597272       -1.66146796462982        1.79601363474620
H            3.30808783552297       -3.99013516070550        1.80820283692890
H            3.33583205163222       -6.11553911384180        0.94402737569432
H            4.36272149131334       -5.64009406057595       -1.26654497207696
H            3.88618831077849       -7.33603017056183       -1.12361555514509
H            2.90797439749336       -6.21991755443685       -2.07788876919971
H            1.83417019846951       -7.95244864322770        0.28626661926639
H            0.91594705289608       -6.67128648648158        1.08624850341829
H            0.84517344281550       -6.84449243793299       -0.66663513289743
H            1.05998825609346       -4.73492888601121       -1.74333740483332
H            0.31715876830517       -2.41098497622048       -1.76132735698088
H           -0.58741996644268       -2.24932920501069        1.82013243629174
H           -2.09381611882514       -4.17791951617242        1.77785887412947
H           -3.83212337434095       -5.37146740928798        0.87548296315975
H           -4.08065495506286       -5.01492590794898       -2.14676885690664
H           -4.46105114734935       -6.47747419519880       -1.23529304076680
H           -2.79513744826977       -5.89293016695469       -1.31733612946189
H           -6.17957520811227       -5.18461098384234        0.15915626071822
H           -5.68334128765153       -3.71420385319235        1.00513265217188
H           -5.81898144276330       -3.71761660095742       -0.75199979897506
H           -3.96420365003753       -2.63917095925799       -1.73744729929933
H           -2.45620971743147       -0.71639430688715       -1.69744029572078
H            1.20020566692534        4.27858835242289       -1.29915787455721
H           -0.22293544888947        5.16894994665163       -1.65473222585184
H           -2.29382871392065        4.55552096613808       -1.16301455665872
H           -4.27965872883753        4.51924954833061       -1.73001104723603
H           -6.69429821335826        4.87581297877389       -1.69917042963492
H           -8.14800696046120        3.40541709607527       -0.34327985999752
H           -7.17662657924094        1.58590301686275        0.95759443451331
H           -6.15561862349158        0.50323647662939        2.33345653944069
H           -4.77040339138201       -0.45364955943498        2.59743610410235
H           -2.76374340632305       -0.14018773381481        1.58032635778689
H            1.44417478845923        3.93741728634778        1.61300391453391
H            3.16532048358070        5.67635926605076        1.83386618468246
H            4.99219551454937        6.93434108511736        0.75878606697153
H            5.86865946143319        6.24243864727965       -0.61598326596043
H            6.18231898778534        5.66047282221813        1.01711474458357
H            5.26555061548688        4.02060668650087       -1.48931473839654
H            3.55301521869123        2.28386082846084       -1.71387855986856
H            3.31435074693551       -0.87903295807390       -1.71416939460697
H            5.71272919902176       -1.37297459081565       -1.55645597892352

 projected vibrational frequencies (cm⁻¹)
eigval :       -0.00    -0.00    -0.00    -0.00     0.00     0.00
eigval :      -12.90    10.78    12.64    13.54    16.73    19.48
eigval :       22.35    30.00    31.25    31.88    34.12    36.87
eigval :       53.53    68.18    72.72    77.68    82.59    90.99
eigval :       95.96   100.43   108.27   121.77   131.02   134.67
eigval :      146.33   159.37   161.01   172.91   181.53   184.43
eigval :      190.49   192.39   193.54   205.76   213.76   218.53
eigval :      227.13   238.48   243.94   254.34   270.33   284.48
eigval :      289.79   299.98   316.20   320.48   330.67   338.93
eigval :      342.53   348.03   354.09   361.94   376.01   376.90
eigval :      377.95   379.55   385.84   393.81   405.06   408.86
eigval :      416.22   431.92   452.81   458.82   466.67   469.75
eigval :      475.39   479.10   487.89   494.15   501.56   506.81
eigval :      511.70   520.75   527.53   541.08   544.34   547.31
eigval :      560.05   569.85   584.05   589.97   597.38   601.40
eigval :      607.10   612.42   616.11   636.70   651.75   658.57
eigval :      665.06   681.70   688.49   694.70   706.65   711.58
eigval :      716.59   734.55   750.29   753.03   757.95   784.42
eigval :      795.55   800.13   802.34   804.21   814.88   815.83
eigval :      829.82   834.25   845.47   854.18   859.94   870.28
eigval :      872.07   873.55   874.99   884.47   902.62   910.18
eigval :      913.70   915.93   916.43   917.45   925.34   927.09
eigval :      927.64   928.39   931.09   939.26   944.04   945.52
eigval :      945.68   984.89   984.98   988.07   995.32  1005.76
eigval :     1007.61  1008.31  1012.76  1019.92  1022.52  1030.33
eigval :     1031.91  1051.84  1077.57  1079.74  1090.83  1093.89
eigval :     1112.44  1136.48  1136.68  1137.87  1140.95  1142.98
eigval :     1145.21  1146.13  1168.65  1170.24  1171.60  1180.60
eigval :     1187.21  1199.31  1202.36  1203.51  1205.92  1218.82
eigval :     1227.49  1230.15  1236.10  1244.37  1247.08  1251.83
eigval :     1257.46  1266.86  1276.16  1277.17  1279.06  1281.10
eigval :     1282.63  1295.08  1306.74  1309.80  1313.26  1313.81
eigval :     1315.68  1321.06  1323.34  1345.95  1347.63  1357.98
eigval :     1361.90  1374.62  1382.47  1389.39  1399.93  1402.04
eigval :     1402.52  1402.90  1403.50  1404.47  1407.10  1408.93
eigval :     1411.82  1413.21  1418.47  1419.04  1423.70  1441.49
eigval :     1447.00  1474.06  1476.59  1483.54  1484.15  1484.56
eigval :     1484.98  1490.90  1491.85  1494.24  1494.56  1495.23
eigval :     1495.93  1497.12  1500.10  1503.06  1503.57  1507.74
eigval :     1508.61  1511.48  1530.95  1537.30  1540.26  1553.78
eigval :     1566.41  1568.37  1572.25  1576.13  1598.10  1603.06
eigval :     1604.77  1610.57  2921.75  2923.22  2989.58  2990.43
eigval :     3022.01  3022.10  3026.91  3027.40  3029.45  3029.98
eigval :     3030.51  3030.87  3031.70  3032.23  3032.71  3035.63
eigval :     3038.69  3039.40  3041.58  3043.34  3058.06  3059.64
eigval :     3064.16  3065.60  3065.75  3067.38  3067.54  3067.66
eigval :     3069.38  3075.18  3077.71  3079.71  3080.13  3080.50
eigval :     3081.38  3081.93  3081.96  3083.41  3085.36  3085.52
eigval :     3096.34  3098.36  3437.69  3460.65  3506.16  3519.02

   temp. (K)  partition function   enthalpy   heat capacity  entropy
                                   cal/mol     cal/K/mol   cal/K/mol   J/K/mol
 298.15  VIB  0.312E+25            29266.920    174.599    184.767
         ROT  0.916E+08              888.752      2.981     39.413
         INT  0.286E+33            30155.672    177.579    224.180
         TR   0.170E+29             1481.254      4.968     45.389
         TOT                       31636.9262   182.5476   269.5689  1127.8762

       T/K    H(0)-H(T)+PV         H(T)/Eh          T*S/Eh         G(T)/Eh
   ------------------------------------------------------------------------
    298.15    0.504167E-01    0.845355E+00    0.128081E+00    0.717274E+00
   ------------------------------------------------------------------------

         :::::::::::::::::::::::::::::::::::::::::::::::::::::
         ::                  THERMODYNAMIC                  ::
         :::::::::::::::::::::::::::::::::::::::::::::::::::::
         :: total free energy        -135.641807150307 Eh   ::
         ::.................................................::
         :: total energy             -136.359081389091 Eh   ::
         :: zero point energy           0.794938461013 Eh   ::
         :: G(RRHO) w/o ZPVE           -0.077664222230 Eh   ::
         :: G(RRHO) contrib.            0.717274238784 Eh   ::
         :::::::::::::::::::::::::::::::::::::::::::::::::::::

           -------------------------------------------------
          | TOTAL ENERGY             -136.359081389091 Eh   |
          | TOTAL ENTHALPY           -135.513726276996 Eh   |
          | TOTAL FREE ENERGY        -135.641807150307 Eh   |
          | GRADIENT NORM               0.000037150409 Eh/α |
           -------------------------------------------------

 * finished run on 2025/08/24 at 23:50:05.137
