   * xtb version 6.7.1 (edcfbbe) compiled by 'albert@albert-system' on 2024-07-22

   ID    Z sym.   atoms
    1    6 C      1-29, 31-39, 41-52
    2    7 N      30, 40
    3    1 H      53-98

          program call               : xtb data2507/gas/IPTAC/IPTAC_gas_S0_crest.xyz --gfn 2 --ohess vtight --parallel 40 --molden --ceasefiles --namespace data2507/gas/IPTAC/IPTAC_gas_S0_finalOpt
          :  Hamiltonian                  GFN2-xTB          :
 * total energy  :  -136.4266147 Eh     change       -0.1595424E-08 Eh
 * total energy  :  -136.4266157 Eh     change       -0.1014384E-05 Eh
 * total energy  :  -136.4266171 Eh     change       -0.1391972E-05 Eh
 * total energy  :  -136.4266196 Eh     change       -0.2504535E-05 Eh
 * total energy  :  -136.4266212 Eh     change       -0.1606663E-05 Eh
 * total energy  :  -136.4266225 Eh     change       -0.1322185E-05 Eh
 * total energy  :  -136.4266240 Eh     change       -0.1519931E-05 Eh
 * total energy  :  -136.4266255 Eh     change       -0.1465552E-05 Eh
 * total energy  :  -136.4266268 Eh     change       -0.1311023E-05 Eh
 * total energy  :  -136.4266282 Eh     change       -0.1398487E-05 Eh
 * total energy  :  -136.4266308 Eh     change       -0.5016581E-06 Eh
 * total energy  :  -136.4266313 Eh     change       -0.5113516E-06 Eh
 * total energy  :  -136.4266317 Eh     change       -0.3457502E-06 Eh
 * total energy  :  -136.4266320 Eh     change       -0.2998231E-06 Eh
 * total energy  :  -136.4266322 Eh     change       -0.2375908E-06 Eh
 * total energy  :  -136.4266325 Eh     change       -0.2542156E-06 Eh
 * total energy  :  -136.4266327 Eh     change       -0.2637025E-06 Eh
 * total energy  :  -136.4266329 Eh     change       -0.2257673E-06 Eh
 * total energy  :  -136.4266330 Eh     change       -0.6510106E-08 Eh
   *** GEOMETRY OPTIMIZATION CONVERGED AFTER 22 ITERATIONS ***

 final structure:
================
98
 xtb: 6.7.1 (edcfbbe)
C            7.40164131765257       -0.54788888367310        0.42175038909337
C            5.93304179159913       -0.26096684391836        0.33273183859596
C            5.30227534875653        0.53110628832262        1.28310557637771
C            3.95354470382916        0.81420951278605        1.18903980832582
C            3.19689067223457        0.30994833493683        0.13762703937407
C            1.75159554813040        0.60507095138923        0.03978168758607
C            0.82597799279156       -0.45215658785832        0.08209626912819
C            1.31730255982321       -1.84579759118039        0.10145383073387
C            2.11167636400460       -2.30797674980942        1.14342067885112
C            2.55247265815809       -3.61750878344767        1.16075269202819
C            2.22037366505382       -4.50009106118545        0.14188908365770
C            2.69538997253509       -5.93161862125159        0.18058976308057
C            3.60273318373881       -6.23709299529925       -1.01289364505014
C            1.50682414495036       -6.89457806001730        0.22098205719586
C            1.43783459910380       -4.02925212946167       -0.90566251464924
C            0.99206919852764       -2.72340286598190       -0.92729136502686
C           -0.53354657342893       -0.18426868622298        0.11427227138050
C           -1.44811798448301       -1.34466429912589        0.08662255343473
C           -1.39490215711376       -2.33802460215133        1.05872826277530
C           -2.21628724918013       -3.44577733514225        0.97452661679407
C           -3.10446109349656       -3.60242939073152       -0.08115853966703
C           -3.98540383898846       -4.82411497450976       -0.16597468842033
C           -3.62292801417902       -5.66064548092186       -1.39510582681027
C           -5.46489008554522       -4.43541439485980       -0.18871163290820
C           -3.14971220819728       -2.61074258768914       -1.05433022783337
C           -2.33619418395999       -1.49909201518021       -0.97426579365566
C           -1.00552589967119        1.14969023598825        0.05643232245714
C           -0.07501260854502        2.18650524045772       -0.22500642497701
C           -0.59638179942333        3.45384133312667       -0.65278030939147
N            0.23322814484001        4.48794832791587       -1.04720595878836
C           -1.95203446755604        3.65949885652493       -0.68053372521528
C           -2.87887703193293        2.72240003569227       -0.18494752486202
C           -4.28983662635550        2.99427062085815       -0.11687778342710
C           -4.85913926989176        4.16676240780283       -0.64475815410332
C           -6.21067755288399        4.39448477527173       -0.61140497728085
C           -7.06761380081916        3.44764304840396       -0.04952943106118
C           -6.54802204394522        2.29863410902931        0.48561329544880
C           -5.16422649541576        2.05076482828815        0.47989683114405
C           -4.60661454118393        0.88017759654861        1.08412495594416
N           -5.42486602105663       -0.02199840767867        1.75065457044570
C           -3.27019677244930        0.62024974539363        0.95221398388420
C           -2.39452581044897        1.47689510205778        0.25258661344293
C            1.31054237876632        1.90615894915821       -0.13624638399006
C            2.34757112685612        2.96018374397986       -0.16358278871197
C            2.39852413219048        3.90971099457551        0.85396282222976
C            3.41191172751402        4.84636730383084        0.88730030071169
C            4.40079973881085        4.86530117574222       -0.08958342876173
C            5.51280050650423        5.86830675189987       -0.03102695452199
C            4.34570152303517        3.91982716038294       -1.10512296463350
C            3.33716646722362        2.97545208273603       -1.14183906760567
C            3.82496496970874       -0.48609830605916       -0.81372451083395
C            5.17417202148766       -0.76419658808066       -0.71628884674543
H            7.62887281824822       -1.53350856733387        0.02120760920548
H            7.74601645613039       -0.49702425997491        1.45215477092633
H            7.96127072086049        0.18761285664243       -0.15775587866073
H            5.87426061843103        0.93017391008560        2.10920893167708
H            3.47770838299059        1.42618668424021        1.94184224154791
H            2.37431714146616       -1.64041629339786        1.95162637283937
H            3.16372196574204       -3.95996123159574        1.98451212379845
H            3.27969878574032       -6.07246511168188        1.09715983653306
H            4.44366787452176       -5.54712332515926       -1.03346009221926
H            3.98799981154088       -7.25238292186636       -0.94471928682261
H            3.05650099154493       -6.13941225018819       -1.94779968493587
H            1.85460811745686       -7.92087447213499        0.31912204400201
H            0.86248542605453       -6.66345434094650        1.06655644868697
H            0.91659919700082       -6.81767708105917       -0.68879719038024
H            1.16737853842526       -4.68870829895601       -1.71734415905135
H            0.38493342817690       -2.37524730545225       -1.75075700490802
H           -0.71729299932573       -2.23246205571313        1.89383844877187
H           -2.16257722987227       -4.20437536930853        1.74358853971196
H           -3.80670046434592       -5.43587952498871        0.72597913902195
H           -3.80300471083970       -5.09949502191367       -2.30875814955704
H           -4.22130170321315       -6.56889110098743       -1.42518451725143
H           -2.57133509467542       -5.93826946804801       -1.36452210487936
H           -6.08898551862464       -5.32663663011481       -0.17451835867513
H           -5.70973494593440       -3.82550623915486        0.67820260251795
H           -5.70196232776629       -3.86527476175101       -1.08312398878455
H           -3.82714707453175       -2.70528275335683       -1.89005133824973
H           -2.38279820293395       -0.73722200350467       -1.73934773405622
H            1.12742513922731        4.23862635260486       -1.43593825412626
H           -0.23725947302953        5.23609836261635       -1.53209807283532
H           -2.29794886137560        4.60874384197045       -1.06015312340531
H           -4.22798135794037        4.91013694655998       -1.10504239550416
H           -6.61670148480892        5.30360480546957       -1.03118166148545
H           -8.13390159032925        3.62124060514301       -0.04160592883964
H           -7.21725234918073        1.55814837948867        0.89815868182275
H           -6.20183976688295        0.37387982599442        2.25578483648188
H           -4.91916906725222       -0.71609643486333        2.28045518686449
H           -2.87437653334271       -0.25140788341143        1.44667519037329
H            1.63624849619174        3.90410994486472        1.61912556800242
H            3.44116678625946        5.57385045788328        1.68620828631932
H            5.16067131085464        6.81432685982829        0.37480871535566
H            5.93329738819263        6.04181271383309       -1.01892579479515
H            6.31078684119541        5.50183467617400        0.61595560882866
H            5.10476694400122        3.91809088400721       -1.87476221484334
H            3.31040813990907        2.24579429285853       -1.93872447182792
H            3.25155652780711       -0.88390534526712       -1.63875216667648
H            5.64662358426375       -1.38338016799751       -1.46614150321391

          :  Hamiltonian                  GFN2-xTB          :
         :: gradient norm              0.000050384956 Eh/a0 ::
         :: HOMO-LUMO gap              2.048277863105 eV    ::
         :: SCC energy              -138.941832975356 Eh    ::
         :: -> dispersion             -0.141530996267 Eh    ::
         :: repulsion energy           2.515200020408 Eh    ::

    * Orbital Energies and Occupations

         #    Occupation            Energy/Eh            Energy/eV
      -------------------------------------------------------------
         1        2.0000           -0.6448341             -17.5468
       ...           ...                  ...                  ...
       116        2.0000           -0.3971574             -10.8072
       117        2.0000           -0.3944123             -10.7325
       118        2.0000           -0.3928088             -10.6889
       119        2.0000           -0.3909123             -10.6373
       120        2.0000           -0.3900679             -10.6143
       121        2.0000           -0.3892380             -10.5917
       122        2.0000           -0.3816218             -10.3845
       123        2.0000           -0.3793010             -10.3213
       124        2.0000           -0.3735079             -10.1637
       125        2.0000           -0.3706876             -10.0869
       126        2.0000           -0.3646360              -9.9223
       127        2.0000           -0.3584772              -9.7547
       128        2.0000           -0.3253125              -8.8522 (HOMO)
       129                         -0.2500397              -6.8039 (LUMO)
       130                         -0.2380646              -6.4781
       131                         -0.2285077              -6.2180
       132                         -0.2167456              -5.8979
       133                         -0.2150546              -5.8519
       134                         -0.2136769              -5.8144
       135                         -0.2110208              -5.7422
       136                         -0.2092761              -5.6947
       137                         -0.2075900              -5.6488
       138                         -0.2056621              -5.5964
       139                         -0.2007538              -5.4628
       ...                                ...                  ...
       254                          0.7308596              19.8877
      -------------------------------------------------------------
                  HL-Gap            0.0752728 Eh            2.0483 eV

     #   Z          covCN         q      C6AA      α(0)
     1   6 C        3.758    -0.107    22.598     6.778
     2   6 C        2.967     0.014    27.698     8.633
     3   6 C        2.925    -0.041    29.013     8.833
     4   6 C        2.924    -0.034    28.847     8.808
     5   6 C        2.978     0.011    27.769     8.644
     6   6 C        2.986    -0.005    28.142     8.702
     7   6 C        2.985    -0.005    28.136     8.701
     8   6 C        2.979     0.012    27.734     8.638
     9   6 C        2.923    -0.033    28.827     8.805
    10   6 C        2.925    -0.040    28.988     8.829
    11   6 C        2.973     0.007    27.863     8.658
    12   6 C        3.855    -0.014    20.780     6.483
    13   6 C        3.756    -0.101    22.484     6.761
    14   6 C        3.756    -0.100    22.473     6.759
    15   6 C        2.924    -0.035    28.880     8.813
    16   6 C        2.924    -0.034    28.848     8.808
    17   6 C        2.979    -0.004    28.115     8.698
    18   6 C        2.980     0.016    27.642     8.624
    19   6 C        2.922    -0.036    28.891     8.815
    20   6 C        2.925    -0.041    29.016     8.834
    21   6 C        2.973     0.007    27.871     8.660
    22   6 C        3.855    -0.013    20.779     6.483
    23   6 C        3.756    -0.101    22.477     6.760
    24   6 C        3.756    -0.102    22.506     6.764
    25   6 C        2.924    -0.034    28.849     8.808
    26   6 C        2.924    -0.032    28.801     8.801
    27   6 C        2.982    -0.003    28.103     8.696
    28   6 C        2.981    -0.015    28.391     8.740
    29   6 C        2.891     0.070    26.424     8.428
    30   7 N        2.643    -0.286    27.378     7.771
    31   6 C        2.926    -0.076    29.909     8.969
    32   6 C        2.979    -0.005    28.147     8.703
    33   6 C        2.981     0.003    27.943     8.671
    34   6 C        2.921    -0.035    28.875     8.812
    35   6 C        2.917    -0.035    28.878     8.812
    36   6 C        2.916    -0.035    28.876     8.812
    37   6 C        2.921    -0.038    28.933     8.821
    38   6 C        2.987    -0.007    28.186     8.709
    39   6 C        2.893     0.066    26.526     8.444
    40   7 N        2.641    -0.285    27.365     7.769
    41   6 C        2.923    -0.074    29.844     8.959
    42   6 C        2.981    -0.003    28.087     8.693
    43   6 C        2.977    -0.007    28.181     8.708
    44   6 C        2.980     0.011    27.776     8.645
    45   6 C        2.923    -0.031    28.778     8.797
    46   6 C        2.924    -0.040    29.002     8.831
    47   6 C        2.966     0.014    27.706     8.634
    48   6 C        3.758    -0.108    22.615     6.780
    49   6 C        2.924    -0.042    29.055     8.840
    50   6 C        2.922    -0.040    28.985     8.829
    51   6 C        2.924    -0.033    28.827     8.805
    52   6 C        2.925    -0.041    29.011     8.833
    53   1 H        0.925     0.041     2.438     2.442
    54   1 H        0.925     0.040     2.446     2.446
    55   1 H        0.924     0.044     2.392     2.419
    56   1 H        0.926     0.026     2.646     2.544
    57   1 H        0.926     0.026     2.649     2.545
    58   1 H        0.926     0.025     2.654     2.548
    59   1 H        0.925     0.024     2.671     2.556
    60   1 H        0.924     0.029     2.600     2.521
    61   1 H        0.925     0.032     2.556     2.500
    62   1 H        0.925     0.034     2.528     2.486
    63   1 H        0.925     0.037     2.492     2.469
    64   1 H        0.925     0.034     2.528     2.486
    65   1 H        0.925     0.032     2.556     2.500
    66   1 H        0.925     0.036     2.500     2.473
    67   1 H        0.926     0.028     2.621     2.532
    68   1 H        0.926     0.025     2.663     2.552
    69   1 H        0.926     0.024     2.674     2.557
    70   1 H        0.925     0.022     2.707     2.573
    71   1 H        0.924     0.028     2.614     2.529
    72   1 H        0.925     0.037     2.490     2.468
    73   1 H        0.925     0.034     2.529     2.487
    74   1 H        0.925     0.032     2.561     2.503
    75   1 H        0.925     0.034     2.536     2.490
    76   1 H        0.925     0.033     2.548     2.496
    77   1 H        0.925     0.039     2.466     2.456
    78   1 H        0.926     0.030     2.590     2.517
    79   1 H        0.926     0.027     2.634     2.538
    80   1 H        0.860     0.165     1.304     1.789
    81   1 H        0.860     0.155     1.370     1.833
    82   1 H        0.926     0.020     2.733     2.585
    83   1 H        0.926     0.028     2.608     2.525
    84   1 H        0.926     0.023     2.686     2.563
    85   1 H        0.926     0.023     2.693     2.566
    86   1 H        0.926     0.027     2.633     2.537
    87   1 H        0.860     0.158     1.348     1.819
    88   1 H        0.860     0.154     1.375     1.837
    89   1 H        0.926     0.027     2.636     2.539
    90   1 H        0.926     0.034     2.534     2.489
    91   1 H        0.926     0.029     2.596     2.519
    92   1 H        0.925     0.042     2.424     2.435
    93   1 H        0.925     0.040     2.451     2.448
    94   1 H        0.924     0.046     2.373     2.409
    95   1 H        0.926     0.026     2.650     2.546
    96   1 H        0.926     0.024     2.669     2.555
    97   1 H        0.926     0.025     2.651     2.546
    98   1 H        0.926     0.026     2.645     2.543

molecular dipole:
                 x           y           z       tot (Debye)
 q only:        0.327      -0.014       0.054
   full:        0.455       0.008       0.065       1.168

 projected vibrational frequencies (cm⁻¹)
eigval :       -0.00     0.00     0.00     0.00     0.00     0.00
eigval :        7.22    11.79    12.77    16.20    17.47    18.69
eigval :       20.70    29.11    30.99    31.67    33.28    37.25
eigval :       51.94    65.79    70.09    75.95    81.82    86.23
eigval :       95.75   102.67   109.74   125.38   130.73   134.79
eigval :      147.16   160.41   161.98   175.27   180.53   185.94
eigval :      190.27   192.69   196.57   208.30   215.08   218.39
eigval :      228.50   242.69   245.07   255.84   269.05   281.73
eigval :      286.89   300.74   318.44   321.70   336.46   339.81
eigval :      347.78   352.70   356.11   373.96   375.60   376.51
eigval :      378.75   382.31   388.37   392.34   409.26   412.07
eigval :      418.53   437.89   452.77   465.75   474.43   480.44
eigval :      486.67   499.11   508.04   512.40   517.63   531.95
eigval :      532.43   546.87   550.51   558.93   569.02   572.09
eigval :      585.16   588.68   597.07   602.94   608.58   613.73
eigval :      615.08   626.59   650.65   654.01   666.03   670.91
eigval :      672.43   690.24   694.05   702.19   713.54   724.07
eigval :      736.98   737.70   753.07   762.77   769.88   784.71
eigval :      798.49   803.26   805.27   813.61   816.54   817.95
eigval :      833.90   851.48   859.03   863.43   865.35   873.19
eigval :      873.42   874.47   875.40   906.60   909.02   914.79
eigval :      916.46   916.76   917.37   921.66   926.75   927.33
eigval :      927.91   928.41   932.92   940.15   945.16   946.19
eigval :      946.48   985.49   985.83  1001.38  1004.34  1008.45
eigval :     1008.68  1018.37  1021.69  1031.58  1032.37  1039.15
eigval :     1048.42  1067.57  1078.95  1080.35  1093.12  1101.72
eigval :     1111.53  1137.02  1137.12  1140.52  1140.74  1142.68
eigval :     1145.77  1153.41  1170.50  1170.57  1187.18  1190.97
eigval :     1194.52  1200.44  1203.43  1203.86  1206.88  1222.23
eigval :     1228.99  1233.74  1239.56  1246.57  1250.80  1258.92
eigval :     1272.65  1277.85  1278.55  1279.47  1280.40  1285.82
eigval :     1305.76  1307.22  1309.48  1312.34  1313.99  1314.29
eigval :     1317.22  1321.29  1331.53  1345.81  1347.30  1371.76
eigval :     1387.33  1392.91  1398.88  1400.83  1403.41  1403.81
eigval :     1403.95  1404.29  1407.18  1409.22  1410.05  1411.38
eigval :     1415.23  1420.30  1421.26  1434.23  1475.65  1479.54
eigval :     1484.15  1484.79  1485.32  1485.94  1494.24  1495.12
eigval :     1495.56  1495.95  1496.40  1498.22  1500.16  1502.81
eigval :     1503.71  1504.08  1505.15  1507.94  1510.25  1512.29
eigval :     1521.69  1535.49  1544.17  1572.45  1572.86  1576.50
eigval :     1577.22  1580.91  1593.47  1603.91  1607.65  1608.83
eigval :     1610.32  1612.20  2923.70  2926.19  2992.21  2994.31
eigval :     3023.88  3024.12  3028.79  3029.26  3030.77  3030.92
eigval :     3031.97  3032.48  3033.83  3033.95  3036.35  3037.02
eigval :     3040.44  3040.81  3042.83  3045.68  3060.57  3062.43
eigval :     3065.67  3067.21  3067.74  3068.53  3070.88  3071.33
eigval :     3072.26  3075.83  3080.17  3080.87  3081.14  3081.81
eigval :     3083.20  3083.56  3084.14  3085.32  3087.46  3087.50
eigval :     3103.96  3118.86  3442.41  3451.50  3491.27  3507.04

   temp. (K)  partition function   enthalpy   heat capacity  entropy
                                   cal/mol     cal/K/mol   cal/K/mol   J/K/mol
 298.15  VIB  0.393E+25            28983.850    172.577    183.647
         ROT  0.913E+08              888.752      2.981     39.406
         INT  0.358E+33            29872.603    175.558    223.053
         TR   0.170E+29             1481.254      4.968     45.389
         TOT                       31353.8567   180.5260   268.4416  1123.1597

       T/K    H(0)-H(T)+PV         H(T)/Eh          T*S/Eh         G(T)/Eh
   ------------------------------------------------------------------------
    298.15    0.499656E-01    0.848823E+00    0.127545E+00    0.721278E+00
   ------------------------------------------------------------------------

         :::::::::::::::::::::::::::::::::::::::::::::::::::::
         ::                  THERMODYNAMIC                  ::
         :::::::::::::::::::::::::::::::::::::::::::::::::::::
         :: total free energy        -135.705354776360 Eh   ::
         ::.................................................::
         :: total energy             -136.426632954947 Eh   ::
         :: zero point energy           0.798857896732 Eh   ::
         :: G(RRHO) w/o ZPVE           -0.077579718146 Eh   ::
         :: G(RRHO) contrib.            0.721278178586 Eh   ::
         :::::::::::::::::::::::::::::::::::::::::::::::::::::

           -------------------------------------------------
          | TOTAL ENERGY             -136.426632954947 Eh   |
          | TOTAL ENTHALPY           -135.577809507059 Eh   |
          | TOTAL FREE ENERGY        -135.705354776360 Eh   |
          | GRADIENT NORM               0.000050349794 Eh/α |
          | HOMO-LUMO GAP               2.048277728063 eV   |
           -------------------------------------------------

 * finished run on 2025/08/24 at 23:49:49.207
