   * xtb version 6.7.1 (edcfbbe) compiled by 'albert@albert-system' on 2024-07-22

   ID    Z sym.   atoms
    1    6 C      1-29, 31-39, 41-52
    2    7 N      30, 40
    3    1 H      53-98

          program call               : xtb data2507/gas/IPTAC/IPTAC.xyz --gfn 2 --ohess vtight --parallel 40 --molden --ceasefiles --namespace data2507/gas/IPTAC/IPTAC_gas_S0_preOpt
          :  Hamiltonian                  GFN2-xTB          :
 * total energy  :  -136.3933584 Eh     change       -0.4163326E-08 Eh
 * total energy  :  -136.4107858 Eh     change       -0.1742747E-01 Eh
 * total energy  :  -136.4176528 Eh     change       -0.6866947E-02 Eh
 * total energy  :  -136.4204382 Eh     change       -0.2785408E-02 Eh
 * total energy  :  -136.4218754 Eh     change       -0.1437167E-02 Eh
 * total energy  :  -136.4224207 Eh     change       -0.5453607E-03 Eh
 * total energy  :  -136.4227883 Eh     change       -0.3675926E-03 Eh
 * total energy  :  -136.4231494 Eh     change       -0.3610864E-03 Eh
 * total energy  :  -136.4235040 Eh     change       -0.3546224E-03 Eh
 * total energy  :  -136.4238846 Eh     change       -0.3805579E-03 Eh
 * total energy  :  -136.4258094 Eh     change       -0.1422385E-05 Eh
 * total energy  :  -136.4258111 Eh     change       -0.1772016E-05 Eh
 * total energy  :  -136.4258130 Eh     change       -0.1907874E-05 Eh
 * total energy  :  -136.4258143 Eh     change       -0.1310814E-05 Eh
 * total energy  :  -136.4258147 Eh     change       -0.3854946E-06 Eh
 * total energy  :  -136.4258152 Eh     change       -0.4674527E-06 Eh
 * total energy  :  -136.4258147 Eh     change        0.4598048E-06 Eh
 * total energy  :  -136.4258153 Eh     change       -0.5760076E-06 Eh
 * total energy  :  -136.4258154 Eh     change       -0.9725187E-07 Eh
   *** GEOMETRY OPTIMIZATION CONVERGED AFTER 72 ITERATIONS ***

 final structure:
================
98
 xtb: 6.7.1 (edcfbbe)
C            7.05947127406547       -1.32246727178731        0.33325234100349
C            5.66850644845667       -0.77154025339699        0.23997619786985
C            5.16099889471200        0.06534539294960        1.22425013188437
C            3.87174183001962        0.55604808991948        1.14297364959192
C            3.05375557487817        0.22075619030511        0.07080387390367
C            1.67150534557472        0.73856855582290       -0.01664916682956
C            0.59260702546476       -0.16380560008118       -0.00103382912593
C            0.87031165854809       -1.61468019402980       -0.03744731095149
C            1.59906841309918       -2.22614149926848        0.97673969211712
C            1.87108150984984       -3.57867729278882        0.93030791638179
C            1.43002551762596       -4.36094076959591       -0.13017049415424
C            1.72859622068592       -5.83871852130453       -0.18999583548310
C            1.08046822795645       -6.57061638153196        0.98712878039678
C            3.23783313365958       -6.08820282532958       -0.22137422948367
C            0.70251061214703       -3.74625955201823       -1.14045218678423
C            0.42403882503903       -2.39374639155584       -1.09815095655666
C           -0.70735800327811        0.31168367760884        0.05455939181745
C           -1.79379008133545       -0.68787518777163       -0.00054094604356
C           -1.88757911195165       -1.71872724772774        0.92856533723530
C           -2.88292394319554       -2.67127991572423        0.82102827934968
C           -3.80544350295145       -2.63228275848254       -0.21609288327798
C           -4.88776360962781       -3.67866628305924       -0.31965798494828
C           -4.76467607324081       -4.46073692121641       -1.62881053942114
C           -6.27368460819457       -3.04145858896937       -0.19539817831346
C           -3.70240156944667       -1.60573245831505       -1.14847239110256
C           -2.71275303708270       -0.64948734990928       -1.04621761628319
C           -0.96519942315696        1.70507603688900        0.04015755478259
C            0.11146790997399        2.58821671138708       -0.24425216618501
C           -0.21370597732378        3.92545451828180       -0.65614082226480
N            0.72477262429841        4.75497699466909       -1.23392678445952
C           -1.51812041597857        4.34997868746351       -0.62494197809342
C           -2.56665033956336        3.56481427907398       -0.10979037363672
C           -3.90819120262293        4.06484242864807        0.03027918483918
C           -4.28548395820973        5.33788763264457       -0.43352650827216
C           -5.56666655194237        5.80754091960748       -0.30486586189033
C           -6.54136725501072        5.02012220025978        0.30813213217389
C           -6.21053865373088        3.77519310802657        0.77361669648756
C           -4.90579687940505        3.26589410627305        0.64721198644145
C           -4.54173010711904        1.97725425381031        1.15218660288153
N           -5.43773191522037        1.22546134015013        1.89997032729612
C           -3.26769579167389        1.51267380356317        0.96884050812047
C           -2.27726803640616        2.24600568848150        0.28464041096272
C            1.43693200507478        2.09494231330394       -0.16224887370478
C            2.62820521906977        2.97294826297959       -0.14322022043237
C            2.82429640246702        3.84713884864844        0.92544974383755
C            3.97892046850659        4.60064500774211        1.01339118992046
C            4.97054187678770        4.50207136258292        0.04454901827468
C            6.21602925305834        5.32986909150117        0.13755418739739
C            4.77098278329966        3.63297265349091       -1.02106455867628
C            3.62049873209551        2.87377586680860       -1.11458353267106
C            3.55871616374552       -0.61954957097495       -0.91564987730299
C            4.84782322826763       -1.10608492432441       -0.83042896861978
H            7.03017542192460       -2.35317807315697        0.68861545310062
H            7.66311517335519       -0.74103165969709        1.02607163543191
H            7.54172964005773       -1.32060281198266       -0.64235141650748
H            5.78209243911907        0.33736203445097        2.06635048779027
H            3.49149195827195        1.20118151292835        1.92214633627783
H            1.94735312317077       -1.63597547534995        1.81240512556734
H            2.43683471360384       -4.02697348463722        1.73391116914713
H            1.29824812717988       -6.23621665884533       -1.11641617534479
H            1.24812253669773       -7.64251260548629        0.90457874806164
H            1.49871135613729       -6.22931522861381        1.93082632448061
H            0.00822117219609       -6.38679269981238        1.00097835166568
H            3.44284285110844       -7.15118472733777       -0.33076546409405
H            3.69044598704795       -5.55913925899987       -1.05731146822609
H            3.70602122117401       -5.74091240516612        0.69625859215016
H            0.34887411679831       -4.33444858962429       -1.97625322948094
H           -0.13853968866330       -1.93333754575411       -1.89772575983169
H           -1.18839967678193       -1.76227604326922        1.75092651569739
H           -2.94194553920011       -3.46079579306500        1.55778370331827
H           -4.76132953737579       -4.38332808133966        0.51042847208430
H           -4.92460175510018       -3.80983437612878       -2.48470480963258
H           -5.50263648770817       -5.25956226777404       -1.66257350549017
H           -3.77300613505586       -4.90018950450484       -1.71261501519659
H           -7.04613956338028       -3.80658211129770       -0.23541267750986
H           -6.36315172924570       -2.51053661388841        0.75041791580051
H           -6.44772306853466       -2.33506009399823       -1.00340178668482
H           -4.40198672822418       -1.55049139495988       -1.96978505805215
H           -2.64530027736361        0.14142497729673       -1.77952897941933
H            1.69657697370169        4.56315326466789       -1.06023930357970
H            0.47936318489139        5.73067203857266       -1.26960817296436
H           -1.71647984923846        5.34655146488259       -0.98758574372613
H           -3.55758087510910        5.96961153594662       -0.91687915408783
H           -5.82454804794228        6.78829137495828       -0.67779349660667
H           -7.54988069983630        5.39277556810946        0.41397729982704
H           -6.97396029563765        3.18132305079205        1.25481965254976
H           -6.41224687890105        1.33516730934190        1.67119200184028
H           -5.16451930990450        0.26068373809901        2.01190263282967
H           -3.01340605139923        0.56304587260708        1.40903909091249
H            2.06383979086863        3.92522331505047        1.69020781793963
H            4.11801323514241        5.26848051782160        1.85198202614758
H            6.48127200345575        5.51621136977566        1.17585714364378
H            6.06164262855122        6.29437557103131       -0.34831638906321
H            7.04807777270306        4.83378695479256       -0.35664606099521
H            5.53174729172188        3.54235276078301       -1.78315372252449
H            3.48278797941718        2.19962475751232       -1.94665058980229
H            2.93672169462302       -0.88537421806144       -1.75827415913711
H            5.22586867092976       -1.75613153039996       -1.60714841835047

          :  Hamiltonian                  GFN2-xTB          :
         :: gradient norm              0.000039500431 Eh/a0 ::
         :: HOMO-LUMO gap              2.008202147746 eV    ::
         :: SCC energy              -138.940482120561 Eh    ::
         :: -> dispersion             -0.141343874627 Eh    ::
         :: repulsion energy           2.514666704645 Eh    ::

    * Orbital Energies and Occupations

         #    Occupation            Energy/Eh            Energy/eV
      -------------------------------------------------------------
         1        2.0000           -0.6473554             -17.6154
       ...           ...                  ...                  ...
       116        2.0000           -0.3998285             -10.8799
       117        2.0000           -0.3950285             -10.7493
       118        2.0000           -0.3943103             -10.7297
       119        2.0000           -0.3917271             -10.6594
       120        2.0000           -0.3907342             -10.6324
       121        2.0000           -0.3895502             -10.6002
       122        2.0000           -0.3823743             -10.4049
       123        2.0000           -0.3800014             -10.3404
       124        2.0000           -0.3753869             -10.2148
       125        2.0000           -0.3707523             -10.0887
       126        2.0000           -0.3644931              -9.9184
       127        2.0000           -0.3586089              -9.7582
       128        2.0000           -0.3232501              -8.7961 (HOMO)
       129                         -0.2494500              -6.7879 (LUMO)
       130                         -0.2380086              -6.4765
       131                         -0.2292314              -6.2377
       132                         -0.2211307              -6.0173
       133                         -0.2182218              -5.9381
       134                         -0.2146432              -5.8407
       135                         -0.2130460              -5.7973
       136                         -0.2102638              -5.7216
       137                         -0.2092281              -5.6934
       138                         -0.2068291              -5.6281
       139                         -0.2023036              -5.5050
       ...                                ...                  ...
       254                          0.7317401              19.9117
      -------------------------------------------------------------
                  HL-Gap            0.0738001 Eh            2.0082 eV

     #   Z          covCN         q      C6AA      α(0)
     1   6 C        3.758    -0.107    22.600     6.778
     2   6 C        2.967     0.014    27.699     8.633
     3   6 C        2.924    -0.041    29.016     8.834
     4   6 C        2.924    -0.034    28.856     8.809
     5   6 C        2.978     0.011    27.773     8.645
     6   6 C        2.987    -0.005    28.141     8.702
     7   6 C        2.985    -0.005    28.131     8.700
     8   6 C        2.978     0.012    27.733     8.638
     9   6 C        2.924    -0.034    28.843     8.807
    10   6 C        2.924    -0.036    28.885     8.814
    11   6 C        2.973     0.007    27.864     8.659
    12   6 C        3.855    -0.013    20.779     6.483
    13   6 C        3.756    -0.101    22.483     6.761
    14   6 C        3.756    -0.101    22.482     6.761
    15   6 C        2.925    -0.040    28.986     8.829
    16   6 C        2.924    -0.034    28.837     8.806
    17   6 C        2.978    -0.004    28.112     8.697
    18   6 C        2.980     0.017    27.622     8.621
    19   6 C        2.922    -0.035    28.882     8.813
    20   6 C        2.925    -0.041    29.027     8.835
    21   6 C        2.973     0.004    27.923     8.668
    22   6 C        3.855    -0.014    20.779     6.483
    23   6 C        3.756    -0.101    22.487     6.761
    24   6 C        3.756    -0.100    22.467     6.758
    25   6 C        2.924    -0.036    28.899     8.816
    26   6 C        2.924    -0.033    28.831     8.805
    27   6 C        2.982    -0.002    28.079     8.692
    28   6 C        2.982    -0.015    28.390     8.740
    29   6 C        2.891     0.071    26.410     8.426
    30   7 N        2.644    -0.287    27.416     7.776
    31   6 C        2.926    -0.077    29.920     8.970
    32   6 C        2.979    -0.005    28.142     8.702
    33   6 C        2.981     0.004    27.937     8.670
    34   6 C        2.922    -0.035    28.876     8.812
    35   6 C        2.917    -0.035    28.881     8.813
    36   6 C        2.916    -0.035    28.880     8.812
    37   6 C        2.921    -0.036    28.901     8.816
    38   6 C        2.986    -0.007    28.185     8.709
    39   6 C        2.892     0.066    26.524     8.444
    40   7 N        2.641    -0.286    27.370     7.770
    41   6 C        2.924    -0.075    29.860     8.961
    42   6 C        2.980    -0.003    28.102     8.696
    43   6 C        2.977    -0.006    28.175     8.707
    44   6 C        2.980     0.010    27.789     8.647
    45   6 C        2.923    -0.038    28.934     8.821
    46   6 C        2.923    -0.043    29.060     8.840
    47   6 C        2.966     0.014    27.707     8.634
    48   6 C        3.758    -0.108    22.619     6.781
    49   6 C        2.924    -0.041    29.020     8.834
    50   6 C        2.921    -0.036    28.907     8.817
    51   6 C        2.924    -0.033    28.822     8.804
    52   6 C        2.925    -0.041    29.009     8.833
    53   1 H        0.924     0.045     2.385     2.415
    54   1 H        0.925     0.039     2.457     2.451
    55   1 H        0.925     0.041     2.430     2.438
    56   1 H        0.926     0.026     2.647     2.544
    57   1 H        0.926     0.025     2.665     2.553
    58   1 H        0.926     0.025     2.657     2.549
    59   1 H        0.926     0.028     2.619     2.531
    60   1 H        0.924     0.029     2.602     2.522
    61   1 H        0.925     0.034     2.527     2.486
    62   1 H        0.925     0.037     2.492     2.468
    63   1 H        0.925     0.032     2.556     2.500
    64   1 H        0.925     0.034     2.528     2.486
    65   1 H        0.925     0.032     2.555     2.500
    66   1 H        0.925     0.037     2.494     2.470
    67   1 H        0.925     0.024     2.676     2.558
    68   1 H        0.926     0.025     2.655     2.548
    69   1 H        0.926     0.026     2.642     2.542
    70   1 H        0.925     0.022     2.696     2.567
    71   1 H        0.924     0.029     2.607     2.525
    72   1 H        0.925     0.037     2.485     2.465
    73   1 H        0.925     0.034     2.530     2.487
    74   1 H        0.925     0.033     2.544     2.494
    75   1 H        0.925     0.035     2.519     2.482
    76   1 H        0.925     0.028     2.619     2.531
    77   1 H        0.925     0.037     2.490     2.468
    78   1 H        0.926     0.028     2.617     2.530
    79   1 H        0.926     0.028     2.616     2.529
    80   1 H        0.860     0.169     1.280     1.772
    81   1 H        0.860     0.155     1.367     1.832
    82   1 H        0.926     0.021     2.716     2.577
    83   1 H        0.926     0.029     2.597     2.520
    84   1 H        0.926     0.023     2.687     2.563
    85   1 H        0.926     0.022     2.696     2.568
    86   1 H        0.926     0.022     2.698     2.568
    87   1 H        0.860     0.158     1.349     1.820
    88   1 H        0.860     0.155     1.370     1.833
    89   1 H        0.926     0.027     2.623     2.533
    90   1 H        0.925     0.029     2.603     2.523
    91   1 H        0.926     0.028     2.608     2.526
    92   1 H        0.925     0.042     2.418     2.432
    93   1 H        0.924     0.045     2.379     2.412
    94   1 H        0.925     0.042     2.421     2.433
    95   1 H        0.926     0.029     2.604     2.524
    96   1 H        0.926     0.031     2.576     2.510
    97   1 H        0.926     0.026     2.642     2.542
    98   1 H        0.926     0.026     2.637     2.539

molecular dipole:
                 x           y           z       tot (Debye)
 q only:        0.474      -0.128      -0.015
   full:        0.544      -0.197      -0.026       1.473

 projected vibrational frequencies (cm⁻¹)
eigval :       -0.00    -0.00     0.00     0.00     0.00     0.00
eigval :      -10.32     9.51    12.08    14.24    15.90    18.13
eigval :       19.46    27.78    30.05    33.16    34.83    38.32
eigval :       51.93    66.20    68.69    73.40    80.38    86.63
eigval :       93.61   101.64   109.88   121.41   130.65   134.48
eigval :      150.73   155.82   163.86   173.59   174.90   190.31
eigval :      192.14   194.67   198.62   207.27   215.68   218.96
eigval :      226.11   242.70   246.63   253.96   270.09   279.25
eigval :      295.90   305.05   311.25   319.71   329.16   335.56
eigval :      342.61   348.09   355.26   359.34   373.79   376.22
eigval :      376.93   379.18   381.72   391.50   405.10   413.81
eigval :      417.24   437.53   451.08   461.98   478.03   480.69
eigval :      487.60   498.09   508.23   510.74   518.58   519.81
eigval :      531.54   536.26   550.40   551.53   563.25   566.38
eigval :      573.01   587.45   596.65   603.20   604.55   613.15
eigval :      615.03   626.12   644.80   650.35   662.24   668.69
eigval :      673.53   690.73   693.63   701.10   713.73   723.70
eigval :      735.44   736.60   752.79   761.53   766.99   782.81
eigval :      799.16   803.25   807.24   812.82   816.63   818.61
eigval :      832.53   851.79   856.44   862.90   867.02   873.61
eigval :      874.27   874.82   875.62   903.67   908.92   915.36
eigval :      916.56   917.14   917.57   920.25   927.68   927.89
eigval :      928.19   928.58   932.40   939.88   945.11   946.46
eigval :      946.52   985.20   985.61  1000.56  1003.96  1008.35
eigval :     1008.57  1016.85  1021.63  1031.91  1032.22  1033.83
eigval :     1045.30  1064.38  1078.08  1080.53  1093.11  1101.73
eigval :     1115.50  1137.20  1137.37  1140.15  1141.03  1141.77
eigval :     1145.47  1152.34  1170.41  1170.85  1188.06  1191.79
eigval :     1194.00  1200.06  1203.21  1203.71  1206.79  1221.62
eigval :     1228.58  1233.70  1240.02  1246.22  1252.05  1258.54
eigval :     1273.29  1276.56  1276.66  1279.21  1280.99  1288.13
eigval :     1305.15  1306.60  1309.22  1311.91  1314.20  1314.68
eigval :     1315.56  1321.28  1331.33  1345.93  1346.44  1371.72
eigval :     1387.26  1392.36  1398.32  1400.80  1403.43  1403.75
eigval :     1404.02  1405.04  1406.34  1408.85  1409.96  1411.63
eigval :     1415.16  1420.25  1420.87  1432.16  1472.38  1477.60
eigval :     1483.43  1483.81  1484.13  1486.69  1491.25  1495.60
eigval :     1495.84  1496.10  1496.63  1497.67  1499.21  1502.44
eigval :     1503.88  1504.44  1505.25  1507.72  1510.28  1512.34
eigval :     1525.22  1536.24  1543.45  1570.06  1571.93  1576.28
eigval :     1576.78  1579.28  1592.25  1604.36  1606.62  1607.54
eigval :     1610.17  1612.38  2925.28  2925.65  2991.88  2994.86
eigval :     3023.24  3024.07  3027.30  3027.32  3029.02  3030.27
eigval :     3030.96  3033.35  3033.82  3035.20  3038.66  3039.33
eigval :     3039.99  3040.65  3043.12  3043.39  3061.60  3062.41
eigval :     3065.46  3066.60  3066.92  3067.88  3071.42  3071.49
eigval :     3072.93  3074.42  3078.69  3080.52  3080.70  3082.87
eigval :     3083.38  3084.13  3084.29  3085.59  3088.33  3093.11
eigval :     3106.06  3123.86  3448.89  3463.80  3498.49  3521.61

   temp. (K)  partition function   enthalpy   heat capacity  entropy
                                   cal/mol     cal/K/mol   cal/K/mol   J/K/mol
 298.15  VIB  0.558E+25            29069.302    172.878    184.412
         ROT  0.915E+08              888.752      2.981     39.410
         INT  0.511E+33            29958.054    175.859    223.823
         TR   0.170E+29             1481.254      4.968     45.389
         TOT                       31439.3079   180.8273   269.2115  1126.3810

       T/K    H(0)-H(T)+PV         H(T)/Eh          T*S/Eh         G(T)/Eh
   ------------------------------------------------------------------------
    298.15    0.501017E-01    0.848639E+00    0.127911E+00    0.720728E+00
   ------------------------------------------------------------------------

         :::::::::::::::::::::::::::::::::::::::::::::::::::::
         ::                  THERMODYNAMIC                  ::
         :::::::::::::::::::::::::::::::::::::::::::::::::::::
         :: total free energy        -135.705087847738 Eh   ::
         ::.................................................::
         :: total energy             -136.425815415913 Eh   ::
         :: zero point energy           0.798536918020 Eh   ::
         :: G(RRHO) w/o ZPVE           -0.077809349846 Eh   ::
         :: G(RRHO) contrib.            0.720727568174 Eh   ::
         :::::::::::::::::::::::::::::::::::::::::::::::::::::

           -------------------------------------------------
          | TOTAL ENERGY             -136.425815415913 Eh   |
          | TOTAL ENTHALPY           -135.577176771653 Eh   |
          | TOTAL FREE ENERGY        -135.705087847738 Eh   |
          | GRADIENT NORM               0.000039536199 Eh/α |
          | HOMO-LUMO GAP               2.008202393481 eV   |
           -------------------------------------------------

 * finished run on 2025/08/24 at 23:41:12.818
