   * xtb version 6.7.1 (edcfbbe) compiled by 'albert@albert-system' on 2024-07-22

   ID    Z sym.   atoms
    1    6 C      1-29, 31-39, 41-52
    2    7 N      30, 40
    3    1 H      53-98

          program call               : xtb data2507/gas/IPTAC/IPTAC_gas_T1_crest.xyz --gfn 2 --spinpol --tblite --uhf 2 --ohess vtight --parallel 40 --molden --ceasefiles --namespace data2507/gas/IPTAC/IPTAC_gas_T1_finalOpt
 * total energy  :  -136.3596057 Eh     change        0.9933277E-07 Eh
 * total energy  :  -136.3596133 Eh     change       -0.7574287E-05 Eh
 * total energy  :  -136.3596164 Eh     change       -0.3188731E-05 Eh
 * total energy  :  -136.3596179 Eh     change       -0.1477692E-05 Eh
 * total energy  :  -136.3596206 Eh     change       -0.2688473E-05 Eh
 * total energy  :  -136.3596224 Eh     change       -0.1758810E-05 Eh
 * total energy  :  -136.3596243 Eh     change       -0.1931766E-05 Eh
 * total energy  :  -136.3596265 Eh     change       -0.2194548E-05 Eh
 * total energy  :  -136.3596286 Eh     change       -0.2151123E-05 Eh
 * total energy  :  -136.3596302 Eh     change       -0.1601074E-05 Eh
 * total energy  :  -136.3596489 Eh     change       -0.5084289E-06 Eh
 * total energy  :  -136.3596493 Eh     change       -0.4680441E-06 Eh
 * total energy  :  -136.3596499 Eh     change       -0.5451148E-06 Eh
 * total energy  :  -136.3596504 Eh     change       -0.5037890E-06 Eh
 * total energy  :  -136.3596508 Eh     change       -0.3772645E-06 Eh
 * total energy  :  -136.3596512 Eh     change       -0.3887376E-06 Eh
 * total energy  :  -136.3596515 Eh     change       -0.2954391E-06 Eh
 * total energy  :  -136.3596516 Eh     change       -0.1599248E-06 Eh
 * total energy  :  -136.3596517 Eh     change       -0.6368589E-07 Eh
   *** GEOMETRY OPTIMIZATION CONVERGED AFTER 44 ITERATIONS ***

 final structure:
================
98
 xtb: 6.7.1 (edcfbbe)
C            7.42302156802420       -0.58729547533601        0.32664607276736
C            5.96438706383356       -0.25692352359151        0.22335850481967
C            5.33567759572013        0.50473292565788        1.19990827790927
C            3.98767866708129        0.79393328138635        1.11627145588689
C            3.22840700679579        0.32484769626066        0.04980937364250
C            1.78331853984159        0.62158741084130       -0.03802317547009
C            0.87309231331170       -0.42830079189583       -0.04913014690133
C            1.33283331816753       -1.82683262903804       -0.06444377468559
C            2.17236787174676       -2.32596496162754        0.92656116915064
C            2.55929924364172       -3.65199405231477        0.91769298591370
C            2.12634139697882       -4.52119551792078       -0.07500249027446
C            2.52636991313174       -5.97572912542239       -0.05261425917275
C            3.29806886188430       -6.35571757850847       -1.31768794132016
C            1.29287735556281       -6.86536025385099        0.12016565751385
C            1.30310707922366       -4.01582409959736       -1.07460486334835
C            0.91233758602999       -2.69318348847716       -1.07123914568107
C           -0.51870193124172       -0.15181833302524       -0.00108404346680
C           -1.44590250664625       -1.29741257355863       -0.00360691466709
C           -1.35128217862162       -2.30958476839890        0.94944935681837
C           -2.17595347631541       -3.41454194354772        0.89056486999623
C           -3.11892010545440       -3.55181691287292       -0.12116596946241
C           -3.99851291968091       -4.77461910141310       -0.20972040471994
C           -4.87617494883113       -4.91500074306078        1.03591576459282
C           -3.14880165122866       -6.02991905515472       -0.41978838221167
C           -3.22030206194280       -2.53573212154847       -1.06407458238518
C           -2.39914698328540       -1.42710110101204       -1.01052275043309
C           -0.97131366910880        1.16264360553908       -0.01038474821126
C           -0.04838973525727        2.22911816254260       -0.23267912970959
C           -0.57731200884321        3.47341290869235       -0.65260762767206
N            0.21053163751034        4.52342391551032       -1.05018030277649
C           -1.98189832656585        3.66933964989170       -0.74333916341596
C           -2.88585848981873        2.72653854633998       -0.33267714020407
C           -4.32439978519873        2.93804386579536       -0.34040761932991
C           -4.90964858444992        3.96709638009276       -1.07019637990497
C           -6.27996132012359        4.18909323597172       -1.04674817843055
C           -7.09419232643417        3.37314055855400       -0.28116471194959
C           -6.54635459533840        2.32850059590215        0.43535920079835
C           -5.16291260187597        2.07434488878630        0.41437783606871
C           -4.57068743955049        0.98553560322705        1.11977160662230
N           -5.31167068844040        0.16760763895130        1.94186579027624
C           -3.19903741462269        0.72186786720942        0.98868872519575
C           -2.37145120583901        1.49234073460015        0.20695857933828
C            1.34444917756864        1.95128011189204       -0.12514456319268
C            2.34506695499360        3.02201313842540       -0.02461457542244
C            2.24248462148725        3.97897582318559        0.99024715420532
C            3.20887713878457        4.95001735260244        1.14294410967347
C            4.30988404451374        5.00641451700733        0.29312019701392
C            5.36505402121274        6.05305205245955        0.48587498667082
C            4.40987478494319        4.06064695752235       -0.71939357756951
C            3.44883852696619        3.08124541694809       -0.87702646107647
C            3.85470608014647       -0.44161949634135       -0.92719624562266
C            5.20352208352286       -0.72548827303542       -0.84015031644904
H            7.95627269534445        0.17897280869769        0.88489018503192
H            7.87050516711267       -0.68165332556120       -0.66045502091821
H            7.55435533701021       -1.53709680038589        0.84691346831157
H            5.90976017536783        0.87730174601653        2.03693352666637
H            3.51438918250515        1.38382139617617        1.88818416652453
H            2.50665217078401       -1.67413588586714        1.72082690790371
H            3.20353250448940       -4.02075236288322        1.70443109199986
H            3.18554258000662       -6.13542533496811        0.80856068819611
H            4.16611660282312       -5.71096332127257       -1.43763081953915
H            3.63777699044951       -7.38773597982999       -1.25737918386151
H            2.67035206234761       -6.25284939344565       -2.19928135344677
H            1.58544645735112       -7.91134864727554        0.18620773652379
H            0.75904398593383       -6.59590992879725        1.02907613613155
H            0.61354332193047       -6.74986988816688       -0.72079739658775
H            0.95501121550140       -4.66284967268987       -1.86665442064298
H            0.27400968759146       -2.32030323577376       -1.85952852241893
H           -0.62807712737335       -2.22238061296073        1.74739710046844
H           -2.07410011991223       -4.18364562629195        1.64248590426556
H           -4.65741543562831       -4.65957301513227       -1.07823814687652
H           -5.48883099706940       -4.02543760299762        1.16987721674952
H           -4.26611428155390       -5.04970300500489        1.92572691491546
H           -5.53476719248823       -5.77557320413747        0.93880372576038
H           -3.78600127417397       -6.90328784804421       -0.54300968540374
H           -2.53217578813546       -5.92130827401861       -1.30936784696650
H           -2.49284178342000       -6.19913651314240        0.43046712264595
H           -3.94663963940563       -2.62030664140205       -1.86117527231662
H           -2.48521492067343       -0.65295015603290       -1.76002140192288
H            1.18139629547299        4.34350046245221       -1.24784576254540
H           -0.23822439437031        5.24628517668304       -1.58797861975872
H           -2.31262723561528        4.62825789034334       -1.11331847407503
H           -4.29506092988014        4.60711083315857       -1.68403768982729
H           -6.70417030471973        4.99773026943313       -1.62297940531794
H           -8.16005977553525        3.54715142824984       -0.24708653973317
H           -7.20361270942823        1.70599888895323        1.02484202344509
H           -6.30490118985848        0.12062228168489        1.78892808031691
H           -4.87616805119005       -0.70358883094432        2.19984293428427
H           -2.80303237748288       -0.12915186649438        1.52027867919234
H            1.39738159666075        3.94186435910373        1.66243572880867
H            3.11739616677034        5.67497991538202        1.93973787247854
H            6.00308039213274        6.12910466094737       -0.39141035728012
H            5.99171240521944        5.80058459272378        1.34201624886353
H            4.91426680741110        7.02503654369413        0.67938158271049
H            5.25479345905901        4.08786742442491       -1.39326827064123
H            3.54385423970351        2.35942412391467       -1.67517830953197
H            3.27937670913625       -0.80904452177546       -1.76498579568533
H            5.67455896388332       -1.31960277679384       -1.61099775842463

 projected vibrational frequencies (cm⁻¹)
eigval :       -0.00    -0.00     0.00     0.00     0.00     0.00
eigval :       -8.78    -3.91    12.76    15.27    17.01    20.26
eigval :       22.52    27.26    31.44    33.82    36.50    37.33
eigval :       53.74    69.73    72.47    77.50    83.92    90.69
eigval :       96.18    98.52   105.45   120.81   132.63   137.72
eigval :      142.69   155.96   158.75   170.75   183.53   185.23
eigval :      190.74   192.01   194.94   205.58   214.80   218.09
eigval :      231.17   237.15   247.86   252.25   270.23   284.99
eigval :      293.63   304.44   314.60   320.17   329.48   337.66
eigval :      339.56   343.25   353.22   361.23   375.83   376.74
eigval :      377.76   379.71   386.99   392.52   404.63   409.25
eigval :      416.60   434.00   451.95   453.33   462.17   473.47
eigval :      478.65   484.83   495.99   498.75   506.49   509.63
eigval :      519.41   521.21   529.01   541.91   546.22   546.79
eigval :      563.30   568.84   584.17   590.58   596.32   601.62
eigval :      607.43   612.84   616.26   637.01   650.61   658.34
eigval :      664.98   682.57   689.23   694.94   706.99   710.76
eigval :      717.88   734.52   749.53   751.20   758.16   782.98
eigval :      796.43   800.34   801.69   804.96   814.87   815.89
eigval :      829.09   830.98   846.89   854.53   859.98   870.27
eigval :      872.01   873.81   874.84   883.97   902.46   909.20
eigval :      913.69   915.99   916.48   917.41   925.44   927.27
eigval :      927.93   928.41   931.20   938.69   943.59   945.01
eigval :      946.02   983.91   984.69   988.44   996.15  1006.02
eigval :     1007.18  1008.11  1013.54  1020.05  1023.09  1030.65
eigval :     1031.51  1052.32  1077.18  1079.17  1091.27  1093.60
eigval :     1114.45  1136.30  1136.62  1136.78  1140.61  1142.82
eigval :     1145.25  1146.30  1168.66  1170.18  1171.16  1181.11
eigval :     1186.99  1198.92  1201.86  1202.81  1205.69  1218.56
eigval :     1226.93  1229.85  1236.12  1244.00  1247.10  1252.93
eigval :     1257.62  1266.86  1276.83  1277.72  1278.66  1280.57
eigval :     1282.87  1292.32  1308.34  1309.41  1313.51  1313.84
eigval :     1314.80  1320.93  1324.59  1345.49  1346.98  1358.59
eigval :     1362.52  1375.00  1382.26  1389.20  1400.37  1400.80
eigval :     1402.03  1402.56  1402.70  1403.98  1406.72  1408.53
eigval :     1411.13  1413.45  1417.69  1418.25  1424.01  1442.32
eigval :     1447.93  1473.55  1477.62  1481.56  1483.51  1484.67
eigval :     1485.03  1490.20  1491.22  1491.93  1494.23  1495.09
eigval :     1496.11  1497.46  1500.30  1502.78  1503.14  1506.95
eigval :     1508.70  1511.59  1531.04  1536.69  1540.11  1554.45
eigval :     1565.50  1568.15  1570.65  1576.03  1598.36  1602.26
eigval :     1604.85  1610.44  2923.45  2923.65  2991.43  2992.89
eigval :     3020.34  3021.28  3022.57  3024.84  3027.49  3028.24
eigval :     3029.48  3031.90  3032.05  3032.19  3033.54  3037.29
eigval :     3037.72  3038.43  3041.66  3041.77  3057.64  3059.15
eigval :     3064.20  3064.79  3065.53  3065.94  3067.30  3069.19
eigval :     3070.38  3074.27  3075.25  3077.43  3079.80  3080.44
eigval :     3081.80  3082.02  3082.54  3084.90  3085.15  3085.50
eigval :     3096.34  3100.52  3438.24  3451.86  3507.20  3510.10

   temp. (K)  partition function   enthalpy   heat capacity  entropy
                                   cal/mol     cal/K/mol   cal/K/mol   J/K/mol
 298.15  VIB  0.975E+25            29263.456    174.602    185.957
         ROT  0.915E+08              888.752      2.981     39.412
         INT  0.892E+33            30152.208    177.582    225.369
         TR   0.170E+29             1481.254      4.968     45.389
         TOT                       31633.4619   182.5506   270.7575  1132.8494

       T/K    H(0)-H(T)+PV         H(T)/Eh          T*S/Eh         G(T)/Eh
   ------------------------------------------------------------------------
    298.15    0.504111E-01    0.845306E+00    0.128646E+00    0.716661E+00
   ------------------------------------------------------------------------

         :::::::::::::::::::::::::::::::::::::::::::::::::::::
         ::                  THERMODYNAMIC                  ::
         :::::::::::::::::::::::::::::::::::::::::::::::::::::
         :: total free energy        -135.642991064642 Eh   ::
         ::.................................................::
         :: total energy             -136.359651673139 Eh   ::
         :: zero point energy           0.794895105729 Eh   ::
         :: G(RRHO) w/o ZPVE           -0.078234497231 Eh   ::
         :: G(RRHO) contrib.            0.716660608498 Eh   ::
         :::::::::::::::::::::::::::::::::::::::::::::::::::::

           -------------------------------------------------
          | TOTAL ENERGY             -136.359651673139 Eh   |
          | TOTAL ENTHALPY           -135.514345437040 Eh   |
          | TOTAL FREE ENERGY        -135.642991064642 Eh   |
          | GRADIENT NORM               0.000079859228 Eh/α |
           -------------------------------------------------

 * finished run on 2025/08/25 at 00:00:22.565
