   * xtb version 6.7.1 (edcfbbe) compiled by 'albert@albert-system' on 2024-07-22

   ID    Z sym.   atoms
    1    7 N      1, 13, 35
    2    6 C      2-12, 14-34, 36-46
    3    1 H      47-73

          program call               : xtb data2507/gas/BPCN-2Cz/BPCN-2Cz.xyz --gfn 2 --ohess vtight --parallel 40 --molden --ceasefiles --namespace data2507/gas/BPCN-2Cz/BPCN-2Cz_gas_S0_preOpt
          :  Hamiltonian                  GFN2-xTB          :
 * total energy  :  -114.6250637 Eh     change       -0.2370541E-08 Eh
 * total energy  :  -114.6387971 Eh     change       -0.1373338E-01 Eh
 * total energy  :  -114.6417048 Eh     change       -0.2907736E-02 Eh
 * total energy  :  -114.6413186 Eh     change        0.3862191E-03 Eh
 * total energy  :  -114.6429574 Eh     change       -0.1638744E-02 Eh
 * total energy  :  -114.6433507 Eh     change       -0.3933650E-03 Eh
 * total energy  :  -114.6436834 Eh     change       -0.3327230E-03 Eh
 * total energy  :  -114.6439241 Eh     change       -0.2406828E-03 Eh
 * total energy  :  -114.6441701 Eh     change       -0.2459346E-03 Eh
 * total energy  :  -114.6444360 Eh     change       -0.2659055E-03 Eh
 * total energy  :  -114.6463866 Eh     change       -0.7597442E-06 Eh
 * total energy  :  -114.6463875 Eh     change       -0.8394374E-06 Eh
 * total energy  :  -114.6463884 Eh     change       -0.9053376E-06 Eh
 * total energy  :  -114.6463894 Eh     change       -0.1051836E-05 Eh
 * total energy  :  -114.6463904 Eh     change       -0.1037259E-05 Eh
 * total energy  :  -114.6463916 Eh     change       -0.1111524E-05 Eh
 * total energy  :  -114.6463926 Eh     change       -0.1084366E-05 Eh
 * total energy  :  -114.6463938 Eh     change       -0.1109978E-05 Eh
 * total energy  :  -114.6463938 Eh     change       -0.6469335E-08 Eh
   *** GEOMETRY OPTIMIZATION CONVERGED AFTER 68 ITERATIONS ***

 final structure:
================
73
 xtb: 6.7.1 (edcfbbe)
N            9.38625661151538        1.39113842908390        0.05730638948236
C            9.22107199151608        0.27409796144904       -0.14444698945503
C            9.07850540853590       -1.10493255741018       -0.42350309343408
C           10.23359145193445       -1.85650231131310       -0.64279471333930
C           10.13583670064275       -3.19422553025131       -0.97019471190991
C            8.88663689850461       -3.78555421866380       -1.08888829630487
C            7.73951876462836       -3.04355249377501       -0.87517104685870
C            7.81001874794380       -1.69686709058041       -0.53216438997619
C            6.58803839278936       -0.91646923291973       -0.29871904218352
C            6.47167097022109       -0.07888802990034        0.80863167455492
C            5.32418716329461        0.65804922454340        1.01674246303499
C            4.26946994766292        0.58555676587679        0.10965517745807
N            3.11827661536355        1.35451062867580        0.29941234319133
C            3.08786390913422        2.71349115012551        0.55585193175715
C            4.13531922387858        3.61536074438532        0.67434678075534
C            3.82098505489640        4.94065379705051        0.90848436183422
C            2.49956092583688        5.36846998087528        1.01344213775632
C            1.45284951291047        4.48018609117489        0.86789495665484
C            1.74352627556065        3.14320406267082        0.63224726493103
C            0.92823562412942        1.98111168086969        0.40998256038665
C           -0.44194044718770        1.77583440746554        0.37001329934471
C           -0.92999942634783        0.49401244414075        0.15235559895693
C           -2.37900267512786        0.25062870768167        0.08142408009081
C           -3.19363775491890        1.12484094703881       -0.65109731889454
C           -4.55564147440037        0.93767399415059       -0.76424099464223
C           -5.12036919083849       -0.14719887921013       -0.10884352369575
C           -4.31490010876762       -1.04810319490938        0.62439249371519
C           -2.94618650651812       -0.84641627473368        0.71559388270022
C           -5.19665712035287       -2.06198086162778        1.13216463070087
C           -5.00474082928184       -3.18370821495961        1.92755599173292
C           -6.10050638565829       -3.95525117495603        2.25879849465669
C           -7.37712985482341       -3.61219821007225        1.81901697935676
C           -7.59338616152164       -2.50112687987956        1.02660222471889
C           -6.49271398661421       -1.73475119665190        0.67108397742695
N           -6.43250965901206       -0.57536527581153       -0.07645991194976
C           -7.51345784720783        0.04903212207148       -0.71363630917117
C           -8.36600989469684       -0.69002818450703       -1.52895527135922
C           -9.43082618060220       -0.07047583898774       -2.15610931610896
C           -9.64855378598235        1.28674919150656       -1.98630305200352
C           -8.79873961183265        2.02439425111580       -1.17893142161635
C           -7.73763041438145        1.41162616004148       -0.53873683467964
C           -0.03260551459484       -0.57078099369707       -0.00192850664225
C            1.33485598913760       -0.38738906908902        0.02393326588804
C            1.81632697819305        0.90052853401768        0.20915644893842
C            4.37620298460176       -0.25739803407179       -0.99477295767203
C            5.51857991321036       -1.00559417764495       -1.18781037626075
H           11.19810538024917       -1.37741812721663       -0.55797913001594
H           11.03024509285803       -3.77505791398010       -1.13660117816944
H            8.80823036626651       -4.83116955687532       -1.34710280786918
H            6.77001864191478       -3.51307983928753       -0.95458434944219
H            7.27619424777649       -0.02316946436022        1.52673732584048
H            5.23331891673252        1.28437718890139        1.89090636107708
H            5.16299814040241        3.30075808471142        0.57432528057051
H            4.61931227150612        5.66095686725403        1.00841746438358
H            2.29591751174244        6.41228482251461        1.20087560527430
H            0.42781764263864        4.81324430905493        0.93095655146311
H           -1.12117593546847        2.59976264323621        0.52941375884057
H           -2.73225659667204        1.95590953363028       -1.16415993983205
H           -5.15731853013046        1.60862814243626       -1.35885382433731
H           -2.33268065556148       -1.52658687359140        1.28717527320144
H           -4.01753141129213       -3.43937794284585        2.28217698139521
H           -5.97308924784771       -4.83261466665178        2.87545317074005
H           -8.21771648998658       -4.22616895157732        2.10738965441398
H           -8.58912932843194       -2.23349479469475        0.70625863266363
H           -8.17930288191111       -1.74320510271584       -1.67737796516593
H          -10.08844352098102       -0.64889962593693       -2.78812558488960
H          -10.47804156993866        1.76811978173463       -2.48190992991541
H           -8.96748752206258        3.08209266032783       -1.04013007269338
H           -7.08631144040475        1.97890198581876        0.10923025188740
H           -0.42703171491325       -1.56273262738359       -0.16652542473820
H            2.00524644046455       -1.22620003098580       -0.08964634817541
H            3.56868903741642       -0.30277890537429       -1.70989420278803
H            5.60118293025735       -1.63947594654513       -2.05880588558398

          :  Hamiltonian                  GFN2-xTB          :
         :: gradient norm              0.000071011796 Eh/a0 ::
         :: HOMO-LUMO gap              2.040597796240 eV    ::
         :: SCC energy              -116.874338941053 Eh    ::
         :: -> dispersion             -0.100615410992 Eh    ::
         :: repulsion energy           2.227945179611 Eh    ::

    * Orbital Energies and Occupations

         #    Occupation            Energy/Eh            Energy/eV
      -------------------------------------------------------------
         1        2.0000           -0.6745240             -18.3547
       ...           ...                  ...                  ...
        95        2.0000           -0.4182563             -11.3813
        96        2.0000           -0.4164314             -11.3317
        97        2.0000           -0.4136614             -11.2563
        98        2.0000           -0.4120793             -11.2132
        99        2.0000           -0.4113805             -11.1942
       100        2.0000           -0.4092287             -11.1357
       101        2.0000           -0.4050027             -11.0207
       102        2.0000           -0.4030944             -10.9688
       103        2.0000           -0.3949847             -10.7481
       104        2.0000           -0.3766691             -10.2497
       105        2.0000           -0.3740837             -10.1793
       106        2.0000           -0.3639601              -9.9039
       107        2.0000           -0.3522574              -9.5854 (HOMO)
       108                         -0.2772668              -7.5448 (LUMO)
       109                         -0.2568874              -6.9903
       110                         -0.2430060              -6.6125
       111                         -0.2413160              -6.5665
       112                         -0.2365143              -6.4359
       113                         -0.2350159              -6.3951
       114                         -0.2318383              -6.3086
       115                         -0.2296627              -6.2494
       116                         -0.2216321              -6.0309
       117                         -0.2114957              -5.7551
       118                         -0.2049040              -5.5757
       ...                                ...                  ...
       211                          1.1666822              31.7470
      -------------------------------------------------------------
                  HL-Gap            0.0749906 Eh            2.0406 eV

     #   Z          covCN         q      C6AA      α(0)
     1   7 N        0.911    -0.242    26.309     7.418
     2   6 C        1.913     0.114    28.295     8.591
     3   6 C        2.977     0.013    27.720     8.636
     4   6 C        2.929    -0.020    28.513     8.757
     5   6 C        2.918    -0.028    28.703     8.785
     6   6 C        2.918    -0.023    28.569     8.765
     7   6 C        2.924    -0.032    28.790     8.799
     8   6 C        2.981     0.020    27.562     8.612
     9   6 C        2.977     0.004    27.921     8.668
    10   6 C        2.923    -0.028    28.704     8.786
    11   6 C        2.921    -0.041    29.021     8.834
    12   6 C        2.913     0.067    26.506     8.442
    13   7 N        2.802    -0.043    22.062     6.976
    14   6 C        3.074     0.046    26.884     8.501
    15   6 C        2.910    -0.051    29.254     8.869
    16   6 C        2.924    -0.033    28.814     8.803
    17   6 C        2.920    -0.040    29.003     8.831
    18   6 C        2.913    -0.033    28.820     8.803
    19   6 C        3.068    -0.017    28.352     8.731
    20   6 C        3.064    -0.017    28.372     8.735
    21   6 C        2.918    -0.039    28.959     8.825
    22   6 C        2.977     0.000    28.013     8.682
    23   6 C        2.977    -0.000    28.031     8.685
    24   6 C        2.929    -0.039    28.960     8.825
    25   6 C        2.908    -0.052    29.290     8.874
    26   6 C        3.077     0.045    26.920     8.507
    27   6 C        3.065    -0.018    28.393     8.738
    28   6 C        2.918    -0.039    28.963     8.825
    29   6 C        3.068    -0.017    28.367     8.733
    30   6 C        2.913    -0.033    28.822     8.803
    31   6 C        2.920    -0.041    29.025     8.835
    32   6 C        2.924    -0.034    28.841     8.807
    33   6 C        2.910    -0.051    29.268     8.871
    34   6 C        3.076     0.047    26.876     8.500
    35   7 N        2.802    -0.044    22.094     6.981
    36   6 C        2.913     0.065    26.540     8.448
    37   6 C        2.922    -0.042    29.054     8.839
    38   6 C        2.920    -0.028    28.702     8.785
    39   6 C        2.919    -0.033    28.832     8.805
    40   6 C        2.920    -0.028    28.701     8.785
    41   6 C        2.922    -0.042    29.053     8.839
    42   6 C        2.929    -0.039    28.964     8.826
    43   6 C        2.908    -0.052    29.290     8.874
    44   6 C        3.074     0.044    26.942     8.510
    45   6 C        2.921    -0.043    29.068     8.841
    46   6 C        2.924    -0.032    28.809     8.802
    47   1 H        0.926     0.042     2.421     2.433
    48   1 H        0.926     0.039     2.456     2.451
    49   1 H        0.926     0.039     2.457     2.451
    50   1 H        0.926     0.039     2.455     2.450
    51   1 H        0.926     0.040     2.448     2.447
    52   1 H        0.926     0.047     2.358     2.401
    53   1 H        0.926     0.032     2.558     2.501
    54   1 H        0.926     0.031     2.565     2.505
    55   1 H        0.926     0.028     2.611     2.527
    56   1 H        0.926     0.031     2.577     2.510
    57   1 H        0.926     0.033     2.548     2.496
    58   1 H        0.926     0.031     2.570     2.507
    59   1 H        0.926     0.027     2.627     2.534
    60   1 H        0.926     0.032     2.560     2.502
    61   1 H        0.926     0.030     2.587     2.515
    62   1 H        0.926     0.027     2.630     2.536
    63   1 H        0.926     0.028     2.615     2.529
    64   1 H        0.926     0.027     2.635     2.538
    65   1 H        0.926     0.040     2.446     2.446
    66   1 H        0.926     0.036     2.509     2.477
    67   1 H        0.926     0.035     2.522     2.483
    68   1 H        0.926     0.036     2.505     2.475
    69   1 H        0.926     0.041     2.439     2.442
    70   1 H        0.926     0.031     2.569     2.507
    71   1 H        0.926     0.026     2.648     2.545
    72   1 H        0.926     0.044     2.397     2.421
    73   1 H        0.926     0.037     2.490     2.467

molecular dipole:
                 x           y           z       tot (Debye)
 q only:       -0.454      -0.954      -0.453
   full:       -0.472      -1.422      -0.605       4.107

 projected vibrational frequencies (cm⁻¹)
eigval :       -0.00    -0.00    -0.00     0.00     0.00     0.00
eigval :        9.84    13.72    16.77    27.85    30.43    36.83
eigval :       52.05    58.62    66.38    74.33    75.51    92.58
eigval :       96.42   111.33   122.30   128.25   138.14   144.14
eigval :      148.31   168.80   183.34   204.03   213.61   231.08
eigval :      254.33   263.44   264.00   282.54   287.38   325.80
eigval :      353.52   357.67   369.12   380.24   380.87   385.44
eigval :      393.77   395.61   402.43   413.31   418.15   428.13
eigval :      435.54   444.29   467.81   471.14   487.35   500.03
eigval :      523.91   526.19   535.44   537.39   547.84   555.36
eigval :      568.20   574.53   583.42   589.39   593.41   602.05
eigval :      605.07   612.00   621.45   625.79   647.08   670.07
eigval :      676.97   683.48   687.43   694.32   707.72   708.36
eigval :      709.15   725.34   747.93   763.45   767.74   775.62
eigval :      776.14   778.79   785.24   812.23   823.47   834.16
eigval :      848.45   869.06   869.65   875.79   877.93   880.17
eigval :      883.67   886.29   894.99   900.89   903.89   905.50
eigval :      910.59   914.89   918.73   919.88   921.10   921.95
eigval :      925.90   927.00   931.91   933.39   933.76   934.65
eigval :      937.11   997.74   998.29  1013.21  1030.54  1044.60
eigval :     1071.19  1072.57  1073.99  1080.71  1091.74  1118.18
eigval :     1121.81  1125.27  1133.18  1140.21  1155.54  1157.79
eigval :     1178.80  1178.89  1180.83  1181.31  1183.82  1184.62
eigval :     1200.63  1203.34  1211.30  1221.57  1232.25  1242.32
eigval :     1243.81  1248.22  1256.67  1268.50  1274.33  1275.69
eigval :     1289.49  1293.37  1304.32  1314.43  1316.90  1318.27
eigval :     1320.49  1346.11  1353.99  1360.44  1362.34  1366.72
eigval :     1382.75  1403.29  1418.17  1422.01  1426.69  1430.89
eigval :     1435.64  1439.39  1457.95  1460.46  1482.02  1483.84
eigval :     1484.78  1501.22  1502.64  1554.49  1562.47  1565.81
eigval :     1570.79  1582.61  1583.36  1584.41  1585.97  1596.27
eigval :     1596.59  1597.65  1600.49  1612.66  1617.51  2368.84
eigval :     3075.33  3077.28  3077.74  3077.96  3078.55  3078.95
eigval :     3080.44  3081.02  3081.23  3083.27  3084.90  3085.89
eigval :     3087.26  3087.60  3088.55  3090.07  3090.68  3090.87
eigval :     3091.36  3091.52  3094.13  3095.19  3096.06  3097.49
eigval :     3099.04  3099.98  3101.35

   temp. (K)  partition function   enthalpy   heat capacity  entropy
                                   cal/mol     cal/K/mol   cal/K/mol   J/K/mol
 298.15  VIB  0.672E+16            20631.241    132.551    127.789
         ROT  0.109E+09              888.752      2.981     39.762
         INT  0.734E+24            21519.993    135.532    167.551
         TR   0.137E+29             1481.254      4.968     44.967
         TOT                       23001.2471   140.4997   212.5179   889.1749

       T/K    H(0)-H(T)+PV         H(T)/Eh          T*S/Eh         G(T)/Eh
   ------------------------------------------------------------------------
    298.15    0.366548E-01    0.593042E+00    0.100974E+00    0.492067E+00
   ------------------------------------------------------------------------

         :::::::::::::::::::::::::::::::::::::::::::::::::::::
         ::                  THERMODYNAMIC                  ::
         :::::::::::::::::::::::::::::::::::::::::::::::::::::
         :: total free energy        -114.154326294279 Eh   ::
         ::.................................................::
         :: total energy             -114.646393761442 Eh   ::
         :: zero point energy           0.556386756449 Eh   ::
         :: G(RRHO) w/o ZPVE           -0.064319289286 Eh   ::
         :: G(RRHO) contrib.            0.492067467163 Eh   ::
         :::::::::::::::::::::::::::::::::::::::::::::::::::::

           -------------------------------------------------
          | TOTAL ENERGY             -114.646393761442 Eh   |
          | TOTAL ENTHALPY           -114.053352184571 Eh   |
          | TOTAL FREE ENERGY        -114.154326294279 Eh   |
          | GRADIENT NORM               0.000071009471 Eh/α |
          | HOMO-LUMO GAP               2.040598162142 eV   |
           -------------------------------------------------

 * finished run on 2025/08/25 at 08:51:58.621
