   * xtb version 6.7.1 (edcfbbe) compiled by 'albert@albert-system' on 2024-07-22

   ID    Z sym.   atoms
    1    7 N      1, 13, 35
    2    6 C      2-12, 14-34, 36-46
    3    1 H      47-73

          program call               : xtb data2507/gas/BPCN-2Cz/BPCN-2Cz_gas_T1_crest.xyz --gfn 2 --spinpol --tblite --uhf 2 --ohess vtight --parallel 40 --molden --ceasefiles --namespace data2507/gas/BPCN-2Cz/BPCN-2Cz_gas_T1_finalOpt
 * total energy  :  -114.5537706 Eh     change       -0.9189246E-07 Eh
 * total energy  :  -114.5537921 Eh     change       -0.2142509E-04 Eh
 * total energy  :  -114.5538498 Eh     change       -0.5771393E-04 Eh
 * total energy  :  -114.5538575 Eh     change       -0.7703417E-05 Eh
 * total energy  :  -114.5538627 Eh     change       -0.5208480E-05 Eh
 * total energy  :  -114.5538659 Eh     change       -0.3221769E-05 Eh
 * total energy  :  -114.5538710 Eh     change       -0.5136808E-05 Eh
 * total energy  :  -114.5538734 Eh     change       -0.2356115E-05 Eh
 * total energy  :  -114.5538748 Eh     change       -0.1395041E-05 Eh
 * total energy  :  -114.5538781 Eh     change       -0.3350261E-05 Eh
 * total energy  :  -114.5539066 Eh     change       -0.3809053E-06 Eh
 * total energy  :  -114.5539065 Eh     change        0.7023334E-07 Eh
 * total energy  :  -114.5539067 Eh     change       -0.1529913E-06 Eh
 * total energy  :  -114.5539068 Eh     change       -0.1488989E-06 Eh
 * total energy  :  -114.5539071 Eh     change       -0.2630043E-06 Eh
 * total energy  :  -114.5539073 Eh     change       -0.2330154E-06 Eh
 * total energy  :  -114.5539076 Eh     change       -0.2666479E-06 Eh
 * total energy  :  -114.5539077 Eh     change       -0.1473929E-06 Eh
 * total energy  :  -114.5539078 Eh     change       -0.7057157E-07 Eh
   *** GEOMETRY OPTIMIZATION CONVERGED AFTER 51 ITERATIONS ***

 final structure:
================
73
 xtb: 6.7.1 (edcfbbe)
N            5.73601693425110       -4.26657492240419        0.00266072476693
C            6.62591626054801       -3.53241311812408        0.07710503466496
C            7.76930438438258       -2.74267347324584        0.20158326725200
C            8.98381479209690       -3.43219691742929        0.26579211542435
C           10.16533028566061       -2.78041236390205        0.52613129258042
C           10.14975507728739       -1.38614856960814        0.74986675912713
C            8.98246613527035       -0.68679704776597        0.69197117598096
C            7.73529087231537       -1.30023292636251        0.37841374693469
C            6.56149115703874       -0.53682760332411        0.22180348493508
C            6.41700986145412        0.76809692244390        0.80636494560389
C            5.27637232218696        1.49416451730347        0.67832093443170
C            4.16872867766265        0.99088335610666       -0.04759470832819
N            2.99975179389508        1.71548038364037       -0.16160593088261
C            2.90315863663425        3.07432279855935       -0.42673935310259
C            3.90451342080016        3.99794908153795       -0.68548214571036
C            3.52908085545137        5.30255648179725       -0.95604884684612
C            2.18924390386253        5.68068692237009       -0.98466825282523
C            1.18384692393270        4.75572848587218       -0.76785297279155
C            1.53701333073006        3.44280993860431       -0.49630584558815
C            0.77847893719360        2.24426805501421       -0.26405573299127
C           -0.57602314253933        1.97994442008750       -0.20014945755192
C           -1.00851648668917        0.68199545288198        0.07313533052701
C           -2.43703973617032        0.36928954904402        0.11730122354147
C           -3.35169538057700        1.30083455514196        0.63727189614808
C           -4.70596505305810        1.05324501631615        0.68550883350050
C           -5.16756208771451       -0.15749229496885        0.18329656659919
C           -4.26219907454695       -1.12150847815102       -0.32132312982851
C           -2.90480337297911       -0.85637335921022       -0.35265663498519
C           -5.05329106136771       -2.25795227250394       -0.70824411141219
C           -4.74542858629994       -3.48767288839113       -1.27303044472424
C           -5.77603369447111       -4.36690846532276       -1.54308710437300
C           -7.09855447440562       -4.02631774810149       -1.27039718150450
C           -7.42933459527293       -2.80775538621433       -0.70756707062121
C           -6.39614386882119       -1.93075533781291       -0.41221225179188
N           -6.44804067305337       -0.65750219744479        0.12474809041542
C           -7.61100288114188        0.01601525104636        0.52652402378412
C           -7.86403900053252        1.30543701017858        0.06766560523760
C           -9.01005238427669        1.96704295700156        0.46791552448061
C           -9.91307761201185        1.34896957505639        1.31698599024168
C           -9.66384900665447        0.06446641750572        1.77129195282541
C           -8.51608084217895       -0.60208900944508        1.38422670337516
C           -0.05489264923580       -0.32406396448926        0.31447341267503
C            1.29986738579039       -0.08028093191202        0.26154962006167
C            1.72343357073146        1.20456863569990       -0.06201966075706
C            4.29448410532420       -0.28227405677067       -0.65698337558300
C            5.43735097576673       -1.00504630989373       -0.53759124218814
H            8.97193637130789       -4.50396080626935        0.12088507349623
H           11.09534919967651       -3.32516864434837        0.57261727441036
H           11.07830452994164       -0.87518539790120        0.95851365100727
H            9.01022779975584        0.38360014932108        0.82715685653510
H            7.20775482589895        1.15256146396346        1.43075527540854
H            5.17191607321853        2.43643967098718        1.19633719534494
H            4.94454230987962        3.71213968875175       -0.69685266099566
H            4.29169399953878        6.03973455414173       -1.15669700431083
H            1.93484742663962        6.70844899118017       -1.19594611384545
H            0.14491563134230        5.04434311123799       -0.81704486416106
H           -1.29028210364378        2.76783326440160       -0.38444258672447
H           -2.97651759994526        2.22832036853727        1.04300516915535
H           -5.38451299893557        1.77446221296741        1.11565403483776
H           -2.22093366018585       -1.58331998180905       -0.76277916881034
H           -3.72195815675377       -3.74529472111286       -1.49906779648934
H           -5.55856596218818       -5.32968943109818       -1.98045427842908
H           -7.88433403167670       -4.72827804346750       -1.50685147189183
H           -8.45896640352541       -2.54624592728350       -0.51584684728818
H           -7.16839466438110        1.77439144710157       -0.61218445343849
H           -9.20273228386213        2.96680687366963        0.10812183645779
H          -10.80886717831868        1.86708940679447        1.62388138325397
H          -10.36301379162343       -0.41891670641728        2.43726175537028
H           -8.30671224627887       -1.59475413032608        1.75384836716039
H           -0.39699897921875       -1.31120661773841        0.58441562400333
H            2.00728101362869       -0.86287669541873        0.48750994246541
H            3.49069846542608       -0.63772892092071       -1.28456150098525
H            5.52759795951256       -1.93185337805415       -1.07939587576290

 projected vibrational frequencies (cm⁻¹)
eigval :       -0.00    -0.00    -0.00    -0.00     0.00     0.00
eigval :        9.47    13.39    16.94    25.10    28.15    42.03
eigval :       52.62    61.54    63.46    69.64    76.62    88.41
eigval :      106.39   110.07   124.30   132.14   134.31   151.91
eigval :      168.67   178.53   181.23   186.28   216.91   231.32
eigval :      251.84   264.97   265.58   279.56   286.34   324.40
eigval :      339.97   345.40   354.29   378.85   379.85   386.24
eigval :      391.71   393.32   397.78   401.15   412.97   419.17
eigval :      427.59   435.66   447.64   461.03   467.95   486.49
eigval :      487.01   500.57   524.33   536.69   545.19   554.55
eigval :      562.05   569.84   576.43   582.25   588.72   593.08
eigval :      599.84   608.04   616.51   622.90   631.60   649.38
eigval :      658.61   668.75   676.33   681.94   687.67   703.95
eigval :      707.99   719.11   730.57   734.68   763.39   766.11
eigval :      771.21   775.60   779.13   793.94   808.14   816.22
eigval :      833.71   838.64   846.05   868.20   869.20   869.62
eigval :      873.83   882.39   892.60   896.09   896.68   898.97
eigval :      901.45   902.40   905.11   906.26   912.11   914.99
eigval :      919.00   921.49   922.46   925.73   930.12   933.16
eigval :      934.08   951.55   980.97   998.17  1010.58  1027.80
eigval :     1059.68  1064.32  1070.65  1071.56  1080.28  1110.70
eigval :     1115.33  1117.84  1122.95  1140.69  1145.53  1155.69
eigval :     1164.62  1174.19  1177.52  1180.12  1181.91  1183.12
eigval :     1198.98  1204.48  1211.36  1216.64  1227.35  1228.75
eigval :     1238.59  1242.02  1246.38  1251.40  1267.32  1273.11
eigval :     1274.85  1289.77  1306.23  1309.54  1317.92  1323.41
eigval :     1338.92  1343.64  1348.27  1355.83  1357.88  1360.52
eigval :     1361.36  1370.88  1383.69  1407.22  1412.17  1417.76
eigval :     1421.02  1430.78  1436.06  1444.05  1449.41  1454.64
eigval :     1471.71  1479.75  1482.61  1489.45  1495.50  1534.64
eigval :     1540.65  1546.72  1557.96  1565.03  1578.23  1581.64
eigval :     1582.78  1584.52  1594.16  1595.33  1610.50  2256.20
eigval :     3069.55  3074.34  3076.63  3080.11  3080.79  3081.75
eigval :     3082.36  3082.52  3083.10  3085.63  3088.59  3090.14
eigval :     3090.53  3091.35  3091.97  3092.41  3094.90  3095.32
eigval :     3095.96  3096.91  3097.40  3099.31  3100.97  3102.39
eigval :     3103.40  3103.81  3121.25

   temp. (K)  partition function   enthalpy   heat capacity  entropy
                                   cal/mol     cal/K/mol   cal/K/mol   J/K/mol
 298.15  VIB  0.841E+16            20871.502    134.445    128.970
         ROT  0.110E+09              888.752      2.981     39.782
         INT  0.927E+24            21760.255    137.426    168.752
         TR   0.137E+29             1481.254      4.968     44.967
         TOT                       23241.5085   142.3944   213.7186   894.1987

       T/K    H(0)-H(T)+PV         H(T)/Eh          T*S/Eh         G(T)/Eh
   ------------------------------------------------------------------------
    298.15    0.370377E-01    0.589413E+00    0.101545E+00    0.487868E+00
   ------------------------------------------------------------------------

         :::::::::::::::::::::::::::::::::::::::::::::::::::::
         ::                  THERMODYNAMIC                  ::
         :::::::::::::::::::::::::::::::::::::::::::::::::::::
         :: total free energy        -114.066039700839 Eh   ::
         ::.................................................::
         :: total energy             -114.553907765425 Eh   ::
         :: zero point energy           0.552374980544 Eh   ::
         :: G(RRHO) w/o ZPVE           -0.064506915958 Eh   ::
         :: G(RRHO) contrib.            0.487868064586 Eh   ::
         :::::::::::::::::::::::::::::::::::::::::::::::::::::

           -------------------------------------------------
          | TOTAL ENERGY             -114.553907765425 Eh   |
          | TOTAL ENTHALPY           -113.964495083584 Eh   |
          | TOTAL FREE ENERGY        -114.066039700839 Eh   |
          | GRADIENT NORM               0.000046937113 Eh/α |
           -------------------------------------------------

 * finished run on 2025/08/25 at 08:59:48.689
