   * xtb version 6.7.1 (edcfbbe) compiled by 'albert@albert-system' on 2024-07-22

   ID    Z sym.   atoms
    1    7 N      1, 13, 35
    2    6 C      2-12, 14-34, 36-46
    3    1 H      47-73

          program call               : xtb data2507/gas/BPCN-2Cz/BPCN-2Cz_gas_S0_crest.xyz --gfn 2 --ohess vtight --parallel 40 --molden --ceasefiles --namespace data2507/gas/BPCN-2Cz/BPCN-2Cz_gas_S0_finalOpt
          :  Hamiltonian                  GFN2-xTB          :
 * total energy  :  -114.6464756 Eh     change       -0.2086281E-08 Eh
 * total energy  :  -114.6464575 Eh     change        0.1805289E-04 Eh
 * total energy  :  -114.6464751 Eh     change       -0.1757887E-04 Eh
 * total energy  :  -114.6464774 Eh     change       -0.2340954E-05 Eh
 * total energy  :  -114.6464785 Eh     change       -0.1078186E-05 Eh
 * total energy  :  -114.6464793 Eh     change       -0.7900426E-06 Eh
 * total energy  :  -114.6464804 Eh     change       -0.1113242E-05 Eh
 * total energy  :  -114.6464813 Eh     change       -0.8486081E-06 Eh
 * total energy  :  -114.6464817 Eh     change       -0.4665542E-06 Eh
 * total energy  :  -114.6464820 Eh     change       -0.3151085E-06 Eh
 * total energy  :  -114.6464824 Eh     change       -0.3878780E-06 Eh
 * total energy  :  -114.6464828 Eh     change       -0.3726156E-06 Eh
 * total energy  :  -114.6464830 Eh     change       -0.2074891E-06 Eh
 * total energy  :  -114.6464831 Eh     change       -0.1315097E-06 Eh
 * total energy  :  -114.6464833 Eh     change       -0.1641771E-06 Eh
 * total energy  :  -114.6464835 Eh     change       -0.1795554E-06 Eh
 * total energy  :  -114.6464836 Eh     change       -0.7527615E-07 Eh
   *** GEOMETRY OPTIMIZATION CONVERGED AFTER 17 ITERATIONS ***

 final structure:
================
73
 xtb: 6.7.1 (edcfbbe)
N            9.23115934346277        1.18124474707252        0.22239490448513
C            9.04355754580058        0.06842541196300        0.01697849802632
C            8.87472911092483       -1.30747396543534       -0.26287185080923
C           10.01702230404509       -2.09492734705283       -0.41227386202339
C            9.89748423736755       -3.43158452344654       -0.73674543278446
C            8.63963540858877       -3.98611678876069       -0.92262474957785
C            7.50535641931303       -3.20854123510794       -0.77829094232653
C            7.59701316818281       -1.86202099237853       -0.43942196572468
C            6.38679241087070       -1.04661133051882       -0.27447438775520
C            6.23679446010749       -0.20062200630354        0.82247888430679
C            5.09707037797878        0.56157390743074        0.97293123644902
C            4.08395248304297        0.50570139767735        0.01833939359988
N            2.93682320680719        1.29090112432999        0.16082467727083
C            2.91449812612342        2.64543993301884        0.43916574212397
C            3.96857339680887        3.53589128651237        0.58282778788223
C            3.66313942646435        4.86070675965196        0.83086241063185
C            2.34425269419724        5.29878941273749        0.92553083119273
C            1.29148373465571        4.42177307364731        0.75689562234604
C            1.57314352941969        3.08545834634175        0.50696856466619
C            0.75103782674990        1.93293922809119        0.26096138801662
C           -0.62033367681030        1.73739722300173        0.21895776639972
C           -1.11857181573391        0.46303137186010       -0.02080250987798
C           -2.56963817124431        0.22919227300081       -0.07112106087547
C           -3.40287774934778        1.14887471278222       -0.72331505153665
C           -4.77040731213133        0.98147621446579       -0.79194830144557
C           -5.32188767829783       -0.13386992145301       -0.17758999039758
C           -4.49764314011573       -1.08620551294455        0.46372592979863
C           -3.12497684209556       -0.89982784723120        0.51667657996261
C           -5.36947782488469       -2.12223545956211        0.94308655858459
C           -5.15715401403625       -3.29585711615309        1.65385886106357
C           -6.24701248561849       -4.07694501057608        1.98216088490972
C           -7.53718414962059       -3.69253061133211        1.62379803418869
C           -7.77376443856738       -2.52947454095341        0.91628196850005
C           -6.68004984274212       -1.75273014604449        0.56185536980759
N           -6.63695174120705       -0.54887358823188       -0.11345753006811
C           -7.73996027744579        0.13943614424222       -0.63669896339094
C           -8.65735379849845       -0.52171278787110       -1.44839454624485
C           -9.74708382967210        0.16063032424829       -1.95645741760285
C           -9.92580607405007        1.50409312929088       -1.67117936098040
C           -9.01053691731733        2.16499042033289       -0.86885001215636
C           -7.92367596675018        1.48857238343970       -0.34709991801474
C           -0.22715811278813       -0.60294173652981       -0.20201598916204
C            1.14149421389398       -0.43034911971896       -0.16792027030092
C            1.63241752866463        0.84901379919493        0.04858529505501
C            4.22630491216034       -0.34096116301552       -1.07896991578661
C            5.36070249639454       -1.11381309234555       -1.21510156282341
H           10.98928560382682       -1.64436820659572       -0.27550644350787
H           10.78183682761800       -4.04024949823230       -0.84839394936015
H            8.54419433213408       -5.03090852889032       -1.17841681485050
H            6.52809297151627       -3.64962578836932       -0.90899396184419
H            7.00679038634107       -0.15947106253071        1.57838959880093
H            4.97811102518032        1.19386312452594        1.83945151443612
H            4.99442418533611        3.21252891814751        0.49161074758991
H            4.46638586262412        5.57259866841526        0.94984998232526
H            2.14753535790081        6.34198082128314        1.12355533433531
H            0.26880715540479        4.76328890250312        0.81255451580225
H           -1.29224790431858        2.56319740207525        0.39794044534469
H           -2.95386176318172        2.00339176594571       -1.20786781329964
H           -5.38754367373128        1.69202096496505       -1.32125405694050
H           -2.49946981740537       -1.61680615623193        1.02676523749481
H           -4.15860167380287       -3.58434508935689        1.94605414128242
H           -6.10381049496876       -4.99479643670450        2.53289072563859
H           -8.37217836940951       -4.31566994751340        1.90872151419985
H           -8.77927338654571       -2.23146386084370        0.65975877298724
H           -8.50239911354667       -1.56328797138757       -1.68737618621025
H          -10.45578171207870       -0.35760111255317       -2.58546788643799
H          -10.77584818204991        2.03448926129934       -2.07304893366928
H           -9.14811650197526        3.21158313836601       -0.64041249614128
H           -7.22040655722265        1.99452742261952        0.29737670278705
H           -0.62641775748787       -1.58841711801811       -0.39141960404355
H            1.80540970588508       -1.27200496560873       -0.29704672075597
H            3.45315968435543       -0.37171244742857       -1.83184755808542
H            5.47155302425216       -1.75221833724807       -2.07964310317993

          :  Hamiltonian                  GFN2-xTB          :
         :: gradient norm              0.000035844431 Eh/a0 ::
         :: HOMO-LUMO gap              2.031982864878 eV    ::
         :: SCC energy              -116.874360625178 Eh    ::
         :: -> dispersion             -0.100612903953 Eh    ::
         :: repulsion energy           2.227877061020 Eh    ::

    * Orbital Energies and Occupations

         #    Occupation            Energy/Eh            Energy/eV
      -------------------------------------------------------------
         1        2.0000           -0.6745698             -18.3560
       ...           ...                  ...                  ...
        95        2.0000           -0.4182877             -11.3822
        96        2.0000           -0.4165436             -11.3347
        97        2.0000           -0.4135874             -11.2543
        98        2.0000           -0.4120919             -11.2136
        99        2.0000           -0.4113582             -11.1936
       100        2.0000           -0.4091403             -11.1333
       101        2.0000           -0.4051820             -11.0256
       102        2.0000           -0.4032687             -10.9735
       103        2.0000           -0.3948605             -10.7447
       104        2.0000           -0.3767166             -10.2510
       105        2.0000           -0.3741121             -10.1801
       106        2.0000           -0.3641783              -9.9098
       107        2.0000           -0.3520138              -9.5788 (HOMO)
       108                         -0.2773397              -7.5468 (LUMO)
       109                         -0.2569304              -6.9914
       110                         -0.2430531              -6.6138
       111                         -0.2413199              -6.5666
       112                         -0.2365920              -6.4380
       113                         -0.2353398              -6.4039
       114                         -0.2318258              -6.3083
       115                         -0.2298532              -6.2546
       116                         -0.2217172              -6.0332
       117                         -0.2113963              -5.7524
       118                         -0.2049348              -5.5766
       ...                                ...                  ...
       211                          1.1666991              31.7475
      -------------------------------------------------------------
                  HL-Gap            0.0746740 Eh            2.0320 eV

     #   Z          covCN         q      C6AA      α(0)
     1   7 N        0.911    -0.242    26.308     7.418
     2   6 C        1.913     0.114    28.295     8.591
     3   6 C        2.977     0.013    27.720     8.636
     4   6 C        2.929    -0.020    28.513     8.757
     5   6 C        2.918    -0.028    28.703     8.785
     6   6 C        2.918    -0.023    28.569     8.765
     7   6 C        2.924    -0.032    28.789     8.799
     8   6 C        2.981     0.020    27.562     8.612
     9   6 C        2.977     0.004    27.920     8.667
    10   6 C        2.923    -0.028    28.704     8.786
    11   6 C        2.921    -0.041    29.019     8.834
    12   6 C        2.913     0.067    26.506     8.442
    13   7 N        2.802    -0.043    22.061     6.976
    14   6 C        3.074     0.046    26.885     8.501
    15   6 C        2.910    -0.050    29.252     8.869
    16   6 C        2.924    -0.033    28.814     8.803
    17   6 C        2.920    -0.040    29.003     8.831
    18   6 C        2.913    -0.033    28.819     8.803
    19   6 C        3.068    -0.017    28.353     8.731
    20   6 C        3.065    -0.017    28.373     8.735
    21   6 C        2.918    -0.039    28.961     8.825
    22   6 C        2.977     0.000    28.015     8.682
    23   6 C        2.977    -0.000    28.032     8.685
    24   6 C        2.929    -0.039    28.962     8.826
    25   6 C        2.908    -0.052    29.288     8.874
    26   6 C        3.077     0.045    26.920     8.507
    27   6 C        3.065    -0.018    28.394     8.738
    28   6 C        2.918    -0.039    28.965     8.826
    29   6 C        3.069    -0.017    28.367     8.733
    30   6 C        2.913    -0.033    28.822     8.803
    31   6 C        2.920    -0.041    29.025     8.835
    32   6 C        2.924    -0.034    28.841     8.807
    33   6 C        2.910    -0.051    29.269     8.871
    34   6 C        3.076     0.047    26.875     8.500
    35   7 N        2.802    -0.044    22.093     6.981
    36   6 C        2.913     0.065    26.540     8.448
    37   6 C        2.922    -0.042    29.055     8.840
    38   6 C        2.920    -0.028    28.702     8.785
    39   6 C        2.919    -0.033    28.832     8.805
    40   6 C        2.920    -0.028    28.700     8.785
    41   6 C        2.922    -0.042    29.052     8.839
    42   6 C        2.929    -0.039    28.965     8.826
    43   6 C        2.908    -0.052    29.293     8.875
    44   6 C        3.074     0.044    26.940     8.510
    45   6 C        2.921    -0.043    29.067     8.841
    46   6 C        2.924    -0.032    28.809     8.802
    47   1 H        0.926     0.042     2.421     2.433
    48   1 H        0.926     0.039     2.456     2.451
    49   1 H        0.926     0.039     2.457     2.451
    50   1 H        0.926     0.039     2.455     2.450
    51   1 H        0.926     0.040     2.446     2.446
    52   1 H        0.926     0.047     2.359     2.402
    53   1 H        0.926     0.032     2.562     2.503
    54   1 H        0.926     0.031     2.566     2.505
    55   1 H        0.926     0.028     2.611     2.527
    56   1 H        0.926     0.031     2.578     2.511
    57   1 H        0.926     0.033     2.546     2.495
    58   1 H        0.926     0.031     2.567     2.506
    59   1 H        0.926     0.027     2.629     2.535
    60   1 H        0.926     0.032     2.558     2.501
    61   1 H        0.926     0.030     2.588     2.516
    62   1 H        0.926     0.027     2.631     2.536
    63   1 H        0.926     0.028     2.614     2.529
    64   1 H        0.926     0.027     2.633     2.538
    65   1 H        0.926     0.040     2.445     2.445
    66   1 H        0.926     0.036     2.509     2.477
    67   1 H        0.926     0.035     2.522     2.483
    68   1 H        0.926     0.036     2.505     2.475
    69   1 H        0.926     0.041     2.440     2.443
    70   1 H        0.926     0.031     2.567     2.506
    71   1 H        0.926     0.026     2.649     2.545
    72   1 H        0.926     0.044     2.396     2.421
    73   1 H        0.926     0.037     2.489     2.467

molecular dipole:
                 x           y           z       tot (Debye)
 q only:       -0.483      -0.931      -0.418
   full:       -0.512      -1.395      -0.552       4.029

 projected vibrational frequencies (cm⁻¹)
eigval :       -0.00    -0.00    -0.00    -0.00     0.00     0.00
eigval :        9.89    13.73    17.05    27.94    30.67    37.31
eigval :       51.64    58.81    66.51    74.55    75.85    92.42
eigval :       96.21   112.43   122.57   128.28   137.50   144.51
eigval :      148.25   169.31   183.38   204.12   213.96   231.09
eigval :      254.45   262.82   264.13   284.09   287.87   326.24
eigval :      353.47   357.35   369.47   380.37   380.89   385.80
eigval :      393.77   395.64   402.61   412.41   417.84   427.93
eigval :      435.78   444.47   467.98   470.80   487.33   500.20
eigval :      523.83   526.50   535.39   537.46   547.83   555.33
eigval :      567.81   573.92   583.41   589.39   593.28   602.33
eigval :      605.16   612.51   621.28   625.51   647.01   670.04
eigval :      676.75   683.33   687.37   694.45   707.74   708.36
eigval :      708.98   725.26   747.89   763.46   767.85   775.55
eigval :      776.20   778.79   785.29   811.80   823.44   834.13
eigval :      848.66   869.11   869.58   875.35   877.84   880.08
eigval :      883.61   886.28   894.95   900.81   903.95   905.51
eigval :      910.40   915.13   918.65   919.83   921.12   921.90
eigval :      925.98   926.90   931.87   933.40   933.79   934.56
eigval :      937.16   997.79   998.32  1013.19  1030.93  1044.58
eigval :     1071.21  1072.45  1073.73  1080.71  1091.85  1118.22
eigval :     1121.82  1125.44  1133.27  1140.10  1155.59  1158.17
eigval :     1178.83  1178.90  1180.85  1181.32  1183.82  1184.79
eigval :     1200.63  1203.33  1212.79  1221.66  1232.90  1242.38
eigval :     1243.87  1249.14  1256.63  1268.52  1274.46  1275.75
eigval :     1289.49  1293.71  1304.35  1314.51  1316.82  1318.25
eigval :     1320.26  1346.16  1354.03  1360.53  1362.44  1366.83
eigval :     1382.92  1403.27  1418.22  1422.18  1426.65  1430.99
eigval :     1435.57  1439.62  1457.92  1460.20  1482.06  1483.75
eigval :     1484.84  1500.61  1502.51  1554.48  1562.47  1565.73
eigval :     1570.76  1582.59  1583.32  1584.41  1586.00  1596.28
eigval :     1596.58  1597.34  1600.54  1612.54  1617.65  2368.86
eigval :     3075.41  3077.67  3077.70  3078.00  3078.59  3079.07
eigval :     3080.54  3081.10  3081.26  3083.07  3084.93  3086.47
eigval :     3087.46  3087.94  3088.93  3090.23  3090.84  3091.27
eigval :     3091.41  3091.76  3094.17  3095.30  3096.03  3097.27
eigval :     3099.09  3100.00  3101.13

   temp. (K)  partition function   enthalpy   heat capacity  entropy
                                   cal/mol     cal/K/mol   cal/K/mol   J/K/mol
 298.15  VIB  0.635E+16            20626.098    132.561    127.721
         ROT  0.109E+09              888.752      2.981     39.755
         INT  0.691E+24            21514.850    135.542    167.477
         TR   0.137E+29             1481.254      4.968     44.967
         TOT                       22996.1041   140.5103   212.4434   888.8632

       T/K    H(0)-H(T)+PV         H(T)/Eh          T*S/Eh         G(T)/Eh
   ------------------------------------------------------------------------
    298.15    0.366466E-01    0.593056E+00    0.100939E+00    0.492117E+00
   ------------------------------------------------------------------------

         :::::::::::::::::::::::::::::::::::::::::::::::::::::
         ::                  THERMODYNAMIC                  ::
         :::::::::::::::::::::::::::::::::::::::::::::::::::::
         :: total free energy        -114.154366066178 Eh   ::
         ::.................................................::
         :: total energy             -114.646483564156 Eh   ::
         :: zero point energy           0.556409595186 Eh   ::
         :: G(RRHO) w/o ZPVE           -0.064292097208 Eh   ::
         :: G(RRHO) contrib.            0.492117497978 Eh   ::
         :::::::::::::::::::::::::::::::::::::::::::::::::::::

           -------------------------------------------------
          | TOTAL ENERGY             -114.646483564156 Eh   |
          | TOTAL ENTHALPY           -114.053427344479 Eh   |
          | TOTAL FREE ENERGY        -114.154366066178 Eh   |
          | GRADIENT NORM               0.000035879712 Eh/α |
          | HOMO-LUMO GAP               2.031983806305 eV   |
           -------------------------------------------------

 * finished run on 2025/08/25 at 08:55:07.802
