   * xtb version 6.7.1 (edcfbbe) compiled by 'albert@albert-system' on 2024-07-22

   ID    Z sym.   atoms
    1    7 N      1, 13, 35
    2    6 C      2-12, 14-34, 36-46
    3    1 H      47-73

          program call               : xtb data2507/gas/BPCN-2Cz/BPCN-2Cz_gas_S0_finalOpt.xtbopt.xyz --gfn 2 --spinpol --tblite --uhf 2 --ohess vtight --parallel 40 --molden --ceasefiles --namespace data2507/gas/BPCN-2Cz/BPCN-2Cz_gas_T1_preOpt
 * total energy  :  -114.5456321 Eh     change       -0.2776025E-07 Eh
 * total energy  :  -114.5481892 Eh     change       -0.2557086E-02 Eh
 * total energy  :  -114.5496585 Eh     change       -0.1469274E-02 Eh
 * total energy  :  -114.5503117 Eh     change       -0.6532704E-03 Eh
 * total energy  :  -114.5510241 Eh     change       -0.7123432E-03 Eh
 * total energy  :  -114.5519286 Eh     change       -0.9045208E-03 Eh
 * total energy  :  -114.5525659 Eh     change       -0.6373324E-03 Eh
 * total energy  :  -114.5528249 Eh     change       -0.2590005E-03 Eh
 * total energy  :  -114.5530582 Eh     change       -0.2332931E-03 Eh
 * total energy  :  -114.5531905 Eh     change       -0.1322358E-03 Eh
 * total energy  :  -114.5537189 Eh     change       -0.7931094E-06 Eh
 * total energy  :  -114.5537196 Eh     change       -0.7551997E-06 Eh
 * total energy  :  -114.5537202 Eh     change       -0.5285372E-06 Eh
 * total energy  :  -114.5537204 Eh     change       -0.2758094E-06 Eh
 * total energy  :  -114.5537208 Eh     change       -0.3745947E-06 Eh
 * total energy  :  -114.5537211 Eh     change       -0.2477247E-06 Eh
 * total energy  :  -114.5537218 Eh     change       -0.7265157E-06 Eh
 * total energy  :  -114.5537228 Eh     change       -0.9535874E-06 Eh
 * total energy  :  -114.5537228 Eh     change       -0.1325333E-07 Eh
   *** GEOMETRY OPTIMIZATION CONVERGED AFTER 44 ITERATIONS ***

 final structure:
================
73
 xtb: 6.7.1 (edcfbbe)
N            9.43570515688938        0.94051139630986        0.95897953376520
C            9.13979906560566       -0.09433946227732        0.53712398662673
C            8.90365585065683       -1.36215117208943        0.00469692502878
C           10.02481004345056       -2.18647981899220       -0.12859527962382
C            9.94919089146800       -3.40235192039901       -0.76475533183433
C            8.71518599502768       -3.82083381794305       -1.30947645735295
C            7.60505268090699       -3.04051740606302       -1.19410152840938
C            7.61180869905519       -1.79349473698126       -0.50419622235153
C            6.42795440038941       -1.05511229663752       -0.31136037068843
C            6.28952196738570       -0.08603967573616        0.73876571507189
C            5.16564667549167        0.66008124344111        0.89055104236941
C            4.05819900686347        0.49621332965759        0.02174410416409
N            2.92436600280069        1.26945664966726        0.16439890967522
C            2.90569486022283        2.63689148746493        0.40450367673927
C            3.96161762016388        3.53169457948065        0.49392960877934
C            3.66179942549689        4.86607198086831        0.70744490046534
C            2.34509026441447        5.30630136917346        0.81382709090892
C            1.28663406134470        4.42478229291158        0.68480568518345
C            1.56353587639540        3.08321898968805        0.47126949177282
C            0.73702355736078        1.92710448036282        0.25436308378085
C           -0.63041196131028        1.73671008760951        0.21609751180162
C           -1.13867197944789        0.45166807883946        0.02406154556182
C           -2.58401076244733        0.22648415657147       -0.02512067074674
C           -3.41767651606417        1.16285853211490       -0.65957745326249
C           -4.78308643947187        0.99741251484573       -0.73753745564026
C           -5.33935516103226       -0.13029865618698       -0.14642631778454
C           -4.51738886467700       -1.09562922011598        0.48277054389583
C           -3.14651498453242       -0.91536262452093        0.54040252193350
C           -5.39445797144909       -2.13776644058568        0.94252729176528
C           -5.18902881930478       -3.32337504595747        1.63425304517598
C           -6.28404066427018       -4.10665830271188        1.94281115565972
C           -7.57073993226826       -3.71348472841718        1.58285817503595
C           -7.80010738937644       -2.53765082232629        0.89337055983183
C           -6.70164609169636       -1.75873341466792        0.56053534984763
N           -6.65124118604503       -0.54301782464983       -0.09532974692794
C           -7.75142512482309        0.15363150763126       -0.61712699279769
C           -8.65421080995348       -0.49363919652114       -1.45551583441328
C           -9.73904835399154        0.19637151289059       -1.96387090646574
C           -9.92680680575091        1.53237262940548       -1.65033084429219
C           -9.02602132466433        2.17868588061361       -0.82014424103693
C           -7.94324527007405        1.49489828549226       -0.29913941218056
C           -0.24690942967725       -0.62795325632088       -0.10364293684413
C            1.12034858655197       -0.45796249814276       -0.07823824797763
C            1.62087158647781        0.83060395740188        0.07377054764289
C            4.14916786853692       -0.48672105083455       -0.99514448850928
C            5.27605581682492       -1.22748960954469       -1.15384435994465
H           10.96762081726721       -1.83608023877826        0.26905170601600
H           10.82272388872252       -4.02805858485858       -0.86088557844719
H            8.65749300338657       -4.77486444774906       -1.81276031312406
H            6.66870939137223       -3.40737778077913       -1.58577841668013
H            7.08041820522703        0.00837784055471        1.46419846155224
H            5.07352690178972        1.33760517074660        1.72637956613081
H            4.98497672753153        3.20934061293956        0.38370321767180
H            4.46732805635564        5.58006696642840        0.78564524202860
H            2.15052229968326        6.35452945936587        0.98410709774640
H            0.26589888720241        4.77116797739726        0.74197521245312
H           -1.29835664109132        2.57043631024449        0.37034330707547
H           -2.96765721351692        2.02371130910705       -1.13099890924528
H           -5.39801846030245        1.71661430193450       -1.25726734140907
H           -2.52619390848800       -1.64155514298786        1.04285211258588
H           -4.19357100571998       -3.62036216461375        1.92765648188443
H           -6.14635039646748       -5.03356974407229        2.47905198041803
H           -8.40882909571679       -4.33921522792997        1.85156098391636
H           -8.80258754132031       -2.23268255651402        0.63389506265029
H           -8.49145599332859       -1.52900906325156       -1.71524983248494
H          -10.43651178628875       -0.30981857965788       -2.61452339352405
H          -10.77310109168375        2.06854243817237       -2.05202123257939
H           -9.17127179165378        3.21903445054219       -0.56985739000539
H           -7.25085588106506        1.98835706035394        0.36651884805328
H           -0.64757439594776       -1.61997281711396       -0.24564948272841
H            1.77886904233293       -1.30868712246969       -0.15875816784392
H            3.33229156245222       -0.58433584343150       -1.69541569486081
H            5.33380336361978       -1.90923288830170       -1.98735824626249

 projected vibrational frequencies (cm⁻¹)
eigval :       -0.00    -0.00    -0.00     0.00     0.00     0.00
eigval :        9.90    12.74    17.03    27.82    31.02    37.20
eigval :       52.84    59.19    64.66    67.48    79.29    93.07
eigval :      101.29   112.86   119.87   129.72   144.15   150.04
eigval :      164.33   177.21   181.10   190.40   214.37   231.25
eigval :      255.71   264.00   266.37   275.82   286.96   320.71
eigval :      342.64   344.48   364.38   368.13   380.14   386.18
eigval :      391.91   393.65   399.09   401.50   411.70   421.83
eigval :      427.63   436.54   443.18   462.12   470.26   486.77
eigval :      488.62   500.85   523.97   536.64   544.99   553.40
eigval :      564.27   569.91   573.43   581.63   591.13   593.98
eigval :      596.04   610.90   616.28   622.92   635.47   643.03
eigval :      660.68   668.93   675.84   682.53   687.57   704.62
eigval :      707.97   718.86   730.38   734.95   763.66   766.01
eigval :      773.17   775.83   779.12   792.78   810.65   813.40
eigval :      832.82   838.77   846.43   869.63   870.83   872.04
eigval :      874.43   882.84   892.66   896.95   898.31   899.00
eigval :      901.76   902.63   904.57   906.49   914.26   915.57
eigval :      918.51   921.18   922.79   925.51   931.11   933.63
eigval :      934.49   950.96   980.28   998.23  1010.74  1028.09
eigval :     1060.02  1064.97  1071.15  1071.82  1080.50  1110.28
eigval :     1116.14  1118.22  1123.21  1138.98  1146.57  1156.21
eigval :     1165.03  1174.32  1178.20  1180.88  1182.16  1183.66
eigval :     1199.62  1205.47  1210.48  1217.36  1226.83  1229.91
eigval :     1237.74  1242.49  1246.97  1251.58  1267.67  1273.31
eigval :     1275.18  1289.79  1306.99  1309.69  1317.90  1322.43
eigval :     1340.11  1342.99  1348.10  1356.00  1357.85  1359.71
eigval :     1361.58  1370.93  1384.04  1406.82  1412.60  1418.59
eigval :     1421.38  1431.11  1436.28  1443.90  1449.25  1454.00
eigval :     1471.95  1480.30  1483.16  1490.40  1496.24  1535.09
eigval :     1540.26  1547.15  1558.40  1566.78  1578.74  1581.75
eigval :     1583.24  1584.65  1594.24  1595.68  1610.72  2255.78
eigval :     3069.58  3074.65  3076.40  3079.58  3081.01  3081.78
eigval :     3083.09  3083.21  3083.69  3084.57  3088.72  3089.98
eigval :     3090.28  3091.06  3091.53  3092.05  3094.20  3094.56
eigval :     3095.31  3097.34  3097.89  3098.48  3101.12  3101.42
eigval :     3103.26  3105.80  3121.25

   temp. (K)  partition function   enthalpy   heat capacity  entropy
                                   cal/mol     cal/K/mol   cal/K/mol   J/K/mol
 298.15  VIB  0.780E+16            20867.453    134.370    128.850
         ROT  0.110E+09              888.752      2.981     39.768
         INT  0.854E+24            21756.206    137.351    168.618
         TR   0.137E+29             1481.254      4.968     44.967
         TOT                       23237.4596   142.3190   213.5841   893.6360

       T/K    H(0)-H(T)+PV         H(T)/Eh          T*S/Eh         G(T)/Eh
   ------------------------------------------------------------------------
    298.15    0.370312E-01    0.589477E+00    0.101481E+00    0.487997E+00
   ------------------------------------------------------------------------

         :::::::::::::::::::::::::::::::::::::::::::::::::::::
         ::                  THERMODYNAMIC                  ::
         :::::::::::::::::::::::::::::::::::::::::::::::::::::
         :: total free energy        -114.065726268266 Eh   ::
         ::.................................................::
         :: total energy             -114.553722768696 Eh   ::
         :: zero point energy           0.552445962312 Eh   ::
         :: G(RRHO) w/o ZPVE           -0.064449461882 Eh   ::
         :: G(RRHO) contrib.            0.487996500430 Eh   ::
         :::::::::::::::::::::::::::::::::::::::::::::::::::::

           -------------------------------------------------
          | TOTAL ENERGY             -114.553722768696 Eh   |
          | TOTAL ENTHALPY           -113.964245557432 Eh   |
          | TOTAL FREE ENERGY        -114.065726268266 Eh   |
          | GRADIENT NORM               0.000178484909 Eh/α |
           -------------------------------------------------

 * finished run on 2025/08/25 at 08:55:16.930
