   * xtb version 6.7.1 (edcfbbe) compiled by 'albert@albert-system' on 2024-07-22

   ID    Z sym.   atoms
    1    6 C      1-20, 22-25, 29-32, 34-54, 57
    2    7 N      21, 33, 55, 56
    3   16 S      26
    4    8 O      27, 28
    5    1 H      58-111

          program call               : xtb data2507/gas/pDTCz-2DPyS/pDTCz-2DPyS_gas_T1_crest.xyz --gfn 2 --spinpol --tblite --uhf 2 --ohess vtight --parallel 40 --molden --ceasefiles --namespace data2507/gas/pDTCz-2DPyS/pDTCz-2DPyS_gas_T1_finalOpt
 * total energy  :  -157.7127542 Eh     change       -0.3976564E-07 Eh
 * total energy  :  -157.7127765 Eh     change       -0.2232243E-04 Eh
 * total energy  :  -157.7127867 Eh     change       -0.1022170E-04 Eh
 * total energy  :  -157.7127895 Eh     change       -0.2807662E-05 Eh
 * total energy  :  -157.7127918 Eh     change       -0.2296706E-05 Eh
 * total energy  :  -157.7127932 Eh     change       -0.1370167E-05 Eh
 * total energy  :  -157.7127944 Eh     change       -0.1178236E-05 Eh
 * total energy  :  -157.7127953 Eh     change       -0.9277238E-06 Eh
 * total energy  :  -157.7127961 Eh     change       -0.7408166E-06 Eh
 * total energy  :  -157.7127968 Eh     change       -0.7034377E-06 Eh
 * total energy  :  -157.7127973 Eh     change       -0.5588456E-06 Eh
 * total energy  :  -157.7127976 Eh     change       -0.2610895E-06 Eh
 * total energy  :  -157.7127978 Eh     change       -0.2744004E-06 Eh
 * total energy  :  -157.7127980 Eh     change       -0.1303760E-06 Eh
 * total energy  :  -157.7127983 Eh     change       -0.3629188E-06 Eh
 * total energy  :  -157.7127985 Eh     change       -0.1162590E-06 Eh
 * total energy  :  -157.7127987 Eh     change       -0.2001640E-06 Eh
 * total energy  :  -157.7127987 Eh     change       -0.2648667E-07 Eh
 * total energy  :  -157.7127988 Eh     change       -0.9284545E-07 Eh
   *** GEOMETRY OPTIMIZATION CONVERGED AFTER 19 ITERATIONS ***

 final structure:
================
111
 xtb: 6.7.1 (edcfbbe)
C            3.02053657864269        2.81071943553640       -2.78942771742058
C            1.56611949316145        3.22333856398990       -2.54674036977460
C            1.55950900156506        4.30001334930279       -1.45375091186475
C            1.00363058797210        3.80711423021002       -3.85139470765930
C            0.68570347525359        2.05678324404832       -2.12415165162844
C            1.15026866732424        0.73891832413889       -2.11068594504259
C            0.33788253619096       -0.33069377654439       -1.78395937569319
C           -0.97997856905325       -0.07451375309622       -1.44529067713834
C           -1.46716549315827        1.25049091209818       -1.41503108696409
C           -0.63735223907643        2.30004336740965       -1.76990324392647
C           -2.83659243042908        1.16639706817565       -0.97989807954913
C           -3.82803882946686        2.11390211491150       -0.77196341908254
C           -5.08712598068879        1.71548991176093       -0.34336217458857
C           -6.21826291303725        2.70304136466014       -0.10025303598099
C           -5.77444653750508        4.15906450511872       -0.26830425123971
C           -6.75408028018769        2.53443077977560        1.32887765924426
C           -7.34066880422247        2.42179755956469       -1.10977010612799
C           -5.32870856832532        0.34774670946287       -0.15418087789579
C           -4.36572694094607       -0.61842620701516       -0.36241757945117
C           -3.10533694972272       -0.20388223119546       -0.76608536630249
N           -1.98340630093111       -0.94530326415232       -1.06777528731599
C           -1.81258765759161       -2.32345980124444       -0.93642744786501
C           -1.21634777041635       -3.07578485567852       -1.97837523567017
C           -0.87851559349950       -4.38111338271000       -1.74866757599352
C           -1.16981839437803       -4.93814580823491       -0.49288038406693
S           -0.06098615247343       -6.20947619578818        0.09185151000765
O            0.51036347788814       -6.89640341970224       -1.03796083941495
O           -0.58179323460766       -6.98779744766003        1.17246415918266
C            1.10610142078540       -4.95863801359235        0.64571584876354
C            1.92486178611375       -4.36940463525512       -0.34182034694067
C            2.21942836221381       -3.04174944353402       -0.23504471711189
C            1.72259669245371       -2.29691262999473        0.87465954681849
N            1.90832945978536       -0.92456071512678        0.98615471861382
C            0.93203362912957       -0.02147885631142        1.36519716633754
C           -0.40048189468257       -0.22814275598061        1.67914370704103
C           -1.17560769470842        0.86714649103387        2.01175311683474
C           -0.66008285500363        2.16515198845929        2.05486480204943
C           -1.49875836118869        3.36054607606022        2.47922673120797
C           -2.96145740651423        2.99323144443494        2.74143562381377
C           -0.90641288552981        3.93939819520415        3.77279647997307
C           -1.46891038489479        4.42495270500656        1.37435371554971
C            0.67643631023051        2.36124749715486        1.72056451542694
C            1.46875833525723        1.28449568002330        1.36445543961863
C            2.84453758891826        1.15611563947893        0.96110841895742
C            3.86727499960316        2.07371002720258        0.78037494786576
C            5.12635247010412        1.63841455700392        0.38669505705252
C            6.28757417852905        2.59394684307817        0.16235712151404
C            6.84156421652010        2.40227708673959       -1.25697574903828
C            5.87841106418524        4.06172447282198        0.31440073636125
C            7.38441165025204        2.28950107428494        1.19285876330112
C            5.33412868312374        0.26342816410522        0.21525290944597
C            4.33645371929208       -0.67343852205579        0.39581994351645
C            3.07243792451447       -0.22190754277810        0.74712867550146
C            1.04693580927411       -3.00883706564205        1.86994528501147
N            0.75377745740160       -4.27408054315794        1.73409760442308
N           -1.81437743213153       -4.24796210989148        0.45036499857512
C           -2.13761598846007       -2.99425590402663        0.24250513164604
H            3.60566402177393        3.69055346206605       -3.05178837616757
H            3.09839056870427        2.10458772845147       -3.61277839856247
H            3.45178205580607        2.36719653316224       -1.89433673752028
H            0.56641878153298        4.71325837084006       -1.30447179220053
H            1.89914775567966        3.87074985501715       -0.51535554824101
H            2.22575365499804        5.11559270506150       -1.72833920101184
H           -0.01558749016937        4.15932517885694       -3.71690325586220
H            1.00131121444461        3.04993131225718       -4.63264665956026
H            1.61483422717780        4.64380755259936       -4.18312590814173
H            2.17600254912239        0.52768780179451       -2.36328914480058
H            0.72598568774058       -1.33792956168898       -1.78605764405780
H           -1.03240700325443        3.30379021609982       -1.77349784210995
H           -3.60329743713847        3.15070968425905       -0.95901000915890
H           -4.96858286422494        4.40392196929173        0.41970548401546
H           -6.61246755614623        4.81901223955499       -0.05399966564908
H           -5.44844182150112        4.35598949124693       -1.28694994718421
H           -5.96113689214785        2.70567695118264        2.05344908633978
H           -7.15542056714696        1.53845425680843        1.49133629565650
H           -7.55023836525206        3.25236261947681        1.51354858714531
H           -6.96732811958243        2.52593242798465       -2.12649236902140
H           -7.73326253589143        1.41542762905081       -0.99332529237779
H           -8.15757292483287        3.12596789152495       -0.96764780161552
H           -6.30857139837230        0.02246364021278        0.15860836962191
H           -4.59489262016261       -1.66437291413609       -0.22661101374828
H           -1.04477878452440       -2.60663558031527       -2.93547808170918
H           -0.39947802275298       -5.00313733570235       -2.48652150544708
H            2.23778257396713       -4.97730692332263       -1.17429724728044
H            2.79416198413367       -2.53512993999071       -0.99526721896934
H           -0.82837347279365       -1.21775567117369        1.66133395679494
H           -2.21192013794928        0.69122309855495        2.24665603694784
H           -3.41772801464415        2.56369683452239        1.85219350432076
H           -3.51555423044431        3.89041907541396        3.01222136427068
H           -3.04868270221838        2.28833189879798        3.56494178614865
H           -1.49408967863901        4.79251677466827        4.10501216819231
H           -0.91388237637034        3.18779899024871        4.55930724602272
H            0.11904230618613        4.26739298937384        3.62582682468964
H           -0.46318506373539        4.79900262511804        1.20646274376194
H           -2.10112525621201        5.26711201311589        1.64882905239829
H           -1.83753106542423        3.99874229242856        0.44535774215126
H            1.11000747017629        3.34877796426938        1.74252479547810
H            3.66714130032798        3.11704533760962        0.95801476607053
H            7.21737666229098        1.39446835778895       -1.40747963869466
H            7.65995356512203        3.09691848647575       -1.43287067026032
H            6.06461149453896        2.59114511973192       -1.99453801677944
H            5.09225542194134        4.32284671702966       -0.39032800602339
H            5.53846895973841        4.27284597789757        1.32559728733820
H            6.73695715670262        4.69868875398393        0.11244836526329
H            8.22004341485800        2.97366352785668        1.06296124682497
H            6.99550241258369        2.40653725962114        2.20227381976421
H            7.75553854151119        1.27386858223168        1.08715374466511
H            6.31489375509559       -0.09285997298299       -0.05857357816529
H            4.54900769267298       -1.72563423097710        0.28625152678638
H            0.76228009818978       -2.53405950069598        2.79868748941469
H           -2.64959764004200       -2.48987225404352        1.05144966012845

 projected vibrational frequencies (cm⁻¹)
eigval :       -0.00    -0.00    -0.00    -0.00     0.00     0.00
eigval :       19.80    27.04    30.11    31.52    37.98    40.05
eigval :       43.58    47.37    54.07    55.72    60.37    64.63
eigval :       70.48    72.78    77.69    85.56    89.89    94.26
eigval :      101.34   110.17   122.48   128.33   137.92   148.61
eigval :      156.16   160.47   162.59   164.53   176.79   177.57
eigval :      185.73   186.39   188.49   193.02   202.07   218.52
eigval :      220.57   222.74   223.05   234.92   236.84   244.14
eigval :      248.81   256.55   270.38   271.36   272.15   275.75
eigval :      289.38   300.19   308.11   311.05   319.03   321.84
eigval :      324.04   331.98   334.74   335.80   337.58   341.63
eigval :      351.67   356.06   356.57   360.04   371.27   374.31
eigval :      382.85   388.31   390.46   400.86   403.61   405.53
eigval :      408.90   410.88   411.43   423.76   431.85   444.83
eigval :      445.68   446.37   449.59   461.77   464.38   467.01
eigval :      469.39   477.00   482.69   495.16   518.24   518.54
eigval :      526.87   568.96   570.37   577.74   579.99   584.78
eigval :      588.34   591.87   595.06   610.04   624.69   632.32
eigval :      640.48   641.10   648.71   679.75   687.90   688.60
eigval :      689.45   706.03   706.77   716.88   717.30   734.93
eigval :      742.19   790.99   796.54   822.33   822.85   824.48
eigval :      826.70   832.27   833.41   867.85   872.68   873.38
eigval :      873.56   874.33   878.42   881.70   888.10   891.71
eigval :      895.62   903.55   912.53   914.88   916.15   917.68
eigval :      920.33   923.77   924.97   934.86   936.46   960.01
eigval :      960.19   960.88   961.52   962.59   962.88   963.46
eigval :      963.59   963.60   964.76   965.12   966.66   968.24
eigval :      986.94  1031.82  1032.14  1033.96  1035.20  1035.45
eigval :     1035.76  1038.42  1039.84  1040.06  1040.75  1042.00
eigval :     1064.58  1111.05  1114.38  1120.78  1121.27  1129.40
eigval :     1130.73  1131.93  1140.08  1143.11  1168.76  1171.10
eigval :     1189.15  1202.35  1210.04  1211.34  1225.81  1225.98
eigval :     1227.68  1227.78  1228.06  1229.20  1231.41  1231.72
eigval :     1232.31  1234.13  1242.07  1245.30  1251.19  1255.14
eigval :     1257.34  1278.90  1282.49  1289.82  1291.37  1295.16
eigval :     1296.45  1298.31  1302.47  1308.14  1332.42  1340.65
eigval :     1344.89  1347.16  1351.76  1354.56  1365.96  1400.56
eigval :     1401.60  1402.54  1403.80  1404.11  1404.16  1406.55
eigval :     1407.43  1408.17  1410.25  1411.32  1411.69  1422.87
eigval :     1426.84  1427.12  1429.14  1429.55  1431.03  1443.28
eigval :     1446.35  1462.07  1464.55  1469.16  1475.34  1476.64
eigval :     1488.47  1489.89  1490.80  1491.32  1491.42  1493.22
eigval :     1493.33  1495.38  1499.34  1500.04  1500.86  1503.46
eigval :     1504.23  1504.82  1505.13  1505.63  1513.46  1513.70
eigval :     1516.16  1516.72  1521.18  1521.80  1522.61  1523.42
eigval :     1539.42  1562.25  1564.02  1576.82  1579.48  1582.75
eigval :     1586.36  1600.27  1604.89  3016.37  3017.32  3021.96
eigval :     3023.22  3024.03  3024.78  3026.05  3027.05  3028.45
eigval :     3028.56  3028.78  3028.91  3029.65  3029.95  3031.93
eigval :     3032.24  3033.39  3033.76  3033.88  3034.51  3036.39
eigval :     3036.86  3038.31  3038.47  3040.56  3040.98  3044.83
eigval :     3045.21  3047.86  3047.99  3050.23  3051.47  3052.88
eigval :     3052.94  3053.34  3053.96  3056.25  3062.13  3081.40
eigval :     3082.30  3087.02  3087.60  3089.20  3093.15  3094.07
eigval :     3100.36  3101.06  3103.60  3110.22  3113.12  3116.41
eigval :     3118.51  3120.23  3124.18

   temp. (K)  partition function   enthalpy   heat capacity  entropy
                                   cal/mol     cal/K/mol   cal/K/mol   J/K/mol
 298.15  VIB  0.587E+23            32934.082    205.833    201.545
         ROT  0.103E+09              888.752      2.981     39.640
         INT  0.602E+31            33822.834    208.814    241.185
         TR   0.209E+29             1481.254      4.968     45.801
         TOT                       35304.0884   213.7822   286.9857  1200.7483

       T/K    H(0)-H(T)+PV         H(T)/Eh          T*S/Eh         G(T)/Eh
   ------------------------------------------------------------------------
    298.15    0.562606E-01    0.963056E+00    0.136356E+00    0.826700E+00
   ------------------------------------------------------------------------

         :::::::::::::::::::::::::::::::::::::::::::::::::::::
         ::                  THERMODYNAMIC                  ::
         :::::::::::::::::::::::::::::::::::::::::::::::::::::
         :: total free energy        -156.886099182288 Eh   ::
         ::.................................................::
         :: total energy             -157.712798807579 Eh   ::
         :: zero point energy           0.906795166059 Eh   ::
         :: G(RRHO) w/o ZPVE           -0.080095540768 Eh   ::
         :: G(RRHO) contrib.            0.826699625292 Eh   ::
         :::::::::::::::::::::::::::::::::::::::::::::::::::::

           -------------------------------------------------
          | TOTAL ENERGY             -157.712798807579 Eh   |
          | TOTAL ENTHALPY           -156.749742995574 Eh   |
          | TOTAL FREE ENERGY        -156.886099182288 Eh   |
          | GRADIENT NORM               0.000151463066 Eh/α |
           -------------------------------------------------

 * finished run on 2025/09/05 at 07:09:13.860
