   * xtb version 6.7.1 (edcfbbe) compiled by 'albert@albert-system' on 2024-07-22

   ID    Z sym.   atoms
    1    6 C      1-20, 22-25, 29-32, 34-54, 57
    2    7 N      21, 33, 55, 56
    3   16 S      26
    4    8 O      27, 28
    5    1 H      58-111

          program call               : xtb data2507/gas/pDTCz-2DPyS/pDTCz-2DPyS.xyz --gfn 2 --ohess vtight --parallel 40 --molden --ceasefiles --namespace data2507/gas/pDTCz-2DPyS/pDTCz-2DPyS_gas_S0_preOpt
          :  Hamiltonian                  GFN2-xTB          :
 * total energy  :  -157.7556804 Eh     change       -0.1984205E-08 Eh
 * total energy  :  -157.7763382 Eh     change       -0.2065780E-01 Eh
 * total energy  :  -157.7825020 Eh     change       -0.6163778E-02 Eh
 * total energy  :  -157.7839001 Eh     change       -0.1398080E-02 Eh
 * total energy  :  -157.7844782 Eh     change       -0.5781228E-03 Eh
 * total energy  :  -157.7845979 Eh     change       -0.1196512E-03 Eh
 * total energy  :  -157.7846722 Eh     change       -0.7436992E-04 Eh
 * total energy  :  -157.7847281 Eh     change       -0.5581955E-04 Eh
 * total energy  :  -157.7847867 Eh     change       -0.5864554E-04 Eh
 * total energy  :  -157.7848512 Eh     change       -0.6453661E-04 Eh
 * total energy  :  -157.7860957 Eh     change       -0.4915680E-06 Eh
 * total energy  :  -157.7860962 Eh     change       -0.5054779E-06 Eh
 * total energy  :  -157.7860966 Eh     change       -0.4260891E-06 Eh
 * total energy  :  -157.7860969 Eh     change       -0.3330623E-06 Eh
 * total energy  :  -157.7860974 Eh     change       -0.4220676E-06 Eh
 * total energy  :  -157.7860977 Eh     change       -0.3831583E-06 Eh
 * total energy  :  -157.7860984 Eh     change       -0.6431935E-06 Eh
 * total energy  :  -157.7860992 Eh     change       -0.7962963E-06 Eh
 * total energy  :  -157.7860992 Eh     change       -0.1002616E-07 Eh
   *** GEOMETRY OPTIMIZATION CONVERGED AFTER 221 ITERATIONS ***

 final structure:
================
111
 xtb: 6.7.1 (edcfbbe)
C           -8.17392821849690       -4.07918358781394        1.82766979040210
C           -6.97243920804285       -3.75604817916371        2.72012386963211
C           -7.47471663393311       -3.62456209680007        4.16487954892513
C           -5.97689966932436       -4.92037775826959        2.61882249418839
C           -6.27493474956048       -2.46560031104017        2.31583603935289
C           -5.15938415753321       -2.04117188996857        3.04867789323584
C           -4.46833363929373       -0.88087042744223        2.76082549761288
C           -4.91358106450613       -0.10410757474860        1.70356821935328
C           -6.01301186999487       -0.52499867804197        0.92963001301261
C           -6.69002370561924       -1.69622238868569        1.24082900995653
C           -6.17794443958536        0.45028290843925       -0.11515153584933
C           -7.09430072667523        0.58595066500425       -1.14517448600259
C           -7.02132518538835        1.67706923742811       -2.00167258248734
C           -8.03590197560665        1.80086511174874       -3.12960547363202
C           -9.44598454612993        1.87836533648653       -2.52716722334345
C           -7.92579587121353        0.56829898091334       -4.03850162011816
C           -7.81898807513428        3.04673645358862       -3.99261148437136
C           -6.02279179340328        2.62925280932398       -1.78277890417692
C           -5.09511360226665        2.51833942118765       -0.76189501148096
C           -5.16072453053575        1.41063068279773        0.06451244304838
N           -4.39807231410597        1.06958952025755        1.17271805530433
C           -3.32031250532834        1.78713120365521        1.67111848675627
C           -3.18940367571580        2.04307241797107        3.03952288097841
C           -2.09528976228074        2.76489991582362        3.48103730913125
C           -1.18619164928696        3.20355120791125        2.53616001378459
S            0.27026013470566        4.14608858958405        3.03572941572495
O            0.42527843022591        4.01081985834760        4.46065927153550
O            0.19674274765199        5.48320085838119        2.50831750595511
C            1.60971877987105        3.27807330572047        2.19243343968065
C            2.59492237381436        3.97939180398429        1.52231316455296
C            3.59302182006335        3.25415223838835        0.89705940873326
C            3.56031906661219        1.85812856059278        0.97213211947368
N            4.53752883747233        1.08154059370956        0.36708013962539
C            5.90589933741035        1.30802253024541        0.41618615685119
C            6.63125855083779        2.27462785125876        1.09353648482282
C            8.00806728552913        2.24013472952312        0.99456069647654
C            8.69489970578640        1.27064823975444        0.25301133396407
C           10.21427113521757        1.32823217360087        0.19678607154993
C           10.77746531292760        1.19846679342405        1.61901026443958
C           10.81368719146406        0.20666703773965       -0.65602056485191
C           10.64295055337450        2.67048342074926       -0.41287991495008
C            7.95911456447395        0.28919745603013       -0.39125894318198
C            6.57351796286595        0.30100944310402       -0.30829313209311
C            5.55698658380239       -0.57341332374377       -0.82959978601849
C            5.60271633556766       -1.70556934448256       -1.62645174171144
C            4.42522475995090       -2.33850697746137       -2.00373628340109
C            4.50222682670424       -3.58769846621045       -2.87005425678622
C            3.12567947514852       -4.17418273822662       -3.19441158387987
C            5.19448014265363       -3.23675736789298       -4.19474638622231
C            5.31265176229841       -4.66009175258493       -2.12802673229045
C            3.21128632848494       -1.79206197439629       -1.58056111579574
C            3.13713517543050       -0.66242686677586       -0.78445078742120
C            4.31899970547435       -0.06272594169869       -0.38696064415528
C            2.50343720384130        1.26650194792951        1.67638314582422
N            1.55401290161211        1.96313355787474        2.26702941345013
N           -1.28795485225227        2.97012312612232        1.24280469585280
C           -2.32549121832355        2.27948516924765        0.81619424067796
H           -8.63791313168427       -5.00353022980425        2.16585755421438
H           -7.86756878587325       -4.21744749619472        0.79335071219848
H           -8.92151101452888       -3.29087376235588        1.87755735933683
H           -6.65460575565227       -3.45776061635672        4.85748164105752
H           -8.16610965997866       -2.78846140271759        4.24745021501125
H           -7.99361102151661       -4.53248278313739        4.46507476193802
H           -5.13148207412405       -4.78010319418125        3.28644404762576
H           -5.59802812307701       -5.00323078772348        1.60219885341412
H           -6.46653487422465       -5.85553938383939        2.88230561481141
H           -4.80993776226415       -2.64029186083639        3.87540340138586
H           -3.59851293546470       -0.60679989982941        3.33858480406414
H           -7.52722848395979       -1.98582254767340        0.62831038367603
H           -7.86248876996241       -0.16263914883072       -1.26152339933170
H           -9.68337565199073        0.98508012084049       -1.95628342593655
H          -10.18617804540003        1.98409205180708       -3.31750077810350
H           -9.52406836690424        2.73718237534466       -1.86372952981004
H           -8.13499565443322       -0.34759243320616       -3.49304637448152
H           -6.92250572765164        0.49608860093038       -4.45330367754465
H           -8.63453685975627        0.64410614832060       -4.86046713403831
H           -7.92466901531621        3.95519761827805       -3.40427855753733
H           -6.83667173793488        3.03446803533990       -4.45913580326200
H           -8.56560944229786        3.07218405646662       -4.78391542762910
H           -5.95693946722211        3.49573978366190       -2.41921165161079
H           -4.35469070481462        3.29010946721098       -0.61561632536354
H           -3.94451006729613        1.69729191937585        3.72947293600400
H           -1.92967870837225        2.99731190142244        4.52003901323479
H            2.54977419573229        5.05556533712320        1.49253125472667
H            4.37394391522843        3.74797197187252        0.33848340603683
H            6.14762952070036        3.02682953776001        1.69821925563646
H            8.56715002308709        2.99794315063159        1.52141055197195
H           10.43981555250788        2.01079199416046        2.25633272000490
H           11.86501360038312        1.21578142826479        1.59391983956169
H           10.45707904386464        0.25947311820410        2.06567432989953
H           11.89762601836799        0.30137253517608       -0.66859909257310
H           10.56789808589240       -0.77048959713336       -0.24673201718052
H           10.46001538653281        0.26431231811988       -1.68288479267308
H           10.22857893327454        2.77797789956497       -1.41323637063241
H           11.72756051587998        2.72149581511473       -0.48116217522876
H           10.30119829265604        3.50781339039619        0.18892450701712
H            8.43500330444028       -0.49506404612716       -0.95556613956355
H            6.56263113063899       -2.07735878493670       -1.94934487313063
H            2.59690205730520       -4.45841147767063       -2.28756572886463
H            3.24840785116675       -5.06683538278726       -3.80460279168731
H            2.51958708345544       -3.46659083787979       -3.75536861484724
H            4.63770364143736       -2.46022574467251       -4.71517513159787
H            6.20652594707325       -2.87762233756832       -4.03075651432325
H            5.24451465679936       -4.11446199877296       -4.83571548665305
H            5.36871703272188       -5.56787866224340       -2.72509241529023
H            6.32546231427178       -4.32338586831078       -1.92577890383236
H            4.83766829987959       -4.89985620516412       -1.17894228953014
H            2.28255507661062       -2.24971247156912       -1.87781512209783
H            2.17589607483975       -0.26156858786937       -0.50023322127031
H            2.43779072550799        0.19235632040251        1.77965596888950
H           -2.36360478931014        2.08790914129735       -0.24724670544564

          :  Hamiltonian                  GFN2-xTB          :
         :: gradient norm              0.000059931624 Eh/a0 ::
         :: HOMO-LUMO gap              2.456155352674 eV    ::
         :: SCC energy              -160.354900305667 Eh    ::
         :: -> dispersion             -0.139966739811 Eh    ::
         :: repulsion energy           2.568801111595 Eh    ::

    * Orbital Energies and Occupations

         #    Occupation            Energy/Eh            Energy/eV
      -------------------------------------------------------------
         1        2.0000           -0.7649464             -20.8153
       ...           ...                  ...                  ...
       134        2.0000           -0.4182247             -11.3805
       135        2.0000           -0.4142249             -11.2716
       136        2.0000           -0.4137838             -11.2596
       137        2.0000           -0.4124153             -11.2224
       138        2.0000           -0.4119436             -11.2096
       139        2.0000           -0.4017644             -10.9326
       140        2.0000           -0.4015245             -10.9260
       141        2.0000           -0.3942831             -10.7290
       142        2.0000           -0.3822298             -10.4010
       143        2.0000           -0.3805538             -10.3554
       144        2.0000           -0.3802776             -10.3479
       145        2.0000           -0.3652827              -9.9398
       146        2.0000           -0.3649498              -9.9308 (HOMO)
       147                         -0.2746878              -7.4746 (LUMO)
       148                         -0.2719360              -7.3998
       149                         -0.2637851              -7.1780
       150                         -0.2602301              -7.0812
       151                         -0.2459945              -6.6939
       152                         -0.2455886              -6.6828
       153                         -0.2243523              -6.1049
       154                         -0.2240728              -6.0973
       155                         -0.1987265              -5.4076
       156                         -0.1978613              -5.3841
       157                         -0.1890794              -5.1451
       ...                                ...                  ...
       287                          1.2186364              33.1608
      -------------------------------------------------------------
                  HL-Gap            0.0902621 Eh            2.4562 eV

     #   Z          covCN         q      C6AA      α(0)
     1   6 C        3.761    -0.108    22.604     6.777
     2   6 C        3.903     0.026    20.085     6.370
     3   6 C        3.762    -0.106    22.573     6.773
     4   6 C        3.762    -0.106    22.571     6.773
     5   6 C        2.973     0.001    28.003     8.680
     6   6 C        2.931    -0.038    28.946     8.823
     7   6 C        2.909    -0.053    29.327     8.880
     8   6 C        3.071     0.042    26.990     8.518
     9   6 C        3.064    -0.017    28.365     8.733
    10   6 C        2.918    -0.043    29.059     8.840
    11   6 C        3.065    -0.016    28.353     8.732
    12   6 C        2.920    -0.039    28.962     8.825
    13   6 C        2.973     0.001    27.997     8.679
    14   6 C        3.903     0.026    20.085     6.370
    15   6 C        3.762    -0.106    22.570     6.772
    16   6 C        3.762    -0.106    22.571     6.772
    17   6 C        3.761    -0.108    22.613     6.779
    18   6 C        2.929    -0.042    29.040     8.838
    19   6 C        2.909    -0.054    29.344     8.882
    20   6 C        3.069     0.041    27.015     8.522
    21   7 N        2.799    -0.043    22.066     6.977
    22   6 C        2.907     0.063    26.581     8.454
    23   6 C        2.932    -0.024    28.605     8.771
    24   6 C        2.942    -0.031    28.772     8.797
    25   6 C        2.967     0.018    27.616     8.620
    26  16 S        3.825     0.943   108.305    17.516
    27   8 O        0.860    -0.533    24.524     6.640
    28   8 O        0.860    -0.531    24.485     6.634
    29   6 C        2.967     0.017    27.628     8.622
    30   6 C        2.941    -0.031    28.767     8.797
    31   6 C        2.932    -0.024    28.607     8.772
    32   6 C        2.907     0.063    26.581     8.454
    33   7 N        2.799    -0.042    22.054     6.975
    34   6 C        3.071     0.042    26.986     8.518
    35   6 C        2.909    -0.053    29.319     8.879
    36   6 C        2.931    -0.038    28.939     8.822
    37   6 C        2.973     0.001    27.996     8.679
    38   6 C        3.903     0.026    20.084     6.370
    39   6 C        3.761    -0.106    22.574     6.773
    40   6 C        3.761    -0.108    22.605     6.778
    41   6 C        3.762    -0.106    22.574     6.773
    42   6 C        2.918    -0.043    29.056     8.839
    43   6 C        3.065    -0.017    28.363     8.733
    44   6 C        3.065    -0.016    28.345     8.730
    45   6 C        2.920    -0.039    28.960     8.825
    46   6 C        2.973     0.001    27.998     8.679
    47   6 C        3.903     0.026    20.085     6.370
    48   6 C        3.761    -0.108    22.609     6.778
    49   6 C        3.762    -0.106    22.571     6.772
    50   6 C        3.762    -0.106    22.573     6.773
    51   6 C        2.929    -0.042    29.048     8.839
    52   6 C        2.909    -0.054    29.345     8.883
    53   6 C        3.069     0.041    27.013     8.522
    54   6 C        2.919     0.049    26.910     8.507
    55   7 N        1.889    -0.216    26.535     7.637
    56   7 N        1.887    -0.214    26.491     7.630
    57   6 C        2.919     0.049    26.911     8.507
    58   1 H        0.925     0.036     2.496     2.471
    59   1 H        0.925     0.036     2.507     2.476
    60   1 H        0.925     0.036     2.503     2.474
    61   1 H        0.925     0.036     2.497     2.471
    62   1 H        0.925     0.034     2.530     2.488
    63   1 H        0.925     0.037     2.483     2.464
    64   1 H        0.925     0.036     2.499     2.472
    65   1 H        0.925     0.034     2.535     2.490
    66   1 H        0.925     0.038     2.482     2.463
    67   1 H        0.926     0.033     2.541     2.493
    68   1 H        0.926     0.027     2.631     2.536
    69   1 H        0.926     0.040     2.447     2.446
    70   1 H        0.926     0.034     2.531     2.488
    71   1 H        0.925     0.036     2.499     2.472
    72   1 H        0.925     0.037     2.483     2.464
    73   1 H        0.925     0.034     2.530     2.488
    74   1 H        0.925     0.036     2.498     2.472
    75   1 H        0.925     0.034     2.536     2.490
    76   1 H        0.925     0.037     2.485     2.465
    77   1 H        0.925     0.036     2.500     2.473
    78   1 H        0.925     0.036     2.504     2.474
    79   1 H        0.925     0.037     2.492     2.469
    80   1 H        0.926     0.041     2.435     2.440
    81   1 H        0.926     0.028     2.610     2.527
    82   1 H        0.926     0.062     2.175     2.306
    83   1 H        0.926     0.074     2.037     2.232
    84   1 H        0.926     0.074     2.046     2.237
    85   1 H        0.926     0.062     2.173     2.305
    86   1 H        0.926     0.027     2.630     2.536
    87   1 H        0.926     0.034     2.533     2.489
    88   1 H        0.925     0.037     2.495     2.470
    89   1 H        0.925     0.038     2.479     2.462
    90   1 H        0.925     0.034     2.530     2.488
    91   1 H        0.925     0.037     2.494     2.470
    92   1 H        0.925     0.036     2.506     2.476
    93   1 H        0.925     0.036     2.505     2.475
    94   1 H        0.925     0.034     2.533     2.489
    95   1 H        0.925     0.038     2.480     2.463
    96   1 H        0.925     0.037     2.496     2.471
    97   1 H        0.926     0.040     2.445     2.445
    98   1 H        0.926     0.034     2.526     2.486
    99   1 H        0.925     0.036     2.507     2.476
   100   1 H        0.925     0.037     2.492     2.469
   101   1 H        0.925     0.036     2.508     2.476
   102   1 H        0.925     0.034     2.534     2.489
   103   1 H        0.925     0.037     2.495     2.470
   104   1 H        0.925     0.037     2.483     2.464
   105   1 H        0.925     0.037     2.484     2.465
   106   1 H        0.925     0.037     2.494     2.470
   107   1 H        0.925     0.034     2.533     2.489
   108   1 H        0.926     0.040     2.451     2.448
   109   1 H        0.926     0.027     2.634     2.538
   110   1 H        0.926     0.062     2.179     2.309
   111   1 H        0.925     0.062     2.181     2.309

molecular dipole:
                 x           y           z       tot (Debye)
 q only:       -0.111      -2.263      -1.675
   full:       -0.082      -2.112      -1.527       6.628

 projected vibrational frequencies (cm⁻¹)
eigval :       -0.00    -0.00    -0.00    -0.00     0.00     0.00
eigval :        3.69     4.72     4.94    19.79    21.48    27.94
eigval :       30.00    31.45    32.00    32.23    32.91    53.43
eigval :       55.96    70.08    71.16    73.02    78.94    93.61
eigval :       95.25    96.07   104.04   110.16   127.36   135.92
eigval :      145.00   157.91   158.92   162.27   174.59   176.41
eigval :      178.94   182.31   192.89   194.30   194.41   217.24
eigval :      217.54   219.75   221.97   226.30   235.38   238.96
eigval :      244.92   253.05   266.92   268.36   274.62   280.37
eigval :      293.65   298.90   304.71   315.66   319.42   319.52
eigval :      325.86   326.17   327.39   333.14   337.31   353.07
eigval :      356.78   357.45   360.21   367.35   372.24   383.64
eigval :      387.47   389.17   397.68   400.49   404.34   410.22
eigval :      412.34   413.17   415.24   442.53   443.10   444.12
eigval :      444.37   461.50   463.55   464.59   466.38   468.71
eigval :      469.69   496.93   498.77   519.82   520.42   528.63
eigval :      552.49   575.74   576.03   582.79   583.22   586.12
eigval :      592.47   604.65   606.09   629.77   629.82   640.94
eigval :      640.98   686.59   688.27   688.39   695.33   702.86
eigval :      704.11   707.86   708.04   722.68   723.27   751.26
eigval :      761.41   817.92   818.28   822.51   822.69   833.00
eigval :      833.12   834.32   835.01   873.08   873.18   873.67
eigval :      873.73   880.63   880.76   898.23   898.56   913.20
eigval :      913.26   916.39   916.71   923.99   924.81   925.40
eigval :      925.45   934.04   934.54   946.88   948.89   960.27
eigval :      960.28   960.59   960.62   962.90   962.93   962.94
eigval :      963.00   963.30   963.32   963.38   963.41  1015.59
eigval :     1018.32  1032.50  1032.59  1035.80  1035.83  1035.87
eigval :     1035.88  1036.00  1036.06  1039.79  1039.82  1084.88
eigval :     1105.75  1116.92  1117.40  1119.36  1131.62  1131.82
eigval :     1145.62  1146.10  1150.60  1151.07  1179.21  1179.37
eigval :     1210.78  1211.01  1228.00  1228.04  1228.22  1228.40
eigval :     1228.48  1229.20  1229.62  1230.45  1233.36  1233.55
eigval :     1235.37  1236.29  1239.49  1249.44  1249.61  1259.31
eigval :     1259.37  1283.59  1283.83  1292.82  1294.53  1298.90
eigval :     1299.00  1305.95  1306.01  1345.36  1345.78  1348.13
eigval :     1348.72  1361.92  1362.54  1385.93  1388.02  1402.89
eigval :     1403.03  1404.89  1404.94  1406.12  1406.20  1406.45
eigval :     1406.52  1413.37  1413.47  1429.39  1429.49  1429.87
eigval :     1429.88  1430.86  1431.11  1459.29  1465.44  1474.31
eigval :     1474.37  1482.26  1482.42  1492.05  1492.08  1492.12
eigval :     1492.19  1494.56  1494.58  1494.63  1494.67  1501.25
eigval :     1501.31  1502.16  1502.20  1505.38  1505.53  1505.68
eigval :     1505.79  1514.99  1515.07  1515.35  1515.37  1520.23
eigval :     1520.30  1520.34  1520.39  1547.93  1550.90  1551.70
eigval :     1553.76  1572.83  1573.01  1584.65  1584.94  1604.76
eigval :     1604.89  1616.84  1617.02  3022.32  3022.34  3022.74
eigval :     3022.91  3024.27  3024.30  3024.41  3024.68  3027.45
eigval :     3027.45  3027.75  3027.92  3031.02  3031.04  3031.28
eigval :     3031.35  3031.63  3031.67  3031.93  3032.08  3036.02
eigval :     3036.10  3036.44  3036.67  3038.64  3038.81  3038.98
eigval :     3039.36  3047.49  3047.90  3047.95  3048.15  3051.15
eigval :     3051.47  3051.55  3051.82  3071.99  3073.45  3081.39
eigval :     3082.10  3084.82  3086.52  3089.12  3089.48  3092.23
eigval :     3092.85  3096.04  3096.71  3115.18  3115.83  3119.65
eigval :     3119.67  3121.73  3123.03

   temp. (K)  partition function   enthalpy   heat capacity  entropy
                                   cal/mol     cal/K/mol   cal/K/mol   J/K/mol
 298.15  VIB  0.107E+28            33193.581    200.853    208.867
         ROT  0.228E+09              888.752      2.981     41.227
         INT  0.245E+36            34082.333    203.833    250.095
         TR   0.209E+29             1481.254      4.968     45.801
         TOT                       35563.5869   208.8016   295.8959  1238.0283

       T/K    H(0)-H(T)+PV         H(T)/Eh          T*S/Eh         G(T)/Eh
   ------------------------------------------------------------------------
    298.15    0.566742E-01    0.966591E+00    0.140590E+00    0.826001E+00
   ------------------------------------------------------------------------

         :::::::::::::::::::::::::::::::::::::::::::::::::::::
         ::                  THERMODYNAMIC                  ::
         :::::::::::::::::::::::::::::::::::::::::::::::::::::
         :: total free energy        -156.960098127283 Eh   ::
         ::.................................................::
         :: total energy             -157.786099194072 Eh   ::
         :: zero point energy           0.909916561471 Eh   ::
         :: G(RRHO) w/o ZPVE           -0.083915494681 Eh   ::
         :: G(RRHO) contrib.            0.826001066790 Eh   ::
         :::::::::::::::::::::::::::::::::::::::::::::::::::::

           -------------------------------------------------
          | TOTAL ENERGY             -157.786099194072 Eh   |
          | TOTAL ENTHALPY           -156.819508449427 Eh   |
          | TOTAL FREE ENERGY        -156.960098127283 Eh   |
          | GRADIENT NORM               0.000059924218 Eh/α |
          | HOMO-LUMO GAP               2.456156326262 eV   |
           -------------------------------------------------

 * finished run on 2025/09/05 at 06:36:17.544
