   * xtb version 6.7.1 (edcfbbe) compiled by 'albert@albert-system' on 2024-07-22

   ID    Z sym.   atoms
    1    6 C      1-20, 22-25, 29-32, 34-54, 57
    2    7 N      21, 33, 55, 56
    3   16 S      26
    4    8 O      27, 28
    5    1 H      58-111

          program call               : xtb data2507/gas/pDTCz-2DPyS/pDTCz-2DPyS_gas_S0_finalOpt.xtbopt.xyz --gfn 2 --spinpol --tblite --uhf 2 --ohess vtight --parallel 40 --molden --ceasefiles --namespace data2507/gas/pDTCz-2DPyS/pDTCz-2DPyS_gas_T1_preOpt
 * total energy  :  -157.7073981 Eh     change       -0.9076058E-07 Eh
 * total energy  :  -157.7108228 Eh     change       -0.3424685E-02 Eh
 * total energy  :  -157.7119883 Eh     change       -0.1165523E-02 Eh
 * total energy  :  -157.7122516 Eh     change       -0.2633176E-03 Eh
 * total energy  :  -157.7124321 Eh     change       -0.1804817E-03 Eh
 * total energy  :  -157.7125146 Eh     change       -0.8251471E-04 Eh
 * total energy  :  -157.7125818 Eh     change       -0.6711552E-04 Eh
 * total energy  :  -157.7126242 Eh     change       -0.4247963E-04 Eh
 * total energy  :  -157.7126508 Eh     change       -0.2652215E-04 Eh
 * total energy  :  -157.7126813 Eh     change       -0.3054249E-04 Eh
 * total energy  :  -157.7127978 Eh     change       -0.6028415E-06 Eh
 * total energy  :  -157.7127983 Eh     change       -0.4587562E-06 Eh
 * total energy  :  -157.7127986 Eh     change       -0.2967541E-06 Eh
 * total energy  :  -157.7127988 Eh     change       -0.1782396E-06 Eh
 * total energy  :  -157.7127991 Eh     change       -0.2971070E-06 Eh
 * total energy  :  -157.7127992 Eh     change       -0.1624684E-06 Eh
 * total energy  :  -157.7127994 Eh     change       -0.1823085E-06 Eh
 * total energy  :  -157.7127996 Eh     change       -0.1921445E-06 Eh
 * total energy  :  -157.7127997 Eh     change       -0.7409341E-07 Eh
   *** GEOMETRY OPTIMIZATION CONVERGED AFTER 37 ITERATIONS ***

 final structure:
================
111
 xtb: 6.7.1 (edcfbbe)
C            3.08983310162154        2.73173852417687       -2.80126767116481
C            1.65167943274687        3.19056775614203       -2.54515356993776
C            1.68850390877759        4.26032570049688       -1.44595440641734
C            1.09919566755559        3.80045551572062       -3.84209139861922
C            0.73665623794603        2.05114830142089       -2.12207487686237
C            1.15822065343677        0.71883248477983       -2.11710931309389
C            0.31387049618866       -0.32523414436670       -1.78873272284333
C           -0.99261109729864       -0.02793866122786       -1.43962935923079
C           -1.43612453845155        1.31209327402093       -1.40070539118755
C           -0.57529059407115        2.33566865602640       -1.75749896980103
C           -2.80432671049911        1.27093968793827       -0.95577825877715
C           -3.76238553475437        2.24965782019038       -0.73634674179997
C           -5.03060130201955        1.89104038187332       -0.29962109806146
C           -6.12624645027883        2.91442453312263       -0.04264832230442
C           -5.63512852386511        4.35570670732878       -0.20620112759426
C           -6.65648624186545        2.75577586215171        1.38970399075396
C           -7.26505287890134        2.67661447775625       -1.04490885314184
C           -5.31575076135525        0.53112117084858       -0.11475597391864
C           -4.38667083689868       -0.46530117777818       -0.33432176279409
C           -3.11620354894607       -0.09070191174656       -0.74541859350085
N           -2.02121552461585       -0.86708598386986       -1.05818731661452
C           -1.89516286928454       -2.25077567834660       -0.93472784087267
C           -1.33088972790657       -3.01681722035597       -1.98438073649056
C           -1.03589225217211       -4.33407969760244       -1.76392513357704
C           -1.33809520250223       -4.88806603518320       -0.50937649795158
S           -0.27060817168376       -6.20133865558769        0.05969359033171
O            0.26710251049059       -6.90138399020370       -1.07859087847975
O           -0.81048823426494       -6.96741487937911        1.13973442524206
C            0.94490591629762       -4.99652748125100        0.61116511077384
C            1.77496410674801       -4.43062365013794       -0.38072339582933
C            2.11633957467958       -3.11463320580778       -0.27004470840779
C            1.65539939473324       -2.35910832121677        0.84797715917406
N            1.88807253439814       -0.99439486690453        0.96408995992158
C            0.94540964397623       -0.06148145219269        1.35565854153522
C           -0.39034263487579       -0.22592154189910        1.68059472400244
C           -1.12634111949832        0.89270273046467        2.02420150987077
C           -0.56832899934085        2.17298227321375        2.06772077087285
C           -1.36391871002028        3.39318620474348        2.50418244635312
C           -2.83603120674399        3.07306594728933        2.77550808596135
C           -0.74312344257405        3.94530622932977        3.79609589418771
C           -1.30718738914161        4.46182322301305        1.40448075608176
C            0.77099554934355        2.32674460083387        1.72246070630422
C            1.52456287227972        1.22625366718623        1.35505544033054
C            2.89155969094375        1.05462762416278        0.93794852490894
C            3.94181321657447        1.93903501742558        0.74987704574316
C            5.18185364339015        1.46449930485708        0.34119186638426
C            6.37104433174860        2.38262931363967        0.10735352888466
C            6.90492678172890        2.17649372881949       -1.31767466695146
C            6.01092547655744        3.86249162015686        0.26623469834488
C            7.46744955988190        2.04056911852815        1.12644712158724
C            5.34295165101439        0.08413055032883        0.16296291729508
C            4.31717039196313       -0.82041161958797        0.35070323071065
C            3.07216037056003       -0.32926531250458        0.71649376196640
C            0.96508356165181       -3.05279688106578        1.84607926702246
N            0.62709074193538       -4.30642705131617        1.70682730263908
N           -1.95297033766888       -4.18196192645909        0.44178486335889
C           -2.23514197145355       -2.91690978215378        0.24264647376684
H            3.70176455554965        3.59337783136395       -3.06288764596239
H            3.13816933549024        2.02841043760645       -3.62927775312866
H            3.51272787778287        2.26876548180902       -1.91207777622325
H            0.71065484024177        4.70512654684202       -1.28702905150216
H            2.02046041100019        3.81449772036315       -0.51254567644199
H            2.37930581999219        5.05516183483703       -1.72068674647683
H            0.09333631650888        4.18565015705552       -3.69785290555254
H            1.06586206488364        3.04849089193606       -4.62765565585067
H            1.73548654920682        4.61832044321482       -4.17362183757894
H            2.17474607605849        0.47543943489508       -2.37788445782347
H            0.66923288748546       -1.34445919965744       -1.79744810726556
H           -0.93767288531222        3.35167616386251       -1.75443890508405
H           -3.50495683378331        3.27930837039927       -0.92076763709189
H           -4.81608261414071        4.56930248113896        0.47664235454765
H           -6.44877852644113        5.04214175528689        0.01855150384298
H           -5.31073545400669        4.54757764283022       -1.22632302365127
H           -5.85252462205597        2.89554262521473        2.10887719202638
H           -7.09040563412231        1.77315857536540        1.54973100812447
H           -7.42616422310400        3.49938125744485        1.58474293676298
H           -6.89620250450804        2.77406730027965       -2.06393030950360
H           -7.69016028154336        1.68325350780354       -0.93090826303210
H           -8.05684681013972        3.40684968159966       -0.89255728255481
H           -6.30350487547058        0.23683766007704        0.20386665521519
H           -4.64931561920993       -1.50370950606242       -0.20132779652365
H           -1.14954950014211       -2.54827869455525       -2.93998458572545
H           -0.58289703583957       -4.96774012420589       -2.50829085777984
H            2.05896660919019       -5.04464069755213       -1.21905941947694
H            2.70135605652086       -2.62393237990351       -1.03285003627015
H           -0.85056395382206       -1.20093351111181        1.66262803708511
H           -2.16577120929235        0.74974571460056        2.26753752092861
H           -3.31268659861689        2.66315428254780        1.88768452310922
H           -3.35818847710991        3.98675502984433        3.05445255172238
H           -2.94064360138899        2.36751652870309        3.59642194387158
H           -1.29905985528774        4.81628819810914        4.13648082184524
H           -0.77057625704042        3.19058585409046        4.57916829016377
H            0.29184480486149        4.23890796264853        3.64315356295076
H           -0.29099551173414        4.80349777850641        1.23078788989263
H           -1.90923447364780        5.32287158987458        1.68802722415946
H           -1.69661852114228        4.05283175145870        0.47624555298947
H            1.23673965089221        3.29950711138992        1.74453328780489
H            3.77775759032598        2.98765595933545        0.93329506917537
H            7.24881190469300        1.15809531044480       -1.47314702918112
H            7.74209886384354        2.84644641441353       -1.50081264285003
H            6.12682325963215        2.38980574088152       -2.04730369590678
H            5.22647645039076        4.15024880993465       -0.42995728009035
H            5.68823708560451        4.08233077916912        1.28121519357590
H            6.88744959942827        4.47193466657087        0.05670249731636
H            8.32374163213346        2.69721402494866        0.98926008472715
H            7.09259108170187        2.16842954097945        2.13985359568221
H            7.80395694751795        1.01349141645896        1.01550063142033
H            6.30868649351940       -0.30284644126076       -0.12238460055943
H            4.49414301138046       -1.87855624708027        0.23526626850809
H            0.70599609594127       -2.57361871233927        2.78005591343294
H           -2.72479863726938       -2.40029305630706        1.05766657768589

 projected vibrational frequencies (cm⁻¹)
eigval :       -0.00    -0.00    -0.00     0.00     0.00     0.00
eigval :       19.83    27.07    30.18    31.49    38.05    40.10
eigval :       43.48    47.37    54.42    55.68    60.49    64.27
eigval :       70.64    72.81    77.64    85.59    90.02    94.24
eigval :      101.42   110.45   122.72   128.33   138.06   148.57
eigval :      156.40   160.49   162.59   164.83   176.84   177.66
eigval :      185.84   186.42   188.56   193.00   202.07   218.57
eigval :      220.61   222.73   223.06   234.85   236.69   244.23
eigval :      248.84   256.89   270.40   271.53   272.15   275.91
eigval :      289.31   300.21   308.14   311.06   319.02   321.68
eigval :      324.08   331.98   334.73   335.82   337.64   341.68
eigval :      351.66   356.03   356.51   360.10   371.37   374.24
eigval :      382.78   388.47   390.72   400.89   403.53   405.46
eigval :      408.79   410.90   411.40   423.32   431.98   444.83
eigval :      445.59   446.28   449.46   461.85   464.41   467.61
eigval :      469.53   476.72   482.64   495.20   518.23   518.58
eigval :      526.83   569.02   570.30   577.77   579.86   584.48
eigval :      588.02   591.62   594.89   609.98   624.70   632.19
eigval :      640.49   641.10   648.59   679.72   687.91   688.56
eigval :      689.44   705.94   706.74   716.62   717.04   735.04
eigval :      742.21   790.51   796.57   822.26   822.87   824.42
eigval :      826.68   832.09   833.20   867.56   872.58   873.30
eigval :      873.44   874.24   878.49   881.52   888.03   891.66
eigval :      895.67   903.34   912.35   914.89   916.10   917.61
eigval :      920.28   923.75   924.93   934.91   936.43   959.98
eigval :      960.13   960.84   961.47   962.53   962.81   963.41
eigval :      963.53   963.54   964.72   965.06   966.65   968.47
eigval :      987.15  1031.74  1032.08  1033.87  1035.17  1035.41
eigval :     1035.72  1037.89  1039.80  1040.08  1040.52  1041.45
eigval :     1064.41  1110.68  1114.40  1120.65  1121.11  1129.40
eigval :     1130.76  1131.92  1140.37  1143.10  1168.75  1171.04
eigval :     1189.08  1202.30  1209.98  1211.34  1225.73  1225.83
eigval :     1227.50  1227.70  1227.92  1229.11  1231.33  1231.66
eigval :     1232.25  1234.02  1241.16  1245.15  1251.12  1255.13
eigval :     1257.32  1278.84  1282.40  1289.96  1291.34  1295.16
eigval :     1296.50  1298.25  1302.82  1308.14  1332.43  1340.69
eigval :     1344.84  1347.15  1351.67  1354.60  1366.84  1400.42
eigval :     1401.44  1402.51  1403.64  1403.90  1404.00  1406.40
eigval :     1407.23  1408.14  1409.86  1411.26  1411.65  1422.59
eigval :     1426.37  1426.63  1428.73  1429.03  1430.88  1443.29
eigval :     1446.29  1461.99  1464.62  1469.35  1475.27  1476.74
eigval :     1488.34  1489.68  1490.59  1491.11  1491.23  1493.11
eigval :     1493.20  1495.25  1499.17  1499.88  1500.70  1503.30
eigval :     1504.02  1504.60  1504.89  1505.44  1513.31  1513.55
eigval :     1515.98  1516.50  1520.94  1521.73  1522.41  1523.20
eigval :     1539.38  1562.16  1563.94  1576.80  1579.34  1582.63
eigval :     1586.33  1599.81  1604.89  3016.20  3017.21  3021.84
eigval :     3023.11  3023.93  3024.67  3025.94  3026.95  3028.36
eigval :     3028.43  3028.66  3028.78  3029.52  3029.86  3031.81
eigval :     3032.08  3033.19  3033.50  3033.82  3034.30  3036.19
eigval :     3036.71  3038.17  3038.24  3040.33  3040.71  3044.52
eigval :     3044.88  3047.43  3047.52  3050.16  3051.28  3052.55
eigval :     3052.95  3053.11  3053.85  3055.98  3061.80  3081.30
eigval :     3082.28  3086.90  3087.42  3089.06  3093.02  3093.91
eigval :     3100.21  3100.92  3103.36  3110.26  3113.09  3116.34
eigval :     3118.41  3120.05  3124.07

   temp. (K)  partition function   enthalpy   heat capacity  entropy
                                   cal/mol     cal/K/mol   cal/K/mol   J/K/mol
 298.15  VIB  0.577E+23            32932.531    205.851    201.520
         ROT  0.103E+09              888.752      2.981     39.640
         INT  0.592E+31            33821.283    208.831    241.160
         TR   0.209E+29             1481.254      4.968     45.801
         TOT                       35302.5373   213.7996   286.9608  1200.6438

       T/K    H(0)-H(T)+PV         H(T)/Eh          T*S/Eh         G(T)/Eh
   ------------------------------------------------------------------------
    298.15    0.562582E-01    0.963000E+00    0.136344E+00    0.826656E+00
   ------------------------------------------------------------------------

         :::::::::::::::::::::::::::::::::::::::::::::::::::::
         ::                  THERMODYNAMIC                  ::
         :::::::::::::::::::::::::::::::::::::::::::::::::::::
         :: total free energy        -156.886143624208 Eh   ::
         ::.................................................::
         :: total energy             -157.712799756574 Eh   ::
         :: zero point energy           0.906742274659 Eh   ::
         :: G(RRHO) w/o ZPVE           -0.080086142293 Eh   ::
         :: G(RRHO) contrib.            0.826656132366 Eh   ::
         :::::::::::::::::::::::::::::::::::::::::::::::::::::

           -------------------------------------------------
          | TOTAL ENERGY             -157.712799756574 Eh   |
          | TOTAL ENTHALPY           -156.749799307787 Eh   |
          | TOTAL FREE ENERGY        -156.886143624208 Eh   |
          | GRADIENT NORM               0.000139409081 Eh/α |
           -------------------------------------------------

 * finished run on 2025/09/05 at 06:49:56.198
