   * xtb version 6.7.1 (edcfbbe) compiled by 'albert@albert-system' on 2024-07-22

   ID    Z sym.   atoms
    1    6 C      1-20, 22-25, 29-32, 34-54, 57
    2    7 N      21, 33, 55, 56
    3   16 S      26
    4    8 O      27, 28
    5    1 H      58-111

          program call               : xtb data2507/gas/pDTCz-2DPyS/pDTCz-2DPyS_gas_S0_crest.xyz --gfn 2 --ohess vtight --parallel 40 --molden --ceasefiles --namespace data2507/gas/pDTCz-2DPyS/pDTCz-2DPyS_gas_S0_finalOpt
          :  Hamiltonian                  GFN2-xTB          :
 * total energy  :  -157.7903777 Eh     change       -0.2372730E-08 Eh
 * total energy  :  -157.7903797 Eh     change       -0.1991433E-05 Eh
 * total energy  :  -157.7903844 Eh     change       -0.4697808E-05 Eh
 * total energy  :  -157.7903866 Eh     change       -0.2182744E-05 Eh
 * total energy  :  -157.7903891 Eh     change       -0.2527674E-05 Eh
 * total energy  :  -157.7903915 Eh     change       -0.2358143E-05 Eh
 * total energy  :  -157.7903930 Eh     change       -0.1547729E-05 Eh
 * total energy  :  -157.7903945 Eh     change       -0.1476302E-05 Eh
 * total energy  :  -157.7903958 Eh     change       -0.1322299E-05 Eh
 * total energy  :  -157.7903966 Eh     change       -0.7838110E-06 Eh
 * total energy  :  -157.7903972 Eh     change       -0.5823584E-06 Eh
 * total energy  :  -157.7903978 Eh     change       -0.6519517E-06 Eh
 * total energy  :  -157.7903985 Eh     change       -0.6875859E-06 Eh
 * total energy  :  -157.7903991 Eh     change       -0.6358833E-06 Eh
 * total energy  :  -157.7903996 Eh     change       -0.5002705E-06 Eh
 * total energy  :  -157.7904000 Eh     change       -0.3298762E-06 Eh
 * total energy  :  -157.7904002 Eh     change       -0.1887424E-06 Eh
 * total energy  :  -157.7904003 Eh     change       -0.1136064E-06 Eh
 * total energy  :  -157.7904004 Eh     change       -0.9161383E-07 Eh
   *** GEOMETRY OPTIMIZATION CONVERGED AFTER 19 ITERATIONS ***

 final structure:
================
111
 xtb: 6.7.1 (edcfbbe)
C            3.07376596061369        2.63695943423082       -2.78945932322449
C            1.64115341050479        3.11693640260475       -2.54154117885584
C            1.68826454103601        4.18914341289386       -1.44559389016294
C            1.10374174127824        3.72981987037663       -3.84326912235963
C            0.70736987746468        1.99195162387543       -2.11888086008501
C            1.11233757697743        0.65564422161541       -2.09467431186609
C            0.24907169130002       -0.37641526981218       -1.77478867674193
C           -1.05996532193979       -0.06289618958354       -1.45706403663531
C           -1.48147751791786        1.28115626845742       -1.42031689820938
C           -0.60240577868482        2.29369110210860       -1.76892030746589
C           -2.84903439230838        1.26748320649166       -0.97155629430556
C           -3.78654074710068        2.27002485665509       -0.76342658586445
C           -5.05925392999905        1.94453614561152       -0.31986576834301
C           -6.13114547663963        2.99435730627206       -0.06633306922842
C           -5.60549589955685        4.42234822050839       -0.23810160454457
C           -6.65960972156593        2.85570215439394        1.36853115092480
C           -7.27799235416129        2.77864212430174       -1.06394581243805
C           -5.37224400418358        0.59385236283722       -0.12244616294560
C           -4.46376503605475       -0.42491177013056       -0.33205171985629
C           -3.18623801236718       -0.08176941506973       -0.74181326583872
N           -2.10533536619251       -0.88606453117228       -1.06156568609966
C           -2.00692786008407       -2.26531230688711       -0.95766866479144
C           -1.41612434775051       -3.00848201878657       -1.98727588678671
C           -1.10521991227624       -4.33495480588470       -1.76706333458867
C           -1.38297076920633       -4.86314039525795       -0.51252965520644
S           -0.29221196667112       -6.19914942702534        0.06129387105591
O            0.24499696536854       -6.87305377376297       -1.09314737652691
O           -0.82438668850438       -6.98793420853501        1.12505830062746
C            0.89180032522315       -4.92576906189413        0.58811295068680
C            1.76198228848491       -4.41827644878551       -0.36619472294083
C            2.21872757747608       -3.12209700069532       -0.21072558321206
C            1.78854400194404       -2.38666392342858        0.89868265826550
N            2.01062490867117       -1.02371250917161        1.01890180062837
C            1.03871529188828       -0.10759735720918        1.40179259217060
C           -0.30087269537819       -0.29454224325710        1.69216332912247
C           -1.06315095560009        0.81269919728543        2.01714842353297
C           -0.53002045001143        2.10253836299620        2.06959344856760
C           -1.35293086713660        3.30756295783217        2.50139583282823
C           -2.82055444806480        2.95944552179394        2.76272929863220
C           -0.75200472179514        3.86818680813649        3.79885983889024
C           -1.30973999901596        4.37974589714636        1.40509145014703
C            0.80637238334229        2.27990156556579        1.73716379309861
C            1.58697074986216        1.19018453124632        1.38646721497844
C            2.95508696339370        1.05193050799830        0.96289880366143
C            3.98209239472940        1.96694447029537        0.77614975835223
C            5.22930728614961        1.53000940093791        0.35729275506150
C            6.39208733738551        2.48105590400609        0.11618572892162
C            6.91799328631953        2.29442036764485       -1.31426648170509
C            5.99176430650043        3.94966714906803        0.28242586852004
C            7.50677417680891        2.16745676648659        1.12399604165589
C            5.42575720680315        0.15618984820839        0.17167331463774
C            4.42517024337121       -0.77693512254475        0.36012112227010
C            3.17121787548637       -0.32222271930275        0.73406591760248
C            1.04125858764114       -3.06648533284837        1.87176568638263
N            0.57953293145156       -4.28469728379319        1.69630644042361
N           -2.05607098885327       -4.21055464870017        0.41136824905354
C           -2.40405058076221       -2.96102942814179        0.19207996123297
H            3.69648472138909        3.48807586147664       -3.05998502489724
H            3.11484768207128        1.92347621435781       -3.60924713118690
H            3.49018361534274        2.18006416573641       -1.89415893510768
H            0.71589496721471        4.64773517535358       -1.29214255157066
H            2.00973487197715        3.74067672585539       -0.50994505553125
H            2.39141871058713        4.97348894313171       -1.71932736221690
H            0.10221516478899        4.12845177295211       -3.70549043887139
H            1.06468243765265        2.97591016664758       -4.62682247422172
H            1.75216435820220        4.53836706101554       -4.17424627116112
H            2.13115095279443        0.39774267040382       -2.33162147890555
H            0.60107029620687       -1.39793166754836       -1.76298075320859
H           -0.95101133580160        3.31441901175253       -1.76534195944835
H           -3.50624566687209        3.29090673295912       -0.96192672941844
H           -4.77835910793079        4.61729418805492        0.44053448333091
H           -6.40075626274848        5.12997797563954       -0.01301465400200
H           -5.28032712587579        4.60182419022912       -1.26022142796485
H           -5.84832574464774        2.97420165704249        2.08322715225951
H           -7.12064715846198        1.88631289482460        1.53367479897902
H           -7.40690495138748        3.62153492544193        1.56492412108248
H           -6.91023848193168        2.86387502783598       -2.08449343791999
H           -7.72468214513085        1.79531659349040       -0.94475250454478
H           -8.05306290468410        3.52680857841556       -0.91225446878853
H           -6.36567060684709        0.32226147582873        0.19896406219650
H           -4.75416402599053       -1.45486958411005       -0.19091449721239
H           -1.18529072677768       -2.52949871619620       -2.92718706859877
H           -0.62529984402174       -4.95087071334598       -2.50963706640794
H            2.01953830660961       -5.02075803330467       -1.22201763647194
H            2.84170646464400       -2.66248876511450       -0.96331692380206
H           -0.75265531783732       -1.27493951226184        1.66235979919211
H           -2.10514719938465        0.65116480634198        2.23736079642407
H           -3.28697681953011        2.54921194403939        1.86965739326332
H           -3.35946991764134        3.86190644678729        3.04670900333902
H           -2.91655419006629        2.24547292566481        3.57739493852385
H           -1.32567340248527        4.72824984142701        4.13795149554040
H           -0.77077186384945        3.11102682985462        4.57989054610662
H            0.27856963712450        4.18047451773134        3.65333951230279
H           -0.29875833192902        4.73979937616040        1.23809698170994
H           -1.92873845914753        5.22938885335688        1.68706432610412
H           -1.68632056470634        3.96561848966314        0.47397194644833
H            1.25348192385440        3.26153596530044        1.75273083855557
H            3.78946965911326        3.00860497806275        0.97085914486187
H            7.29052680078666        1.28693641592929       -1.47534098240890
H            7.73296323234554        2.98939704660811       -1.50483779073275
H            6.12616472765620        2.48517308538942       -2.03532448593065
H            5.19238332798446        4.21579113973730       -0.40532411037754
H            5.67203857931127        4.15725416115916        1.30089301832659
H            6.84835102220004        4.58483863234419        0.06640159702506
H            8.34430983032611        2.84676530402188        0.98050601038466
H            7.13791602496473        2.28337008615228        2.14106124658652
H            7.86935327731673        1.14974149836482        1.00804046122095
H            6.39897014060729       -0.20437210807619       -0.12345598917331
H            4.63292865820905       -1.82867840251921        0.23397398706238
H            0.78510164647896       -2.58982897622377        2.80736286095069
H           -2.95330725426306       -2.47498899874414        0.98614487420379

          :  Hamiltonian                  GFN2-xTB          :
         :: gradient norm              0.000036758694 Eh/a0 ::
         :: HOMO-LUMO gap              2.103375717985 eV    ::
         :: SCC energy              -160.360459892463 Eh    ::
         :: -> dispersion             -0.171799170127 Eh    ::
         :: repulsion energy           2.570059521553 Eh    ::

    * Orbital Energies and Occupations

         #    Occupation            Energy/Eh            Energy/eV
      -------------------------------------------------------------
         1        2.0000           -0.7712342             -20.9863
       ...           ...                  ...                  ...
       134        2.0000           -0.4213112             -11.4645
       135        2.0000           -0.4185862             -11.3903
       136        2.0000           -0.4177426             -11.3674
       137        2.0000           -0.4168292             -11.3425
       138        2.0000           -0.4158578             -11.3161
       139        2.0000           -0.4065365             -11.0624
       140        2.0000           -0.4047105             -11.0127
       141        2.0000           -0.3956106             -10.7651
       142        2.0000           -0.3854303             -10.4881
       143        2.0000           -0.3846316             -10.4664
       144        2.0000           -0.3828598             -10.4181
       145        2.0000           -0.3701632             -10.0727
       146        2.0000           -0.3679168             -10.0115 (HOMO)
       147                         -0.2906192              -7.9082 (LUMO)
       148                         -0.2740212              -7.4565
       149                         -0.2674843              -7.2786
       150                         -0.2588892              -7.0447
       151                         -0.2532463              -6.8912
       152                         -0.2475537              -6.7363
       153                         -0.2303234              -6.2674
       154                         -0.2277394              -6.1971
       155                         -0.2043913              -5.5618
       156                         -0.2015294              -5.4839
       157                         -0.1940336              -5.2799
       ...                                ...                  ...
       287                          1.2414518              33.7816
      -------------------------------------------------------------
                  HL-Gap            0.0772976 Eh            2.1034 eV

     #   Z          covCN         q      C6AA      α(0)
     1   6 C        3.761    -0.106    22.568     6.772
     2   6 C        3.903     0.026    20.085     6.370
     3   6 C        3.762    -0.106    22.567     6.772
     4   6 C        3.762    -0.106    22.564     6.771
     5   6 C        2.973     0.002    27.980     8.677
     6   6 C        2.929    -0.041    29.011     8.833
     7   6 C        2.910    -0.053    29.316     8.878
     8   6 C        3.076     0.042    26.984     8.517
     9   6 C        3.062    -0.016    28.336     8.729
    10   6 C        2.921    -0.037    28.928     8.820
    11   6 C        3.066    -0.016    28.340     8.729
    12   6 C        2.918    -0.042    29.041     8.837
    13   6 C        2.972     0.001    28.000     8.680
    14   6 C        3.903     0.026    20.079     6.369
    15   6 C        3.761    -0.108    22.616     6.779
    16   6 C        3.761    -0.108    22.607     6.778
    17   6 C        3.762    -0.106    22.571     6.772
    18   6 C        2.931    -0.038    28.937     8.822
    19   6 C        2.908    -0.053    29.314     8.878
    20   6 C        3.070     0.043    26.963     8.514
    21   7 N        2.800    -0.043    22.063     6.976
    22   6 C        2.908     0.059    26.688     8.471
    23   6 C        2.934    -0.028    28.701     8.786
    24   6 C        2.957    -0.044    29.095     8.847
    25   6 C        2.961    -0.001    28.047     8.687
    26  16 S        3.825     0.961   107.775    17.473
    27   8 O        0.860    -0.537    24.622     6.653
    28   8 O        0.860    -0.482    23.394     6.485
    29   6 C        2.964    -0.001    28.052     8.688
    30   6 C        2.951    -0.044    29.081     8.845
    31   6 C        2.930    -0.029    28.721     8.789
    32   6 C        2.908     0.059    26.668     8.468
    33   7 N        2.799    -0.042    22.048     6.974
    34   6 C        3.074     0.041    27.006     8.521
    35   6 C        2.910    -0.053    29.328     8.880
    36   6 C        2.929    -0.040    28.987     8.829
    37   6 C        2.973     0.002    27.969     8.675
    38   6 C        3.903     0.026    20.085     6.370
    39   6 C        3.761    -0.106    22.581     6.774
    40   6 C        3.762    -0.106    22.569     6.772
    41   6 C        3.762    -0.105    22.555     6.770
    42   6 C        2.921    -0.038    28.937     8.821
    43   6 C        3.063    -0.016    28.336     8.729
    44   6 C        3.066    -0.016    28.342     8.730
    45   6 C        2.918    -0.042    29.044     8.837
    46   6 C        2.973     0.001    28.006     8.681
    47   6 C        3.903     0.026    20.079     6.369
    48   6 C        3.762    -0.107    22.597     6.776
    49   6 C        3.761    -0.108    22.613     6.779
    50   6 C        3.762    -0.106    22.570     6.772
    51   6 C        2.931    -0.039    28.961     8.826
    52   6 C        2.909    -0.053    29.318     8.879
    53   6 C        3.068     0.043    26.958     8.514
    54   6 C        2.918     0.047    26.946     8.512
    55   7 N        1.882    -0.202    26.221     7.591
    56   7 N        1.876    -0.199    26.139     7.579
    57   6 C        2.911     0.047    26.948     8.512
    58   1 H        0.925     0.034     2.530     2.488
    59   1 H        0.925     0.033     2.547     2.496
    60   1 H        0.925     0.038     2.474     2.460
    61   1 H        0.925     0.036     2.501     2.473
    62   1 H        0.925     0.039     2.464     2.455
    63   1 H        0.925     0.034     2.524     2.484
    64   1 H        0.925     0.036     2.500     2.473
    65   1 H        0.925     0.033     2.546     2.495
    66   1 H        0.925     0.038     2.471     2.458
    67   1 H        0.926     0.037     2.495     2.470
    68   1 H        0.926     0.015     2.818     2.625
    69   1 H        0.926     0.035     2.512     2.478
    70   1 H        0.926     0.040     2.449     2.447
    71   1 H        0.925     0.039     2.466     2.456
    72   1 H        0.925     0.036     2.497     2.471
    73   1 H        0.925     0.035     2.520     2.482
    74   1 H        0.925     0.037     2.490     2.468
    75   1 H        0.925     0.036     2.496     2.471
    76   1 H        0.925     0.037     2.483     2.464
    77   1 H        0.925     0.033     2.539     2.492
    78   1 H        0.925     0.036     2.499     2.472
    79   1 H        0.925     0.038     2.471     2.458
    80   1 H        0.926     0.035     2.513     2.479
    81   1 H        0.926     0.028     2.611     2.527
    82   1 H        0.926     0.059     2.209     2.324
    83   1 H        0.926     0.068     2.110     2.272
    84   1 H        0.926     0.067     2.116     2.275
    85   1 H        0.926     0.059     2.214     2.327
    86   1 H        0.926     0.021     2.711     2.575
    87   1 H        0.926     0.039     2.463     2.454
    88   1 H        0.925     0.038     2.469     2.457
    89   1 H        0.925     0.034     2.530     2.488
    90   1 H        0.925     0.034     2.530     2.488
    91   1 H        0.925     0.038     2.472     2.459
    92   1 H        0.925     0.034     2.533     2.489
    93   1 H        0.925     0.036     2.502     2.474
    94   1 H        0.925     0.036     2.505     2.475
    95   1 H        0.925     0.035     2.522     2.483
    96   1 H        0.925     0.038     2.482     2.464
    97   1 H        0.926     0.035     2.516     2.481
    98   1 H        0.926     0.040     2.446     2.446
    99   1 H        0.925     0.036     2.505     2.475
   100   1 H        0.925     0.037     2.484     2.465
   101   1 H        0.925     0.036     2.500     2.473
   102   1 H        0.925     0.038     2.473     2.459
   103   1 H        0.925     0.035     2.513     2.479
   104   1 H        0.925     0.036     2.497     2.471
   105   1 H        0.925     0.038     2.473     2.459
   106   1 H        0.925     0.034     2.533     2.489
   107   1 H        0.925     0.036     2.502     2.473
   108   1 H        0.926     0.034     2.534     2.489
   109   1 H        0.926     0.026     2.639     2.540
   110   1 H        0.926     0.065     2.138     2.286
   111   1 H        0.926     0.065     2.145     2.290

molecular dipole:
                 x           y           z       tot (Debye)
 q only:        0.348       3.925      -0.520
   full:        0.603       3.906      -1.011      10.371

 projected vibrational frequencies (cm⁻¹)
eigval :       -0.00    -0.00    -0.00     0.00     0.00     0.00
eigval :       18.82    27.35    29.26    31.85    36.61    39.72
eigval :       42.53    46.82    54.16    55.83    60.18    67.09
eigval :       68.99    71.27    76.80    84.83    89.02    95.56
eigval :       99.40   109.31   123.27   128.12   133.76   139.01
eigval :      157.95   162.59   164.26   165.93   178.59   180.22
eigval :      186.38   188.59   191.44   194.62   202.98   219.12
eigval :      221.28   223.44   223.53   234.17   237.64   247.25
eigval :      250.92   257.05   271.83   272.30   273.55   285.66
eigval :      292.82   301.40   307.83   314.28   318.67   321.75
eigval :      322.87   332.63   334.87   336.34   341.49   352.47
eigval :      355.85   358.44   359.67   366.76   373.24   379.21
eigval :      384.03   391.46   396.44   402.17   406.18   410.92
eigval :      413.15   415.29   423.20   440.50   445.05   445.52
eigval :      446.47   457.86   464.67   465.89   469.00   470.24
eigval :      471.22   488.08   507.36   519.47   522.45   529.30
eigval :      546.85   577.10   577.74   581.53   582.91   586.64
eigval :      588.63   598.68   601.62   629.80   630.00   641.20
eigval :      641.23   675.26   679.45   687.69   688.53   705.69
eigval :      705.99   709.40   710.64   722.46   724.01   750.54
eigval :      753.71   815.31   819.93   824.04   824.35   829.69
eigval :      832.66   833.89   835.70   873.67   874.58   876.35
eigval :      876.97   881.76   882.50   894.33   898.77   907.19
eigval :      912.71   916.83   921.66   922.24   925.03   925.74
eigval :      926.85   931.27   933.88   944.72   946.89   960.34
eigval :      960.41   961.26   961.86   962.83   963.06   963.63
eigval :      963.68   963.80   964.85   965.13   967.02  1009.46
eigval :     1010.61  1032.71  1033.00  1034.95  1036.11  1036.24
eigval :     1036.73  1040.25  1040.52  1041.33  1041.45  1084.51
eigval :     1101.14  1116.94  1118.13  1126.00  1131.98  1133.05
eigval :     1138.02  1145.10  1147.86  1151.70  1179.19  1181.22
eigval :     1209.94  1211.70  1225.66  1227.27  1227.68  1227.90
eigval :     1229.28  1229.67  1231.02  1231.33  1233.61  1233.70
eigval :     1235.84  1237.12  1248.78  1249.83  1259.32  1260.03
eigval :     1263.89  1283.07  1284.17  1288.83  1294.45  1300.64
eigval :     1301.35  1304.43  1304.86  1344.35  1345.38  1348.77
eigval :     1352.95  1359.71  1360.57  1384.77  1388.10  1401.75
eigval :     1402.66  1403.56  1404.62  1404.65  1404.84  1407.38
eigval :     1407.96  1413.69  1414.64  1428.32  1428.47  1430.24
eigval :     1430.32  1430.71  1430.97  1454.68  1466.60  1474.66
eigval :     1475.13  1481.36  1481.43  1488.98  1490.81  1491.84
eigval :     1492.34  1492.53  1494.22  1494.41  1496.27  1500.72
eigval :     1501.28  1501.80  1504.57  1505.34  1505.99  1506.28
eigval :     1506.50  1513.94  1514.14  1517.14  1517.69  1522.03
eigval :     1522.71  1523.19  1523.90  1530.17  1537.62  1548.27
eigval :     1548.82  1572.78  1573.14  1585.64  1586.73  1604.73
eigval :     1605.08  1616.87  1617.06  3015.78  3016.01  3021.35
eigval :     3021.73  3023.58  3023.65  3025.54  3025.56  3027.97
eigval :     3028.38  3028.47  3028.67  3028.94  3029.47  3032.19
eigval :     3032.29  3033.20  3034.14  3034.18  3035.01  3035.83
eigval :     3036.79  3038.08  3038.54  3040.31  3041.37  3045.05
eigval :     3045.38  3046.90  3047.09  3050.51  3051.76  3051.97
eigval :     3052.90  3055.69  3058.57  3071.20  3072.93  3075.36
eigval :     3081.71  3082.57  3085.31  3086.08  3088.05  3092.73
eigval :     3094.96  3097.63  3099.46  3109.83  3113.60  3118.18
eigval :     3118.74  3119.68  3121.95

   temp. (K)  partition function   enthalpy   heat capacity  entropy
                                   cal/mol     cal/K/mol   cal/K/mol   J/K/mol
 298.15  VIB  0.516E+23            32653.768    203.852    200.113
         ROT  0.104E+09              888.752      2.981     39.659
         INT  0.535E+31            33542.520    206.833    239.772
         TR   0.209E+29             1481.254      4.968     45.801
         TOT                       35023.7741   211.8010   285.5732  1194.8381

       T/K    H(0)-H(T)+PV         H(T)/Eh          T*S/Eh         G(T)/Eh
   ------------------------------------------------------------------------
    298.15    0.558139E-01    0.966710E+00    0.135685E+00    0.831025E+00
   ------------------------------------------------------------------------

         :::::::::::::::::::::::::::::::::::::::::::::::::::::
         ::                  THERMODYNAMIC                  ::
         :::::::::::::::::::::::::::::::::::::::::::::::::::::
         :: total free energy        -156.959375444344 Eh   ::
         ::.................................................::
         :: total energy             -157.790400370916 Eh   ::
         :: zero point energy           0.910896010682 Eh   ::
         :: G(RRHO) w/o ZPVE           -0.079871084110 Eh   ::
         :: G(RRHO) contrib.            0.831024926573 Eh   ::
         :::::::::::::::::::::::::::::::::::::::::::::::::::::

           -------------------------------------------------
          | TOTAL ENERGY             -157.790400370916 Eh   |
          | TOTAL ENTHALPY           -156.823690423479 Eh   |
          | TOTAL FREE ENERGY        -156.959375444344 Eh   |
          | GRADIENT NORM               0.000036733318 Eh/α |
          | HOMO-LUMO GAP               2.103373792602 eV   |
           -------------------------------------------------

 * finished run on 2025/09/05 at 06:49:36.028
