   * xtb version 6.7.1 (edcfbbe) compiled by 'albert@albert-system' on 2024-07-22

   ID    Z sym.   atoms
    1    7 N      1, 6, 25, 51, 70, 98
    2    6 C      2-5, 7-24, 26-50, 52-69, 71-97
    3    1 H      99-166

          program call               : xtb data2507/gas/BPCP-2CPC/BPCP-2CPC.xyz --gfn 2 --ohess vtight --parallel 40 --molden --ceasefiles --namespace data2507/gas/BPCP-2CPC/BPCP-2CPC_gas_S0_preOpt
          :  Hamiltonian                  GFN2-xTB          :
 * total energy  :  -249.2886767 Eh     change       -0.9234185E-08 Eh
 * total energy  :  -249.3210965 Eh     change       -0.3241979E-01 Eh
 * total energy  :  -249.3314669 Eh     change       -0.1037035E-01 Eh
 * total energy  :  -249.3354588 Eh     change       -0.3991902E-02 Eh
 * total energy  :  -249.3384005 Eh     change       -0.2941786E-02 Eh
 * total energy  :  -249.3401021 Eh     change       -0.1701547E-02 Eh
 * total energy  :  -249.3412085 Eh     change       -0.1106437E-02 Eh
 * total energy  :  -249.3420609 Eh     change       -0.8524136E-03 Eh
 * total energy  :  -249.3425800 Eh     change       -0.5190718E-03 Eh
 * total energy  :  -249.3430742 Eh     change       -0.4941774E-03 Eh
 * total energy  :  -249.3533475 Eh     change        0.2732579E-06 Eh
 * total energy  :  -249.3533470 Eh     change        0.4372470E-06 Eh
 * total energy  :  -249.3533480 Eh     change       -0.9245429E-06 Eh
 * total energy  :  -249.3533482 Eh     change       -0.2449774E-06 Eh
 * total energy  :  -249.3533487 Eh     change       -0.4373596E-06 Eh
 * total energy  :  -249.3533490 Eh     change       -0.3763101E-06 Eh
 * total energy  :  -249.3533495 Eh     change       -0.4733747E-06 Eh
 * total energy  :  -249.3533499 Eh     change       -0.4406589E-06 Eh
 * total energy  :  -249.3533499 Eh     change       -0.3403130E-08 Eh
   *** GEOMETRY OPTIMIZATION CONVERGED AFTER 700 ITERATIONS ***

 final structure:
================
166
 xtb: 6.7.1 (edcfbbe)
N            2.35669921262252       -6.66780813225217        6.94652620793728
C            1.67655293889396       -5.89462514105140        6.44434330230140
C            0.85867665619091       -4.93043302784289        5.81183838591154
C            1.31390656161293       -4.27534866700302        4.67332163702588
C            0.52540561897806       -3.32840895957564        4.03128893833624
N            0.98728887604041       -2.71755471607556        2.86845493626948
C            0.24102100800802       -2.52498120495859        1.71538825613397
C           -0.93612843314484       -3.14157783460753        1.32386086557476
C           -1.48660997167984       -2.76502475177845        0.11319879233712
C           -0.86403994143003       -1.82565670346585       -0.70306677393738
C            0.34753292070001       -1.26451333605542       -0.34821521822350
C            0.91388567508278       -1.62187551560868        0.86648610255452
C            2.13703254998335       -1.26617490955055        1.53437621562372
C            3.18299751142688       -0.41998267179039        1.20593924753665
C            4.24243109671369       -0.27326833129515        2.09321984970221
C            5.37336151123498        0.60509078821017        1.76280739771402
C            5.16985788814457        1.83676467167757        1.14982201556111
C            6.23448545521824        2.66001350281472        0.83048592631866
C            7.54026390246454        2.27663524331105        1.10447515475951
C            8.75667092330540        3.14031510069457        0.80042421031808
C            9.75615154053322        2.22958384413475        0.10059060774386
C           11.02791672930490        1.93177302850133        0.57138372266497
C           11.87062535798444        1.08282257751196       -0.12397021090545
C           11.45263311393325        0.49167233640419       -1.30920434449125
N           12.30239435588984       -0.37392616956677       -2.01188677247729
C           12.60645889594223       -0.29214090795548       -3.35547813481612
C           12.20616068627334        0.64559649109624       -4.29667557929951
C           12.68254050097263        0.50889394239981       -5.58624565071786
C           13.54389193656613       -0.52824142159812       -5.93786929817545
C           13.96357622009302       -1.45093556178277       -5.00086482966176
C           13.49817033463034       -1.33493782737597       -3.69768442977345
C           13.73245954168224       -2.08215799849035       -2.49417860629136
C           14.48881818245692       -3.20920296453513       -2.20063479351477
C           14.47522139510200       -3.69738985351592       -0.90954416326458
C           13.70834235786668       -3.08536967682240        0.07963136193927
C           12.94833528057483       -1.96307332658859       -0.18757741907667
C           12.97674732201032       -1.45324474539888       -1.47784525463559
C           10.17246748402759        0.76395335274432       -1.78213865868445
C            9.34588015975460        1.61870901797754       -1.08366015791138
C            8.43683380223149        4.32472283009291       -0.12580560833908
C            9.71101844580622        5.08021248921805       -0.51274046795996
C           10.67611053619921        5.22000721765345        0.67189888545344
C            9.93381887661028        5.09339870934860        1.99796896261752
C            9.23203745800052        3.73569749062243        2.14619162302701
C            7.74183571793490        1.04518340690642        1.72343042189991
C            6.68250868613428        0.22465075986601        2.04933404066312
C            4.22658916819575       -0.96629877161059        3.30975481872761
C            3.18992094005635       -1.80807959861131        3.66051498915719
C            2.15022700783092       -1.96779662559632        2.75877417118370
C           -0.74277321007244       -2.99942452102817        4.56879091780685
N           -1.52870681250403       -2.00784600596099        3.98680737391356
C           -1.07276814721868       -0.76364488492758        3.57775665209553
C            0.09533011826454       -0.10442968443139        3.92448685047505
C            0.31803824079296        1.14219238227986        3.37048538048655
C           -0.61273101124460        1.73231993923418        2.52091395897034
C           -1.81000027494546        1.10709261299643        2.23029948830855
C           -2.05061787886997       -0.14836781847623        2.76875900922729
C           -3.15951334176191       -1.06189868554788        2.70026602329703
C           -4.38013729391502       -1.02220084770539        2.04694101602372
C           -5.23853416313919       -2.11033803211894        2.14629944894770
C           -6.53778935849860       -2.09721639594914        1.45917040453540
C           -7.34036926208413       -0.95896552858042        1.47039764196540
C           -8.56099707783466       -0.95154549583261        0.82809956254836
C           -9.02399750364268       -2.07115701954295        0.14068140677460
C          -10.39462182959654       -2.00400766075319       -0.51884353778570
C          -10.43832850657242       -0.68752627764445       -1.28170474055620
C           -9.46507992736538       -0.48094221038615       -2.25830205539448
C           -9.41670822964156        0.68201224948123       -2.99809932670266
C          -10.34308838419506        1.69399285071323       -2.76552704569621
N          -10.29706877928417        2.88535805087731       -3.50310697058950
C           -9.18308887856429        3.67960804348390       -3.68265273103283
C           -7.90140686965173        3.53219574993389       -3.17171269244898
C           -6.96619952216431        4.49840186489847       -3.48874797012924
C           -7.29194147143209        5.59247004807458       -4.28754394209464
C           -8.57122420597235        5.75655993102700       -4.77943601711588
C           -9.52954339239376        4.79894655225134       -4.47439559989930
C          -10.92433194266609        4.66134994648314       -4.78645429391813
C          -11.81784905663267        5.42171621927141       -5.52936027760545
C          -13.12112441423062        4.98256253674145       -5.64813450558703
C          -13.53439107354868        3.79426941500612       -5.04937946426291
C          -12.66460290252311        3.02066200339337       -4.30541407443693
C          -11.35894614525839        3.46850801433036       -4.16359579005606
C          -11.30636203432195        1.51065608000579       -1.78205570181698
C          -11.35009592314358        0.33477504187021       -1.05445773323674
C          -10.64031560831470       -3.15382417136842       -1.50967719767290
C          -11.96884271604329       -2.96921379281997       -2.24742766232586
C          -13.07699743854594       -2.46569236389382       -1.31277180898026
C          -12.75584937804148       -2.79207614425667        0.14203098031474
C          -11.44195213147939       -2.14938936733926        0.60966923232206
C           -8.22286950816705       -3.20499463138452        0.13092868725226
C           -7.00208463268990       -3.21876893200798        0.78073162773100
C           -4.85774624085887       -3.22688231270134        2.89996859455910
C           -3.64916686935197       -3.28397673038731        3.56521149559644
C           -2.80318573380267       -2.19099478607315        3.46847607121552
C           -1.20365499014306       -3.67397368455885        5.69259200124097
C           -0.42119133926517       -4.63823301723559        6.31769855688731
C           -0.90880889905749       -5.30757453843828        7.46343369692502
N           -1.32364069019874       -5.84431627839009        8.38672404452934
H            2.27766790215181       -4.53253599705779        4.25949100075017
H           -1.40963734085419       -3.89569741204664        1.93438499796679
H           -2.41681975645074       -3.21223308953362       -0.20319382107080
H           -1.32844496094370       -1.55055918111224       -1.63791562198646
H            0.84837325424742       -0.56553887218666       -1.00024760375939
H            3.18113922572996        0.10468775802780        0.26293710943155
H            4.16273800795333        2.16560600560679        0.93691324880139
H            6.02751819219869        3.60960989007559        0.36258077495863
H           11.39364167236152        2.35861998614948        1.49215774578540
H           12.86451210181312        0.88389016787902        0.24910022123135
H           11.55196305995768        1.46206745195295       -4.02975487924446
H           12.38305960314981        1.22421729233538       -6.33821713704065
H           13.89200074206821       -0.60197912795749       -6.95747870924305
H           14.64274940596362       -2.24596824848819       -5.26971804825853
H           15.07024221034093       -3.69282437650993       -2.97113607396576
H           15.05804039764053       -4.57150749079365       -0.65969593833338
H           13.70496363409046       -3.50003151533789        1.07706039782756
H           12.34294550028960       -1.50663863188167        0.58112658554865
H            9.82540698525649        0.28763384819691       -2.68695189364463
H            8.34820414559954        1.79843932476957       -1.45655297798462
H            7.93466924979071        3.98383151868034       -1.03183570563881
H            7.76161168655884        5.00269665027278        0.39829617649489
H           10.21316415956125        4.55523743463085       -1.32756372685150
H            9.42748639028735        6.06669117889135       -0.88536861530485
H           11.44569074210308        4.45098539872706        0.61263090570425
H           11.18081257801725        6.18704726554784        0.62941381380328
H            9.19711046216729        5.89683344887620        2.06153010114666
H           10.63179722542895        5.23200532346839        2.82606561937252
H            8.35258067726630        3.86954002416784        2.78180941487984
H            9.87626859425196        3.02423182348439        2.66105603960191
H            8.74861254065289        0.72149230950168        1.94435347827380
H            6.87194145995965       -0.73437618221813        2.50903758317102
H            5.03997322529220       -0.81957612551192        4.00447181688056
H            3.19456876307208       -2.31100252054548        4.61652206974628
H            0.80911404519156       -0.53943765442720        4.60781747743470
H            1.23214630187054        1.66583106105445        3.60661225424063
H           -0.40099922416119        2.70424009546435        2.10138627435183
H           -2.54644333621809        1.58198758631844        1.60050966105203
H           -4.64804398787518       -0.16766823989341        1.44464920240006
H           -7.01163097885870       -0.08047001493393        2.00653506983277
H           -9.16796386874609       -0.05809190019717        0.85634506940023
H           -8.72387862514784       -1.24540380345055       -2.43995505444393
H           -8.66706638054328        0.81027929603264       -3.76465145457690
H           -7.64435098237509        2.69652824522555       -2.53799932016034
H           -5.96048335336387        4.40518887234776       -3.10568282223984
H           -6.53133349334985        6.32465736329255       -4.51488151472469
H           -8.82763674941556        6.61244019954645       -5.38548980239590
H          -11.49396787969107        6.33486372267538       -6.00570731399585
H          -13.83242779669438        5.56030432892076       -6.21948973418874
H          -14.55701286744901        3.46890779843663       -5.17248469376055
H          -12.98932718225602        2.09271602596036       -3.85889808524183
H          -12.01378483260364        2.30040376831666       -1.57580516353399
H          -12.10854140733725        0.24365279938793       -0.29283826036855
H          -10.66640415393309       -4.09222232308861       -0.95416845492247
H           -9.83141027635928       -3.21665493656739       -2.23844495104104
H          -12.25451588442338       -3.92661352245314       -2.68799015851882
H          -11.83557530095752       -2.25984933432879       -3.06647845955411
H          -14.03025489586559       -2.92300514566392       -1.58456008619672
H          -13.19217615404589       -1.38807127262352       -1.42498824912888
H          -13.57180635597305       -2.45463389406853        0.78428574929889
H          -12.69211896168258       -3.87691655985998        0.24812590880907
H          -11.62926566561994       -1.18010508707404        1.06996185428312
H          -11.00812823420421       -2.78066051003979        1.38977854047443
H           -8.53896163288932       -4.09658374299537       -0.38725946396495
H           -6.39127923539989       -4.10941046874892        0.74207948098761
H           -5.53836057884216       -4.06162539139138        2.97633624772178
H           -3.37833527621009       -4.16311664649666        4.13140957499203
H           -2.16743688234084       -3.41824820301656        6.10736866402353

          :  Hamiltonian                  GFN2-xTB          :
         :: gradient norm              0.000129132438 Eh/a0 ::
         :: HOMO-LUMO gap              1.393210221827 eV    ::
         :: SCC energy              -254.005961352704 Eh    ::
         :: -> dispersion             -0.253287175660 Eh    ::
         :: repulsion energy           4.652611408006 Eh    ::

    * Orbital Energies and Occupations

         #    Occupation            Energy/Eh            Energy/eV
      -------------------------------------------------------------
         1        2.0000           -0.7101917             -19.3253
       ...           ...                  ...                  ...
       221        2.0000           -0.4017961             -10.9334
       222        2.0000           -0.4015396             -10.9264
       223        2.0000           -0.4010772             -10.9139
       224        2.0000           -0.3983375             -10.8393
       225        2.0000           -0.3956972             -10.7675
       226        2.0000           -0.3924107             -10.6780
       227        2.0000           -0.3891989             -10.5906
       228        2.0000           -0.3781460             -10.2899
       229        2.0000           -0.3764503             -10.2437
       230        2.0000           -0.3751245             -10.2077
       231        2.0000           -0.3743746             -10.1873
       232        2.0000           -0.3597770              -9.7900
       233        2.0000           -0.3586387              -9.7591 (HOMO)
       234                         -0.3074392              -8.3658 (LUMO)
       235                         -0.2849408              -7.7536
       236                         -0.2590665              -7.0496
       237                         -0.2581214              -7.0238
       238                         -0.2508619              -6.8263
       239                         -0.2474128              -6.7324
       240                         -0.2438869              -6.6365
       241                         -0.2426831              -6.6037
       242                         -0.2328316              -6.3357
       243                         -0.2320121              -6.3134
       244                         -0.2314352              -6.2977
       ...                                ...                  ...
       460                          1.1752325              31.9797
      -------------------------------------------------------------
                  HL-Gap            0.0511995 Eh            1.3932 eV

     #   Z          covCN         q      C6AA      α(0)
     1   7 N        0.911    -0.212    25.616     7.320
     2   6 C        1.911     0.114    28.293     8.590
     3   6 C        2.975     0.021    27.527     8.606
     4   6 C        2.929    -0.035    28.879     8.813
     5   6 C        2.910     0.061    26.629     8.462
     6   7 N        2.800    -0.047    22.141     6.989
     7   6 C        3.073     0.048    26.838     8.494
     8   6 C        2.911    -0.047    29.156     8.854
     9   6 C        2.925    -0.030    28.757     8.794
    10   6 C        2.921    -0.037    28.915     8.818
    11   6 C        2.913    -0.031    28.771     8.796
    12   6 C        3.065    -0.014    28.285     8.721
    13   6 C        3.065    -0.014    28.286     8.721
    14   6 C        2.919    -0.036    28.898     8.815
    15   6 C        2.977     0.003    27.942     8.671
    16   6 C        2.977     0.006    27.881     8.661
    17   6 C        2.925    -0.037    28.914     8.818
    18   6 C        2.922    -0.040    29.000     8.831
    19   6 C        2.982     0.007    27.855     8.657
    20   6 C        3.911     0.011    20.327     6.408
    21   6 C        2.978     0.014    27.698     8.633
    22   6 C        2.924    -0.036    28.901     8.816
    23   6 C        2.922    -0.046    29.152     8.854
    24   6 C        2.913     0.060    26.646     8.465
    25   7 N        2.802    -0.045    22.105     6.983
    26   6 C        3.077     0.047    26.870     8.499
    27   6 C        2.910    -0.051    29.269     8.871
    28   6 C        2.924    -0.034    28.845     8.808
    29   6 C        2.920    -0.041    29.029     8.835
    30   6 C        2.912    -0.033    28.824     8.804
    31   6 C        3.068    -0.018    28.377     8.735
    32   6 C        3.068    -0.018    28.377     8.735
    33   6 C        2.912    -0.033    28.823     8.803
    34   6 C        2.920    -0.041    29.027     8.835
    35   6 C        2.924    -0.034    28.843     8.807
    36   6 C        2.910    -0.051    29.268     8.871
    37   6 C        3.077     0.047    26.872     8.499
    38   6 C        2.921    -0.044    29.102     8.847
    39   6 C        2.929    -0.034    28.845     8.808
    40   6 C        3.812    -0.055    21.557     6.609
    41   6 C        3.803    -0.054    21.539     6.607
    42   6 C        3.802    -0.057    21.599     6.617
    43   6 C        3.802    -0.053    21.526     6.606
    44   6 C        3.811    -0.056    21.574     6.611
    45   6 C        2.925    -0.037    28.911     8.818
    46   6 C        2.924    -0.036    28.889     8.814
    47   6 C        2.930    -0.036    28.904     8.817
    48   6 C        2.908    -0.050    29.247     8.868
    49   6 C        3.069     0.047    26.877     8.501
    50   6 C        2.910     0.061    26.632     8.462
    51   7 N        2.800    -0.047    22.146     6.989
    52   6 C        3.073     0.049    26.835     8.494
    53   6 C        2.910    -0.047    29.156     8.854
    54   6 C        2.925    -0.030    28.759     8.795
    55   6 C        2.921    -0.037    28.917     8.818
    56   6 C        2.913    -0.031    28.772     8.796
    57   6 C        3.065    -0.014    28.285     8.721
    58   6 C        3.065    -0.014    28.285     8.721
    59   6 C        2.919    -0.036    28.895     8.815
    60   6 C        2.977     0.003    27.943     8.671
    61   6 C        2.978     0.006    27.877     8.661
    62   6 C        2.924    -0.036    28.887     8.814
    63   6 C        2.925    -0.037    28.913     8.818
    64   6 C        2.982     0.007    27.857     8.658
    65   6 C        3.911     0.011    20.327     6.408
    66   6 C        2.978     0.014    27.693     8.632
    67   6 C        2.929    -0.034    28.843     8.807
    68   6 C        2.921    -0.045    29.108     8.847
    69   6 C        2.913     0.060    26.650     8.465
    70   7 N        2.803    -0.045    22.106     6.983
    71   6 C        3.077     0.047    26.870     8.499
    72   6 C        2.910    -0.051    29.272     8.872
    73   6 C        2.924    -0.034    28.847     8.808
    74   6 C        2.920    -0.042    29.032     8.836
    75   6 C        2.912    -0.033    28.824     8.804
    76   6 C        3.068    -0.018    28.376     8.735
    77   6 C        3.068    -0.018    28.379     8.735
    78   6 C        2.912    -0.033    28.822     8.803
    79   6 C        2.920    -0.041    29.028     8.835
    80   6 C        2.924    -0.034    28.842     8.807
    81   6 C        2.910    -0.051    29.268     8.871
    82   6 C        3.077     0.047    26.870     8.499
    83   6 C        2.922    -0.046    29.148     8.854
    84   6 C        2.924    -0.036    28.900     8.816
    85   6 C        3.812    -0.055    21.557     6.609
    86   6 C        3.803    -0.054    21.542     6.608
    87   6 C        3.802    -0.057    21.593     6.616
    88   6 C        3.802    -0.053    21.527     6.606
    89   6 C        3.811    -0.056    21.574     6.611
    90   6 C        2.922    -0.040    28.998     8.831
    91   6 C        2.925    -0.037    28.913     8.818
    92   6 C        2.930    -0.036    28.904     8.817
    93   6 C        2.908    -0.050    29.248     8.868
    94   6 C        3.070     0.047    26.874     8.500
    95   6 C        2.929    -0.035    28.878     8.813
    96   6 C        2.975     0.021    27.530     8.607
    97   6 C        1.911     0.114    28.294     8.590
    98   7 N        0.911    -0.212    25.621     7.321
    99   1 H        0.926     0.060     2.201     2.320
   100   1 H        0.926     0.023     2.690     2.565
   101   1 H        0.926     0.033     2.543     2.494
   102   1 H        0.926     0.034     2.526     2.485
   103   1 H        0.926     0.036     2.501     2.473
   104   1 H        0.926     0.038     2.480     2.463
   105   1 H        0.926     0.030     2.585     2.514
   106   1 H        0.926     0.033     2.543     2.494
   107   1 H        0.926     0.040     2.453     2.449
   108   1 H        0.926     0.038     2.478     2.462
   109   1 H        0.926     0.026     2.647     2.544
   110   1 H        0.926     0.028     2.622     2.532
   111   1 H        0.926     0.027     2.633     2.537
   112   1 H        0.926     0.030     2.587     2.515
   113   1 H        0.926     0.030     2.587     2.515
   114   1 H        0.926     0.027     2.629     2.536
   115   1 H        0.926     0.028     2.617     2.530
   116   1 H        0.926     0.026     2.647     2.544
   117   1 H        0.926     0.038     2.476     2.461
   118   1 H        0.926     0.032     2.556     2.500
   119   1 H        0.924     0.031     2.571     2.508
   120   1 H        0.924     0.038     2.482     2.464
   121   1 H        0.924     0.026     2.639     2.540
   122   1 H        0.924     0.029     2.607     2.525
   123   1 H        0.925     0.035     2.516     2.480
   124   1 H        0.924     0.028     2.622     2.532
   125   1 H        0.924     0.032     2.559     2.502
   126   1 H        0.924     0.028     2.616     2.530
   127   1 H        0.924     0.030     2.592     2.518
   128   1 H        0.925     0.034     2.530     2.487
   129   1 H        0.926     0.028     2.621     2.532
   130   1 H        0.926     0.031     2.574     2.509
   131   1 H        0.926     0.037     2.487     2.466
   132   1 H        0.926     0.026     2.650     2.546
   133   1 H        0.926     0.023     2.689     2.565
   134   1 H        0.926     0.033     2.541     2.493
   135   1 H        0.926     0.034     2.531     2.488
   136   1 H        0.926     0.036     2.500     2.472
   137   1 H        0.926     0.037     2.483     2.464
   138   1 H        0.926     0.031     2.579     2.511
   139   1 H        0.926     0.028     2.621     2.532
   140   1 H        0.926     0.032     2.554     2.499
   141   1 H        0.926     0.038     2.477     2.461
   142   1 H        0.926     0.026     2.645     2.543
   143   1 H        0.926     0.027     2.633     2.537
   144   1 H        0.926     0.027     2.636     2.539
   145   1 H        0.926     0.030     2.587     2.515
   146   1 H        0.926     0.030     2.588     2.516
   147   1 H        0.926     0.027     2.630     2.536
   148   1 H        0.926     0.028     2.617     2.530
   149   1 H        0.926     0.026     2.644     2.543
   150   1 H        0.926     0.038     2.482     2.464
   151   1 H        0.926     0.040     2.448     2.447
   152   1 H        0.924     0.038     2.476     2.461
   153   1 H        0.924     0.031     2.572     2.508
   154   1 H        0.924     0.029     2.604     2.524
   155   1 H        0.924     0.027     2.636     2.539
   156   1 H        0.924     0.028     2.621     2.532
   157   1 H        0.925     0.034     2.525     2.485
   158   1 H        0.924     0.028     2.614     2.528
   159   1 H        0.924     0.032     2.556     2.500
   160   1 H        0.925     0.034     2.530     2.487
   161   1 H        0.924     0.030     2.587     2.515
   162   1 H        0.926     0.033     2.540     2.492
   163   1 H        0.926     0.030     2.593     2.518
   164   1 H        0.926     0.037     2.489     2.467
   165   1 H        0.926     0.026     2.650     2.546
   166   1 H        0.926     0.060     2.203     2.321

molecular dipole:
                 x           y           z       tot (Debye)
 q only:       -0.841       1.355      -0.840
   full:       -0.948       1.732      -1.230       5.912

 projected vibrational frequencies (cm⁻¹)
eigval :       -0.00    -0.00     0.00     0.00     0.00     0.00
eigval :        2.21     4.09     4.43     6.63     8.50     9.85
eigval :       11.34    13.66    19.34    24.09    29.46    31.27
eigval :       36.69    38.20    39.17    41.68    42.49    47.89
eigval :       55.03    57.16    58.60    62.23    64.00    65.95
eigval :       74.94    81.42    83.80    96.67   101.24   101.43
eigval :      102.51   108.48   109.61   112.04   114.22   117.90
eigval :      121.50   128.27   132.90   141.23   144.18   146.36
eigval :      149.87   154.86   159.33   169.51   176.72   179.93
eigval :      185.17   190.55   193.09   200.72   203.40   207.42
eigval :      221.84   227.44   236.71   243.24   251.69   255.61
eigval :      266.83   270.42   272.03   272.87   279.70   283.13
eigval :      285.09   287.90   297.41   297.96   302.84   311.70
eigval :      316.56   329.31   340.25   359.62   367.16   373.05
eigval :      374.20   375.30   377.03   384.71   388.58   391.80
eigval :      392.27   394.32   396.73   398.00   399.52   402.28
eigval :      409.82   410.95   416.14   417.81   424.90   425.53
eigval :      426.49   431.04   433.94   438.01   439.10   439.57
eigval :      447.52   452.26   460.42   460.77   476.52   478.72
eigval :      481.71   491.11   516.17   517.18   517.63   518.13
eigval :      525.28   526.29   527.48   531.01   532.52   535.29
eigval :      537.31   538.18   541.22   541.32   549.04   550.01
eigval :      563.56   572.51   583.11   583.28   585.28   586.64
eigval :      591.55   595.19   596.27   598.13   599.34   604.05
eigval :      605.24   608.67   616.39   617.87   618.22   620.66
eigval :      645.98   652.69   653.12   666.47   673.52   673.96
eigval :      674.05   676.88   677.62   680.16   694.13   695.67
eigval :      701.82   703.73   706.40   707.64   707.86   708.83
eigval :      708.98   720.65   725.14   742.70   742.98   752.76
eigval :      758.03   758.08   769.14   769.40   777.37   779.11
eigval :      780.44   780.67   799.87   800.36   801.61   804.85
eigval :      807.93   808.53   819.47   824.88   826.64   828.56
eigval :      831.61   833.44   847.49   866.81   867.27   869.50
eigval :      870.41   872.94   873.17   873.44   876.93   878.34
eigval :      879.06   881.59   882.04   882.18   888.52   889.54
eigval :      890.92   898.18   898.34   902.13   902.28   902.55
eigval :      902.73   904.60   906.42   907.38   907.67   912.00
eigval :      913.41   917.90   918.43   920.08   920.24   921.11
eigval :      921.25   924.16   924.71   925.09   925.48   927.60
eigval :      927.68   930.24   930.49   935.23   935.52   938.69
eigval :      939.46   956.25   960.51   960.75   964.37   964.42
eigval :      976.32   976.53   990.92   991.13  1012.18  1012.22
eigval :     1016.44  1016.87  1021.17  1021.39  1033.93  1034.23
eigval :     1069.99  1070.00  1070.51  1072.50  1073.41  1073.46
eigval :     1073.58  1080.33  1086.57  1101.29  1101.64  1119.58
eigval :     1119.58  1122.05  1124.94  1125.49  1129.47  1129.70
eigval :     1140.49  1140.59  1140.65  1151.47  1151.76  1152.19
eigval :     1152.40  1156.20  1156.26  1156.55  1159.64  1171.16
eigval :     1171.34  1174.94  1176.73  1177.04  1177.26  1181.60
eigval :     1181.67  1182.74  1183.12  1187.40  1187.43  1199.96
eigval :     1200.00  1207.30  1208.08  1212.13  1212.61  1212.78
eigval :     1214.83  1220.25  1220.63  1223.12  1225.54  1226.12
eigval :     1226.96  1237.03  1237.32  1237.41  1243.24  1243.52
eigval :     1247.77  1248.00  1252.02  1252.14  1259.09  1265.52
eigval :     1266.76  1275.25  1275.35  1280.60  1280.87  1282.80
eigval :     1282.91  1287.51  1287.86  1301.44  1301.49  1305.17
eigval :     1305.72  1306.01  1311.00  1316.22  1318.36  1319.39
eigval :     1320.91  1322.13  1329.80  1330.64  1334.16  1338.75
eigval :     1338.89  1345.64  1345.93  1350.96  1351.80  1352.12
eigval :     1354.10  1356.36  1356.53  1357.89  1357.91  1361.11
eigval :     1361.70  1362.93  1363.03  1371.26  1371.41  1384.74
eigval :     1401.27  1401.37  1405.85  1405.86  1409.29  1420.95
eigval :     1421.15  1428.82  1428.89  1430.80  1432.43  1434.50
eigval :     1434.63  1466.70  1468.04  1477.09  1477.29  1481.58
eigval :     1482.87  1485.87  1488.53  1488.61  1489.07  1489.08
eigval :     1495.08  1495.23  1496.95  1497.08  1500.68  1503.02
eigval :     1503.50  1506.20  1506.39  1509.42  1509.60  1520.93
eigval :     1521.01  1551.64  1565.62  1566.00  1568.12  1568.34
eigval :     1574.11  1574.50  1576.03  1576.05  1588.61  1588.72
eigval :     1589.50  1589.52  1598.77  1599.09  1599.47  1599.53
eigval :     1602.66  1602.75  1605.16  1605.31  1614.76  1615.65
eigval :     1615.93  1615.97  2374.04  2374.29  2956.84  2957.42
eigval :     2962.64  2962.88  2968.93  2969.28  2976.33  2976.67
eigval :     2980.89  2981.29  2987.62  2987.88  2991.00  2991.17
eigval :     2996.17  2996.39  3007.40  3007.62  3013.79  3014.11
eigval :     3073.01  3073.84  3074.30  3074.59  3074.81  3075.16
eigval :     3075.20  3075.32  3076.11  3076.44  3079.42  3079.55
eigval :     3080.24  3080.34  3080.85  3081.17  3081.22  3081.33
eigval :     3084.47  3084.67  3085.23  3085.60  3085.74  3086.84
eigval :     3086.99  3087.31  3088.69  3089.07  3092.27  3092.79
eigval :     3093.27  3093.37  3093.39  3093.87  3093.92  3094.17
eigval :     3095.08  3095.68  3096.15  3096.23  3098.04  3098.58
eigval :     3099.24  3100.13  3100.94  3101.54  3102.19  3102.95

   temp. (K)  partition function   enthalpy   heat capacity  entropy
                                   cal/mol     cal/K/mol   cal/K/mol   J/K/mol
 298.15  VIB  0.534E+41            47842.033    298.203    304.564
         ROT  0.127E+10              888.752      2.981     44.635
         INT  0.678E+50            48730.785    301.184    349.199
         TR   0.431E+29             1481.254      4.968     47.243
         TOT                       50212.0392   306.1523   396.4419  1658.7127

       T/K    H(0)-H(T)+PV         H(T)/Eh          T*S/Eh         G(T)/Eh
   ------------------------------------------------------------------------
    298.15    0.800180E-01    0.139316E+01    0.188362E+00    0.120480E+01
   ------------------------------------------------------------------------

         :::::::::::::::::::::::::::::::::::::::::::::::::::::
         ::                  THERMODYNAMIC                  ::
         :::::::::::::::::::::::::::::::::::::::::::::::::::::
         :: total free energy        -248.148553365829 Eh   ::
         ::.................................................::
         :: total energy             -249.353349944698 Eh   ::
         :: zero point energy           1.313140917268 Eh   ::
         :: G(RRHO) w/o ZPVE           -0.108344338399 Eh   ::
         :: G(RRHO) contrib.            1.204796578869 Eh   ::
         :::::::::::::::::::::::::::::::::::::::::::::::::::::

           -------------------------------------------------
          | TOTAL ENERGY             -249.353349944698 Eh   |
          | TOTAL ENTHALPY           -247.960191049528 Eh   |
          | TOTAL FREE ENERGY        -248.148553365829 Eh   |
          | GRADIENT NORM               0.000129032941 Eh/α |
          | HOMO-LUMO GAP               1.393209569958 eV   |
           -------------------------------------------------

 * finished run on 2025/09/12 at 12:20:58.421
