   * xtb version 6.7.1 (edcfbbe) compiled by 'albert@albert-system' on 2024-07-22

   ID    Z sym.   atoms
    1    7 N      1, 6, 25, 51, 70, 98
    2    6 C      2-5, 7-24, 26-50, 52-69, 71-97
    3    1 H      99-166

          program call               : xtb data2507/gas/BPCP-2CPC/BPCP-2CPC_gas_T1_crest.xyz --gfn 2 --spinpol --tblite --uhf 2 --ohess vtight --parallel 40 --molden --ceasefiles --namespace data2507/gas/BPCP-2CPC/BPCP-2CPC_gas_T1_finalOpt
 * total energy  :  -249.2989850 Eh     change       -0.8435768E-07 Eh
 * total energy  :  -249.2990314 Eh     change       -0.4642191E-04 Eh
 * total energy  :  -249.2990645 Eh     change       -0.3316691E-04 Eh
 * total energy  :  -249.2990761 Eh     change       -0.1158188E-04 Eh
 * total energy  :  -249.2990804 Eh     change       -0.4257277E-05 Eh
 * total energy  :  -249.2990763 Eh     change        0.4122248E-05 Eh
 * total energy  :  -249.2990866 Eh     change       -0.1037751E-04 Eh
 * total energy  :  -249.2990910 Eh     change       -0.4400690E-05 Eh
 * total energy  :  -249.2990943 Eh     change       -0.3248889E-05 Eh
 * total energy  :  -249.2991019 Eh     change       -0.7581127E-05 Eh
 * total energy  :  -249.2992261 Eh     change       -0.2526614E-06 Eh
 * total energy  :  -249.2992264 Eh     change       -0.3036472E-06 Eh
 * total energy  :  -249.2992269 Eh     change       -0.4747649E-06 Eh
 * total energy  :  -249.2992275 Eh     change       -0.6029447E-06 Eh
 * total energy  :  -249.2992281 Eh     change       -0.6176113E-06 Eh
 * total energy  :  -249.2992286 Eh     change       -0.4556103E-06 Eh
 * total energy  :  -249.2992290 Eh     change       -0.4649654E-06 Eh
 * total energy  :  -249.2992298 Eh     change       -0.7677322E-06 Eh
 * total energy  :  -249.2992298 Eh     change       -0.4694840E-08 Eh
   *** GEOMETRY OPTIMIZATION CONVERGED AFTER 122 ITERATIONS ***

 final structure:
================
166
 xtb: 6.7.1 (edcfbbe)
N           11.51530849836723       -2.43708267386346       -4.05737955581223
C           10.81748299200124       -1.91183372591658       -3.30129633105465
C            9.94963369445822       -1.31138086095581       -2.39626046156942
C            8.57556511205117       -1.50000257125296       -2.50888099296523
C            7.67455337889894       -0.88740961823873       -1.66053084951717
N            6.30673158615900       -1.10501512514138       -1.82490892185444
C            5.70545654998505       -2.35708419198330       -1.79654765444796
C            6.28445966721504       -3.61645588730717       -1.82171124040939
C            5.44873111085246       -4.71586635896228       -1.72899672905672
C            4.06981418636232       -4.57091992812043       -1.60549459902327
C            3.48885262926581       -3.31722696278044       -1.54964830351110
C            4.30779170664337       -2.20165116710300       -1.63827095505985
C            4.05860073506206       -0.78971993276610       -1.55898122031000
C            2.93198055266313       -0.03990637296816       -1.29229404013242
C            3.03381847814653        1.35116716330477       -1.22626281941611
C            1.88233532280226        2.14829035506401       -0.80558388976438
C            1.67016034710085        3.44653492931434       -1.26621334732340
C            0.56824172077591        4.17966899518968       -0.86617818489364
C           -0.36885981591689        3.64466610503353        0.00796664156908
C           -1.64807866442547        4.34856004778418        0.43628873639710
C           -2.78840306655229        3.47977353998034       -0.08198110319837
C           -3.95836468126158        3.20677750872356        0.61317684047521
C           -4.96359490750311        2.43349428369447        0.05733876774079
C           -4.81599000756021        1.90333782682158       -1.21771794981652
N           -5.81297404232020        1.11168396964460       -1.80332901838069
C           -5.57875482328055       -0.06294164688893       -2.48967959590091
C           -4.42548969661892       -0.83274534158940       -2.54657139071651
C           -4.45767748725049       -1.98256962794133       -3.31184095294505
C           -5.60553182638124       -2.36490001878854       -4.00081178855275
C           -6.76685620877115       -1.62216212541559       -3.91568329763349
C           -6.76213260147382       -0.46765451807873       -3.14649963136905
C           -7.75915094511236        0.51650506232422       -2.82723427074381
C           -9.09262033384829        0.66972646456826       -3.17645274968945
C           -9.77900553328937        1.77069055416028       -2.70158478447869
C           -9.14637199956403        2.71814000069253       -1.90134293170772
C           -7.81829815333953        2.58845136651559       -1.54220579665758
C           -7.13081820336052        1.47341178457334       -1.99717756341526
C           -3.65366634519982        2.18183593774212       -1.93244470719224
C           -2.66599284966967        2.96024706630332       -1.37074553749194
C           -1.60728991600391        4.51393624369987        1.97791591232862
C           -2.00957144131552        5.91011006297321        2.45631737245957
C           -3.27026524190307        6.41035647764445        1.76059339180319
C           -3.09797325157371        6.42244278216956        0.23260852603460
C           -1.80711069774680        5.73449054265885       -0.21215881391778
C           -0.14434671974707        2.35515762016623        0.48998894360294
C            0.95362562930696        1.62308522829396        0.09879481242411
C            4.25752220854813        1.96330179632157       -1.55191487188177
C            5.39396644715212        1.23149522182892       -1.81651170631332
C            5.31628466602855       -0.15441315647502       -1.72387645910804
C            8.17854042949085       -0.02513236136125       -0.59783907783091
N            7.30621758565596        0.61608492458434        0.28184790535160
C            7.23439329699798        1.99379865009218        0.44607166952077
C            8.10505612693315        2.98174686353042        0.01310879736224
C            7.76454636980563        4.29994277749990        0.26287397390399
C            6.58149184996251        4.63221279919672        0.91671989995866
C            5.69513878856122        3.65263846503513        1.32597871424244
C            6.01772772936650        2.32516374673967        1.08887269619983
C            5.33256113587555        1.08700321189579        1.33381970632897
C            4.08693542403826        0.77704776659139        1.84042768495160
C            3.69985091581116       -0.56020772018464        1.93536928651954
C            2.36367490123364       -0.92341034402242        2.40529968785716
C            1.65874885173862       -0.12187572013665        3.30310042062185
C            0.42672888005241       -0.50614075599014        3.79536433698339
C           -0.14660623702951       -1.72152551295564        3.43826739009155
C           -1.42366912997611       -2.27313347550123        4.05001879712934
C           -2.50175492488640       -2.28544607317646        2.97251526542581
C           -2.75706067245398       -1.11824089570168        2.25494671016407
C           -3.81067266842633       -1.02983909128035        1.36489656294053
C           -4.64983079948605       -2.12344383983690        1.17174731230104
N           -5.79461006740026       -2.03743632495200        0.36573650938217
C           -6.82172144256040       -1.13232955093062        0.55114922229282
C           -6.89819688449686       -0.04977225241458        1.41491973639433
C           -8.06979324300242        0.68423620310691        1.42796131887244
C           -9.14917695950927        0.34628481510460        0.61618458725952
C           -9.09142388675945       -0.75196609764952       -0.21863123158776
C           -7.92423241394038       -1.50142310554242       -0.25275079324902
C           -7.54047840308688       -2.70048354341508       -0.94393171987759
C           -8.18993281964444       -3.53243882877598       -1.84445965548031
C           -7.51959390184149       -4.64139492723770       -2.32176443747466
C           -6.21151753550118       -4.91225047221651       -1.92785669168601
C           -5.54405765574244       -4.09712185251533       -1.03439748012693
C           -6.22404026652540       -2.99934250650953       -0.52695781228601
C           -4.36850287009052       -3.31118450094631        1.83701421389656
C           -3.30701661769506       -3.38879675707830        2.71725868646974
C           -1.14380052749868       -3.67925463657235        4.61564741309923
C           -0.16549451587850       -3.62595222870997        5.78438871392987
C           -0.79102260161425       -2.84405279143588        6.93256323764509
C           -1.10804904243215       -1.42821231939962        6.46837025239033
C           -1.98639026718629       -1.42949693210283        5.21602408245739
C            0.50872632140231       -2.47100641320892        2.46123723267043
C            1.73287922789273       -2.08751173255238        1.95720306267340
C            4.62128827636523       -1.56674506153744        1.58812892826461
C            5.85816422555880       -1.27696868828464        1.05834140845238
C            6.18561558254508        0.05976010816466        0.85565812354266
C            9.54106457556128        0.16048805344091       -0.47578390463391
C           10.45495505114392       -0.46041535397784       -1.32216043735404
C           11.82068861475472       -0.28157697173721       -1.13435979228498
N           12.94918235524972       -0.10148680749864       -0.96499473975268
H            8.20263790281364       -2.10654606565671       -3.32243966891246
H            7.35254129073681       -3.74650462588386       -1.90081695604313
H            5.87786554587456       -5.70595807245899       -1.75144359078627
H            3.44971519728508       -5.45270631692183       -1.54276812643749
H            2.42101605382751       -3.20270173907492       -1.43747172910390
H            1.98206128916844       -0.52807696757115       -1.13886517343680
H            2.35576672362009        3.88281804718706       -1.97703409752622
H            0.44315357791992        5.17389816449562       -1.26507997395261
H           -4.11277648491922        3.59347702293752        1.60801984884811
H           -5.86215181357223        2.22565542185151        0.61743554492765
H           -3.53316330843974       -0.54743215648998       -2.00909340822880
H           -3.57218241130703       -2.59692015206222       -3.37861589568867
H           -5.58744993513413       -3.26393352093722       -4.59766742785650
H           -7.66088034164268       -1.93111729758172       -4.43476613471964
H           -9.57793254561605       -0.05708733549393       -3.81019212177057
H          -10.81873554803450        1.90717785177447       -2.95931111483746
H           -9.70456358109509        3.57619664855828       -1.55707204245176
H           -7.33286924338371        3.33844646974661       -0.93686067254642
H           -3.54116599950590        1.79976414580105       -2.93602983864531
H           -1.77813665945676        3.16967355640476       -1.94853816442740
H           -2.24592063752626        3.76799380979069        2.45092020478115
H           -0.58887460211152        4.31867089375558        2.32268941250306
H           -2.17236352930204        5.88173137128435        3.53611000459706
H           -1.19452479374136        6.61231953223450        2.27332131820636
H           -4.10811679621216        5.76883495433293        2.03664062612124
H           -3.50504067972027        7.41311079398623        2.12148688796040
H           -3.08065003720023        7.44964476018327       -0.13607235876888
H           -3.94701253600787        5.92407673050221       -0.23885148460230
H           -0.95238042653374        6.35595396507680        0.05725724228869
H           -1.82485450911969        5.63144579454952       -1.29875995439876
H           -0.85373449461888        1.91626287267318        1.17713860242078
H            1.10231649160660        0.63672470168835        0.51149818734436
H            4.32606568092391        3.03984792436044       -1.55603145223843
H            6.32249917929777        1.72473482898487       -2.06242571330557
H            9.01669567555836        2.74205318627531       -0.51173255939969
H            8.43038982967292        5.08531431053935       -0.06092733568308
H            6.35114798562532        5.67183673006651        1.09539689217933
H            4.76546375645098        3.91017528734538        1.81034872025628
H            3.41134533944795        1.57026503248351        2.12008011104946
H            2.09264526234098        0.80239789072110        3.65379410063364
H           -0.07552448116587        0.16191366291106        4.47628595408598
H           -2.11971017620679       -0.25765000236294        2.39972864475114
H           -3.98860752274253       -0.11258671933827        0.82228001820016
H           -6.07718554969148        0.19676037585984        2.07176772491285
H           -8.15548898886274        1.53290331345865        2.09150392491817
H          -10.04624764277715        0.94519799585258        0.65342095484483
H           -9.93755276841572       -1.02933551297317       -0.82775024427368
H           -9.19868530604365       -3.31334377872571       -2.15985904517562
H           -8.00908257414975       -5.30633956168808       -3.01762211322307
H           -5.70729961259644       -5.77823724876000       -2.33065072099032
H           -4.52520111381959       -4.30549504495268       -0.74475038577646
H           -5.01004359523201       -4.16721298332963        1.68987252112899
H           -3.13674501940935       -4.32724212854168        3.21838571903815
H           -0.75622429669097       -4.33605681224019        3.83676692788849
H           -2.07742370422224       -4.10447165644095        4.98872157540920
H            0.76547221172022       -3.14764497388109        5.47228598595573
H            0.06971208522408       -4.64224310015634        6.10736324892623
H           -0.11059655081738       -2.80994245280291        7.78544122134709
H           -1.70772863981186       -3.34399882809301        7.25507134952059
H           -1.62831238816715       -0.88300537072662        7.25967809070404
H           -0.16606935812892       -0.91498138814134        6.27534015051076
H           -2.96047350639649       -1.85329625705631        5.47729235602857
H           -2.16555319613431       -0.40468345831880        4.88535023043386
H            0.05186648521557       -3.37588960603871        2.08743932509695
H            2.20785088580235       -2.69234490748030        1.19881599614723
H            4.35799224042109       -2.59983589522377        1.75393036149384
H            6.54948299093314       -2.06675462905868        0.80408086945176
H            9.91822637944248        0.76708884999847        0.33574630023873

 projected vibrational frequencies (cm⁻¹)
eigval :       -0.00    -0.00    -0.00    -0.00     0.00     0.00
eigval :        2.54     5.83    10.76    13.27    15.47    17.10
eigval :       19.81    24.14    31.20    32.01    36.38    42.38
eigval :       43.28    43.75    45.77    53.79    57.07    63.21
eigval :       64.82    68.32    70.27    75.82    78.22    81.26
eigval :       82.65    86.31    88.66    95.46    97.27   102.86
eigval :      106.07   107.72   113.26   117.27   127.15   134.45
eigval :      136.19   141.39   144.34   146.34   151.95   154.97
eigval :      159.81   162.84   164.12   169.02   171.36   176.57
eigval :      184.48   192.54   199.53   204.70   206.10   216.27
eigval :      230.42   232.01   241.99   247.69   256.19   258.75
eigval :      260.95   269.81   271.02   274.04   278.24   281.16
eigval :      296.47   300.01   304.38   311.15   320.58   323.22
eigval :      333.19   338.72   351.95   359.33   368.84   370.56
eigval :      372.18   375.53   377.52   378.55   384.04   385.71
eigval :      389.33   391.13   392.90   396.39   397.58   399.19
eigval :      400.52   405.40   412.70   415.95   418.59   420.06
eigval :      425.11   425.91   429.36   433.55   437.81   440.81
eigval :      441.91   447.68   456.31   459.89   466.67   469.88
eigval :      474.38   478.60   490.14   510.75   515.56   517.00
eigval :      518.24   520.26   526.86   529.59   531.93   535.23
eigval :      536.64   539.46   540.35   541.15   541.81   546.44
eigval :      548.75   556.23   570.34   582.68   583.20   585.44
eigval :      588.14   592.33   593.86   596.94   597.28   598.71
eigval :      602.83   604.47   609.12   612.96   614.50   619.97
eigval :      620.85   630.13   638.10   647.26   655.73   667.73
eigval :      669.07   673.54   674.51   677.34   680.95   692.32
eigval :      693.33   701.62   702.52   704.76   706.52   707.82
eigval :      709.65   710.31   716.13   731.06   737.81   740.87
eigval :      757.36   757.89   767.24   771.82   771.95   773.16
eigval :      778.45   781.96   800.81   801.79   806.90   807.45
eigval :      812.59   816.84   819.08   823.73   825.46   830.96
eigval :      832.63   841.37   851.96   861.78   862.98   864.71
eigval :      865.45   867.47   867.75   869.64   871.01   872.88
eigval :      873.89   878.72   881.65   882.91   888.05   891.80
eigval :      892.77   897.32   897.75   897.92   901.58   902.42
eigval :      902.77   903.00   904.44   905.14   907.95   913.29
eigval :      913.93   913.97   915.99   917.60   918.61   919.28
eigval :      919.89   920.08   920.60   921.60   924.82   925.00
eigval :      929.21   929.76   932.24   933.42   934.74   936.89
eigval :      940.36   943.86   953.66   955.46   957.76   968.86
eigval :      973.08   978.10   994.65   995.41  1003.75  1012.06
eigval :     1012.86  1014.65  1020.71  1022.84  1033.52  1034.96
eigval :     1064.26  1069.33  1069.57  1070.33  1071.63  1072.29
eigval :     1073.25  1074.57  1082.75  1095.98  1097.39  1097.98
eigval :     1113.32  1118.88  1119.69  1122.31  1123.93  1131.03
eigval :     1134.93  1137.32  1139.57  1140.54  1145.65  1149.44
eigval :     1150.60  1152.02  1154.16  1155.62  1157.83  1158.82
eigval :     1168.13  1169.68  1171.23  1174.12  1176.49  1176.82
eigval :     1179.92  1180.22  1180.60  1185.09  1185.34  1186.71
eigval :     1197.61  1198.47  1201.01  1206.57  1207.68  1211.60
eigval :     1212.79  1216.98  1219.65  1220.60  1225.98  1226.83
eigval :     1229.04  1234.40  1235.45  1235.77  1242.78  1246.44
eigval :     1247.10  1249.08  1252.68  1255.24  1256.93  1260.38
eigval :     1260.69  1273.17  1274.40  1275.14  1276.74  1278.33
eigval :     1280.72  1286.33  1287.93  1294.60  1297.36  1298.23
eigval :     1299.61  1300.00  1302.77  1316.43  1319.77  1319.84
eigval :     1323.74  1326.33  1327.23  1330.11  1331.72  1332.64
eigval :     1338.22  1341.45  1342.00  1343.50  1345.47  1348.80
eigval :     1348.87  1353.32  1355.83  1356.39  1357.23  1358.05
eigval :     1358.50  1359.69  1359.88  1363.97  1365.39  1367.54
eigval :     1368.73  1399.54  1401.55  1403.05  1404.69  1404.80
eigval :     1407.60  1414.48  1418.71  1422.31  1424.07  1425.44
eigval :     1428.82  1431.17  1434.37  1436.61  1455.95  1456.96
eigval :     1471.01  1472.39  1477.74  1477.81  1481.19  1485.78
eigval :     1487.03  1487.51  1488.50  1489.45  1489.79  1490.83
eigval :     1492.97  1493.93  1495.97  1499.11  1504.54  1510.08
eigval :     1510.20  1519.35  1538.16  1540.31  1544.65  1547.34
eigval :     1553.53  1557.00  1564.23  1565.65  1573.58  1573.78
eigval :     1575.94  1577.48  1582.03  1584.37  1588.71  1589.18
eigval :     1592.37  1593.71  1596.55  1598.32  1598.70  1600.53
eigval :     1609.54  1614.26  2253.76  2258.89  2953.19  2961.34
eigval :     2961.94  2963.68  2966.78  2968.04  2969.21  2975.25
eigval :     2976.11  2981.87  2981.91  2985.39  2987.27  2987.86
eigval :     2991.02  2995.69  2996.91  2998.91  3001.72  3007.20
eigval :     3072.18  3073.46  3073.94  3074.61  3076.83  3077.36
eigval :     3077.83  3078.87  3079.26  3079.89  3081.40  3082.16
eigval :     3082.64  3082.96  3083.33  3084.21  3084.59  3084.65
eigval :     3085.46  3085.62  3086.37  3087.15  3088.07  3088.55
eigval :     3089.33  3089.71  3090.29  3091.03  3092.17  3093.21
eigval :     3094.69  3095.25  3096.13  3096.19  3096.52  3097.27
eigval :     3097.33  3098.01  3100.48  3100.87  3101.29  3102.25
eigval :     3103.28  3103.48  3105.09  3107.77  3108.10  3117.14

   temp. (K)  partition function   enthalpy   heat capacity  entropy
                                   cal/mol     cal/K/mol   cal/K/mol   J/K/mol
 298.15  VIB  0.125E+38            47502.812    302.097    296.854
         ROT  0.510E+09              888.752      2.981     42.824
         INT  0.638E+46            48391.564    305.078    339.678
         TR   0.431E+29             1481.254      4.968     47.243
         TOT                       49872.8184   310.0459   386.9210  1618.8775

       T/K    H(0)-H(T)+PV         H(T)/Eh          T*S/Eh         G(T)/Eh
   ------------------------------------------------------------------------
    298.15    0.794774E-01    0.138926E+01    0.183839E+00    0.120542E+01
   ------------------------------------------------------------------------

         :::::::::::::::::::::::::::::::::::::::::::::::::::::
         ::                  THERMODYNAMIC                  ::
         :::::::::::::::::::::::::::::::::::::::::::::::::::::
         :: total free energy        -248.093813017271 Eh   ::
         ::.................................................::
         :: total energy             -249.299229810948 Eh   ::
         :: zero point energy           1.309778050771 Eh   ::
         :: G(RRHO) w/o ZPVE           -0.104361257095 Eh   ::
         :: G(RRHO) contrib.            1.205416793677 Eh   ::
         :::::::::::::::::::::::::::::::::::::::::::::::::::::

           -------------------------------------------------
          | TOTAL ENERGY             -249.299229810948 Eh   |
          | TOTAL ENTHALPY           -247.909974365091 Eh   |
          | TOTAL FREE ENERGY        -248.093813017271 Eh   |
          | GRADIENT NORM               0.000078941303 Eh/α |
           -------------------------------------------------

 * finished run on 2025/09/12 at 13:30:43.382
