   * xtb version 6.7.1 (edcfbbe) compiled by 'albert@albert-system' on 2024-07-22

   ID    Z sym.   atoms
    1    7 N      1, 6, 25, 51, 70, 98
    2    6 C      2-5, 7-24, 26-50, 52-69, 71-97
    3    1 H      99-166

          program call               : xtb data2507/gas/BPCP-2CPC/BPCP-2CPC_gas_S0_crest.xyz --gfn 2 --ohess vtight --parallel 40 --molden --ceasefiles --namespace data2507/gas/BPCP-2CPC/BPCP-2CPC_gas_S0_finalOpt
          :  Hamiltonian                  GFN2-xTB          :
 * total energy  :  -249.3707217 Eh     change       -0.6177515E-08 Eh
 * total energy  :  -249.3706937 Eh     change        0.2801877E-04 Eh
 * total energy  :  -249.3707234 Eh     change       -0.2968311E-04 Eh
 * total energy  :  -249.3707189 Eh     change        0.4475956E-05 Eh
 * total energy  :  -249.3707208 Eh     change       -0.1908442E-05 Eh
 * total energy  :  -249.3707219 Eh     change       -0.1071523E-05 Eh
 * total energy  :  -249.3707322 Eh     change       -0.1031344E-04 Eh
 * total energy  :  -249.3707336 Eh     change       -0.1386100E-05 Eh
 * total energy  :  -249.3707351 Eh     change       -0.1518491E-05 Eh
 * total energy  :  -249.3707369 Eh     change       -0.1795219E-05 Eh
 * total energy  :  -249.3717932 Eh     change       -0.7849103E-06 Eh
 * total energy  :  -249.3717936 Eh     change       -0.4117472E-06 Eh
 * total energy  :  -249.3717940 Eh     change       -0.3587135E-06 Eh
 * total energy  :  -249.3717945 Eh     change       -0.5381816E-06 Eh
 * total energy  :  -249.3717951 Eh     change       -0.5243582E-06 Eh
 * total energy  :  -249.3717954 Eh     change       -0.3058591E-06 Eh
 * total energy  :  -249.3717958 Eh     change       -0.3920445E-06 Eh
 * total energy  :  -249.3717962 Eh     change       -0.4596800E-06 Eh
 * total energy  :  -249.3717963 Eh     change       -0.3807719E-07 Eh
   *** GEOMETRY OPTIMIZATION CONVERGED AFTER 245 ITERATIONS ***

 final structure:
================
166
 xtb: 6.7.1 (edcfbbe)
N           10.02417698568421        6.15575737480644       -1.81376533702935
C            9.42084641392173        5.37465095819757       -1.23188869911169
C            8.66450472563984        4.40317976628629       -0.53715570809562
C            7.51136336969916        3.88143892159393       -1.11193558995189
C            6.74621039385072        2.93008265139692       -0.44822479680128
N            5.58098568529928        2.45036236561277       -1.04293039382648
C            5.51420762431879        1.78584214878259       -2.26199393195375
C            6.47374659580540        1.66016057727040       -3.25302695911759
C            6.15251278145925        0.91203403726043       -4.37151743713522
C            4.90951700967690        0.30110684459087       -4.50352577004703
C            3.95730673874948        0.40809451720841       -3.50833793789264
C            4.26107361845298        1.14461137122524       -2.37269450718233
C            3.53780850039874        1.43274832801019       -1.16328820735668
C            2.29771116345379        1.05086605880295       -0.68096620095413
C            1.86821346998655        1.53619961664212        0.54981951406164
C            0.56918362159196        1.13229207649755        1.10338479011520
C            0.38145649757446        0.99997581572877        2.47597066309140
C           -0.85354588510699        0.66522053595075        3.00241347995312
C           -1.94886768797753        0.43863544475696        2.18085305252086
C           -3.35191095787858        0.08549473033496        2.66111403336564
C           -4.29948486007658        0.97560848331046        1.86878193137712
C           -5.33172521481814        0.49807772012661        1.07446980552064
C           -6.14152976111790        1.36570872089472        0.36418969230858
C           -5.94841881777586        2.73808665323042        0.44776222495780
N           -6.77014690956914        3.61402734229712       -0.27569553953516
C           -6.33725864914629        4.63764272897416       -1.09344574788288
C           -5.04442841815161        5.01491925366584       -1.42851914803693
C           -4.88773655568808        6.07502656035461       -2.30040258010199
C           -5.98522072004299        6.74451469696353       -2.83776342721430
C           -7.27359494947468        6.35799048579514       -2.52789297009532
C           -7.45727626934621        5.29434728976153       -1.65409513973342
C           -8.62004116884368        4.62609066913660       -1.14143035328092
C           -9.98502164524356        4.81643070048446       -1.31234856062547
C          -10.85833454719758        3.98504964518900       -0.64044974694889
C          -10.38593662076997        2.98338560912786        0.20512557091946
C           -9.03317233034591        2.77496383997405        0.39211303731539
C           -8.14955740686971        3.59249507009693       -0.29857329312883
C           -4.92795609717600        3.22991022180926        1.25721028866788
C           -4.11466812007025        2.35517166848718        1.94652757077345
C           -3.57355034655736       -1.40887339297886        2.37951362916103
C           -2.60141678669148       -2.28137950343559        3.17503953414735
C           -2.52334849255798       -1.87052745877665        4.65368613331088
C           -3.65391064788127       -0.91627102455141        5.01742622581815
C           -3.62087750350159        0.35389710849378        4.16429986235137
C           -1.74840756012715        0.53418010881656        0.80415776504870
C           -0.52332818244055        0.87965020200359        0.27523207301018
C            2.67275552523344        2.44656549332500        1.24862452299996
C            3.91877353564520        2.82516378369156        0.79333565234639
C            4.37329828445484        2.26213826333076       -0.38792071740471
C            7.16784254724548        2.46412786394772        0.82252212642818
N            6.45549272293044        1.47718346871122        1.50130913164729
C            5.84653050617935        1.63633376418944        2.74090911370417
C            6.00504138347677        2.64213793033110        3.68007026213572
C            5.23518239464639        2.58034627650190        4.82782045380911
C            4.32233644427750        1.55085851928323        5.03545371948395
C            4.14862820848292        0.55565992483122        4.09321130320026
C            4.91251698131599        0.59562925328781        2.93604535438860
C            4.96142219874195       -0.23221976331067        1.76148699629071
C            4.25054964053092       -1.34658972120084        1.35018710703672
C            4.52369714402140       -1.89670388902436        0.10404938167615
C            3.69121162342515       -2.99492300021957       -0.40505692389695
C            3.34981925364957       -4.08222426771831        0.38939356484081
C            2.50711835575543       -5.07061767981336       -0.08403770529964
C            1.95706887865413       -5.00530235503652       -1.36097941183351
C            0.91557929157249       -5.99785301428655       -1.86135788105633
C           -0.43339825135053       -5.31387788233350       -1.65811096858903
C           -0.71028596387848       -4.74183578246788       -0.41828266403570
C           -1.92164440942710       -4.13916895631585       -0.15433476465053
C           -2.91184682739381       -4.10355983189078       -1.13062866313530
N           -4.15979024958137       -3.52891810955936       -0.84753608635264
C           -4.94558164346244       -3.82845535769470        0.24750522051729
C           -4.71902699619782       -4.72477951494908        1.28252661164780
C           -5.68164379670951       -4.83001354028131        2.26788579153742
C           -6.85152701860539       -4.07414715105276        2.22733852822027
C           -7.09942464349137       -3.20708637813324        1.18234906067751
C           -6.14625067624695       -3.08440786331543        0.17940994273184
C           -6.07356938904275       -2.30224871642599       -1.02280717991906
C           -6.93192042335802       -1.38871440718730       -1.62095323131929
C           -6.52726805111127       -0.76473906029268       -2.78364800807588
C           -5.28138085230985       -1.03693470045716       -3.34493866925291
C           -4.41768817699842       -1.95412828346837       -2.77789292160344
C           -4.82773456644401       -2.60118228506140       -1.62092636089113
C           -2.64650553673125       -4.65936694035803       -2.37577845085254
C           -1.42070317540798       -5.24876910423015       -2.63311056938894
C            1.17303088259108       -6.38778513559432       -3.32672104806261
C            2.51103839070715       -7.10695210573066       -3.47082199195619
C            2.48785544726882       -8.40666587024305       -2.67470534348213
C            2.18885773502907       -8.11052731657985       -1.20961953876450
C            0.88964325143904       -7.32000988511107       -1.06582571307842
C            2.30325726599405       -3.91069652160336       -2.14926091949944
C            3.16657201120779       -2.93563570637293       -1.69200952020988
C            5.56400019731004       -1.38000770897238       -0.67580292443611
C            6.29641063953542       -0.28130523005828       -0.27437866282125
C            5.93667682278759        0.33267762554650        0.91461038861167
C            8.31074147468500        3.00274701811746        1.40056799282355
C            9.06235092671071        3.96761000865601        0.73983136225549
C           10.22544004468223        4.49345098400776        1.34728052124718
N           11.16200656074740        4.91207480611047        1.85748116145570
H            7.18325473498249        4.24816490640199       -2.07327999354177
H            7.44720772567437        2.11889599419977       -3.16245312786600
H            6.88319594186997        0.80295435495783       -5.15880039638022
H            4.69297714313745       -0.26737231743290       -5.39550994211840
H            2.99239023380058       -0.06583393692028       -3.60852473604855
H            1.68582614626080        0.36522950227734       -1.24623388397814
H            1.21643636782371        1.15148085962363        3.14532724222407
H           -0.94147095920563        0.58836456018548        4.07503154934433
H           -5.51390093642834       -0.55954556967961        0.98042624541649
H           -6.91421124816007        0.97388308681247       -0.27864336008929
H           -4.18810273398559        4.49081093111722       -1.03128147865738
H           -3.89133542123944        6.38975088600849       -2.57441831593169
H           -5.82022287625327        7.57091744540373       -3.51316632872731
H           -8.12419575178368        6.86614019918280       -2.95679399909839
H          -10.35079284520875        5.60270900517696       -1.95553513312787
H          -11.92365130918867        4.11444681110826       -0.76146398231574
H          -11.09408631117580        2.35824757872340        0.72927870195986
H           -8.67637047486068        2.00847098268411        1.06354274095578
H           -4.78228669424608        4.29614688610606        1.34598541650407
H           -3.31631903755893        2.74781089292219        2.55941743388600
H           -4.59666852293952       -1.68118426528049        2.64116436611233
H           -3.43647016593202       -1.60339236152615        1.31437997478542
H           -2.93623587798850       -3.31797958892837        3.09486138606057
H           -1.60762402066458       -2.21415235584960        2.72633762868311
H           -2.57522432925635       -2.75404487417209        5.29263102100479
H           -1.56797859681302       -1.38480199725179        4.85488843801982
H           -3.57968706368012       -0.63945940396288        6.07151183854390
H           -4.60917646715292       -1.42713652479249        4.88412743112106
H           -2.87593949528336        1.04424863577881        4.55917755548541
H           -4.58897286560606        0.85188416506479        4.25943121615406
H           -2.57712111475552        0.35668826813682        0.13294428912075
H           -0.42266357997107        0.98462348681238       -0.79480755388794
H            2.30361035837888        2.87885000134937        2.16603012444881
H            4.51226713242488        3.54021336557284        1.34361124028233
H            6.69469591809711        3.45890476858375        3.52670288081754
H            5.34421415352745        3.35105506540616        5.57603473332560
H            3.73980489255688        1.53820901708456        5.94449988967340
H            3.43201930246257       -0.23729515634205        4.24489917749072
H            3.46812480432386       -1.75755452587473        1.96965255571470
H            3.75510438524205       -4.16109826670530        1.38824693234206
H            2.27324980430269       -5.89095565696323        0.57625993591551
H            0.04080104073854       -4.75249644238792        0.35674647901331
H           -2.10144507556807       -3.68456080145292        0.80679402741378
H           -3.82499706055658       -5.32919118134028        1.31271586625334
H           -5.52537299587164       -5.51604528799544        3.08753600476784
H           -7.57657152312038       -4.18052299076730        3.02053490732770
H           -8.01385499887704       -2.63439148910330        1.14033250572417
H           -7.89554212624998       -1.17674091779323       -1.18138660142190
H           -7.17754126855720       -0.04870223026038       -3.26406335535505
H           -4.98518107018059       -0.51936393629752       -4.24542645456598
H           -3.45086231212578       -2.15281230525141       -3.21555193342620
H           -3.40934196783773       -4.64553539001496       -3.14024373462262
H           -1.25717866504254       -5.66886647704662       -3.61242035990298
H            1.14646173434797       -5.51393474473617       -3.97738505788492
H            0.38568689810512       -7.07052397918145       -3.65331763592356
H            3.31612010264326       -6.46532305819316       -3.10593450337046
H            2.70071699803327       -7.31907360205566       -4.52536160032669
H            3.44736299719892       -8.92018430397171       -2.76194193408299
H            1.71705544717382       -9.06657240601696       -3.08091337704757
H            2.10502927192071       -9.04488939469446       -0.64962450663827
H            3.02042683362320       -7.54173311242240       -0.79090844351901
H            0.06303830001364       -7.92164785781519       -1.45394138306092
H            0.67402074324155       -7.13203997951275       -0.01325774809777
H            1.88085259428583       -3.79860462338753       -3.13594441592295
H            3.41417981977433       -2.09479509069146       -2.32326668631817
H            5.80246775414104       -1.85818621449637       -1.61410917438186
H            7.11097904201727        0.08983257603467       -0.87848182112335
H            8.64011218694720        2.63785434400938        2.36218819467906

          :  Hamiltonian                  GFN2-xTB          :
         :: gradient norm              0.000198146583 Eh/a0 ::
         :: HOMO-LUMO gap              1.337507844263 eV    ::
         :: SCC energy              -254.024358104318 Eh    ::
         :: -> dispersion             -0.270608360592 Eh    ::
         :: repulsion energy           4.652561846563 Eh    ::

    * Orbital Energies and Occupations

         #    Occupation            Energy/Eh            Energy/eV
      -------------------------------------------------------------
         1        2.0000           -0.7097587             -19.3135
       ...           ...                  ...                  ...
       221        2.0000           -0.4039966             -10.9933
       222        2.0000           -0.4006871             -10.9033
       223        2.0000           -0.3998410             -10.8802
       224        2.0000           -0.3982220             -10.8362
       225        2.0000           -0.3962364             -10.7821
       226        2.0000           -0.3947428             -10.7415
       227        2.0000           -0.3865171             -10.5177
       228        2.0000           -0.3806338             -10.3576
       229        2.0000           -0.3775729             -10.2743
       230        2.0000           -0.3743507             -10.1866
       231        2.0000           -0.3737065             -10.1691
       232        2.0000           -0.3637568              -9.8983
       233        2.0000           -0.3566011              -9.7036 (HOMO)
       234                         -0.3074489              -8.3661 (LUMO)
       235                         -0.2847729              -7.7491
       236                         -0.2601277              -7.0784
       237                         -0.2580962              -7.0232
       238                         -0.2518500              -6.8532
       239                         -0.2485101              -6.7623
       240                         -0.2460790              -6.6961
       241                         -0.2410669              -6.5598
       242                         -0.2355892              -6.4107
       243                         -0.2330829              -6.3425
       244                         -0.2301209              -6.2619
       ...                                ...                  ...
       460                          1.1752733              31.9808
      -------------------------------------------------------------
                  HL-Gap            0.0491522 Eh            1.3375 eV

     #   Z          covCN         q      C6AA      α(0)
     1   7 N        0.911    -0.212    25.617     7.320
     2   6 C        1.910     0.114    28.294     8.590
     3   6 C        2.975     0.021    27.528     8.606
     4   6 C        2.929    -0.035    28.878     8.813
     5   6 C        2.910     0.061    26.627     8.461
     6   7 N        2.798    -0.049    22.179     6.995
     7   6 C        3.068     0.049    26.823     8.492
     8   6 C        2.910    -0.049    29.220     8.864
     9   6 C        2.925    -0.031    28.780     8.798
    10   6 C        2.920    -0.038    28.937     8.821
    11   6 C        2.913    -0.030    28.755     8.793
    12   6 C        3.069    -0.012    28.248     8.715
    13   6 C        3.060    -0.015    28.320     8.727
    14   6 C        2.919    -0.036    28.897     8.815
    15   6 C        2.976     0.004    27.932     8.669
    16   6 C        2.976     0.006    27.892     8.663
    17   6 C        2.925    -0.038    28.942     8.822
    18   6 C        2.923    -0.038    28.939     8.822
    19   6 C        2.980     0.013    27.719     8.636
    20   6 C        3.911     0.010    20.342     6.411
    21   6 C        2.982     0.006    27.876     8.661
    22   6 C        2.923    -0.040    28.984     8.829
    23   6 C        2.923    -0.046    29.133     8.851
    24   6 C        2.913     0.060    26.654     8.466
    25   7 N        2.803    -0.043    22.077     6.978
    26   6 C        3.078     0.047    26.869     8.498
    27   6 C        2.910    -0.051    29.265     8.871
    28   6 C        2.924    -0.034    28.845     8.808
    29   6 C        2.920    -0.042    29.034     8.836
    30   6 C        2.912    -0.033    28.830     8.805
    31   6 C        3.068    -0.018    28.380     8.735
    32   6 C        3.068    -0.018    28.378     8.735
    33   6 C        2.912    -0.033    28.827     8.804
    34   6 C        2.920    -0.042    29.036     8.836
    35   6 C        2.924    -0.034    28.847     8.808
    36   6 C        2.910    -0.051    29.268     8.871
    37   6 C        3.077     0.047    26.869     8.498
    38   6 C        2.921    -0.045    29.116     8.849
    39   6 C        2.927    -0.036    28.890     8.815
    40   6 C        3.811    -0.050    21.467     6.595
    41   6 C        3.802    -0.051    21.480     6.598
    42   6 C        3.802    -0.055    21.559     6.611
    43   6 C        3.802    -0.053    21.524     6.605
    44   6 C        3.808    -0.058    21.604     6.616
    45   6 C        2.927    -0.035    28.882     8.813
    46   6 C        2.924    -0.036    28.887     8.814
    47   6 C        2.931    -0.036    28.884     8.814
    48   6 C        2.909    -0.048    29.181     8.858
    49   6 C        3.076     0.047    26.871     8.499
    50   6 C        2.910     0.061    26.627     8.461
    51   7 N        2.799    -0.049    22.191     6.996
    52   6 C        3.069     0.050    26.818     8.491
    53   6 C        2.910    -0.049    29.220     8.864
    54   6 C        2.925    -0.031    28.780     8.798
    55   6 C        2.920    -0.038    28.937     8.821
    56   6 C        2.913    -0.030    28.755     8.793
    57   6 C        3.069    -0.012    28.246     8.715
    58   6 C        3.062    -0.014    28.309     8.725
    59   6 C        2.920    -0.036    28.892     8.814
    60   6 C        2.979     0.004    27.933     8.669
    61   6 C        2.979     0.006    27.871     8.660
    62   6 C        2.924    -0.038    28.934     8.821
    63   6 C        2.924    -0.038    28.948     8.823
    64   6 C        2.976     0.013    27.709     8.635
    65   6 C        3.910     0.011    20.335     6.410
    66   6 C        2.980     0.006    27.870     8.660
    67   6 C        2.928    -0.037    28.923     8.820
    68   6 C        2.922    -0.047    29.163     8.856
    69   6 C        2.912     0.060    26.655     8.466
    70   7 N        2.802    -0.046    22.123     6.986
    71   6 C        3.077     0.047    26.854     8.496
    72   6 C        2.910    -0.050    29.248     8.868
    73   6 C        2.924    -0.033    28.829     8.805
    74   6 C        2.920    -0.042    29.034     8.836
    75   6 C        2.912    -0.034    28.840     8.806
    76   6 C        3.068    -0.018    28.379     8.735
    77   6 C        3.068    -0.018    28.380     8.735
    78   6 C        2.912    -0.032    28.788     8.798
    79   6 C        2.920    -0.040    28.996     8.830
    80   6 C        2.924    -0.033    28.821     8.804
    81   6 C        2.910    -0.051    29.262     8.870
    82   6 C        3.076     0.047    26.871     8.499
    83   6 C        2.921    -0.045    29.124     8.850
    84   6 C        2.924    -0.039    28.961     8.825
    85   6 C        3.813    -0.057    21.587     6.613
    86   6 C        3.806    -0.054    21.535     6.606
    87   6 C        3.806    -0.056    21.568     6.611
    88   6 C        3.805    -0.055    21.563     6.611
    89   6 C        3.814    -0.054    21.529     6.604
    90   6 C        2.926    -0.037    28.912     8.818
    91   6 C        2.925    -0.037    28.915     8.818
    92   6 C        2.930    -0.035    28.871     8.812
    93   6 C        2.909    -0.047    29.172     8.856
    94   6 C        3.076     0.047    26.869     8.499
    95   6 C        2.929    -0.035    28.879     8.813
    96   6 C        2.975     0.021    27.530     8.607
    97   6 C        1.910     0.114    28.294     8.590
    98   7 N        0.911    -0.212    25.621     7.321
    99   1 H        0.926     0.060     2.201     2.320
   100   1 H        0.926     0.026     2.642     2.542
   101   1 H        0.926     0.035     2.513     2.479
   102   1 H        0.926     0.034     2.535     2.490
   103   1 H        0.926     0.034     2.523     2.484
   104   1 H        0.926     0.038     2.481     2.463
   105   1 H        0.926     0.029     2.601     2.522
   106   1 H        0.926     0.035     2.521     2.483
   107   1 H        0.926     0.041     2.436     2.441
   108   1 H        0.926     0.043     2.415     2.430
   109   1 H        0.926     0.026     2.639     2.540
   110   1 H        0.926     0.027     2.630     2.536
   111   1 H        0.926     0.026     2.638     2.540
   112   1 H        0.926     0.030     2.590     2.517
   113   1 H        0.926     0.030     2.593     2.518
   114   1 H        0.926     0.026     2.638     2.540
   115   1 H        0.926     0.027     2.625     2.534
   116   1 H        0.926     0.027     2.633     2.538
   117   1 H        0.926     0.038     2.469     2.457
   118   1 H        0.926     0.032     2.561     2.503
   119   1 H        0.924     0.038     2.481     2.463
   120   1 H        0.924     0.027     2.624     2.533
   121   1 H        0.924     0.027     2.632     2.537
   122   1 H        0.924     0.025     2.660     2.551
   123   1 H        0.924     0.027     2.632     2.537
   124   1 H        0.924     0.031     2.568     2.506
   125   1 H        0.924     0.028     2.617     2.530
   126   1 H        0.924     0.033     2.540     2.492
   127   1 H        0.925     0.036     2.499     2.472
   128   1 H        0.924     0.030     2.581     2.512
   129   1 H        0.926     0.026     2.642     2.542
   130   1 H        0.926     0.029     2.601     2.522
   131   1 H        0.926     0.036     2.509     2.477
   132   1 H        0.926     0.022     2.698     2.569
   133   1 H        0.926     0.026     2.640     2.541
   134   1 H        0.926     0.035     2.513     2.479
   135   1 H        0.926     0.033     2.538     2.491
   136   1 H        0.926     0.035     2.514     2.479
   137   1 H        0.926     0.036     2.496     2.471
   138   1 H        0.926     0.028     2.612     2.527
   139   1 H        0.926     0.034     2.529     2.487
   140   1 H        0.926     0.036     2.502     2.473
   141   1 H        0.926     0.043     2.407     2.426
   142   1 H        0.926     0.026     2.643     2.542
   143   1 H        0.926     0.027     2.625     2.533
   144   1 H        0.926     0.027     2.634     2.538
   145   1 H        0.926     0.030     2.590     2.517
   146   1 H        0.926     0.029     2.593     2.518
   147   1 H        0.926     0.028     2.621     2.532
   148   1 H        0.926     0.029     2.606     2.524
   149   1 H        0.926     0.026     2.641     2.541
   150   1 H        0.926     0.039     2.458     2.452
   151   1 H        0.926     0.039     2.466     2.456
   152   1 H        0.925     0.030     2.584     2.514
   153   1 H        0.924     0.035     2.512     2.479
   154   1 H        0.924     0.032     2.553     2.498
   155   1 H        0.924     0.027     2.624     2.533
   156   1 H        0.924     0.027     2.628     2.535
   157   1 H        0.924     0.030     2.580     2.512
   158   1 H        0.924     0.028     2.617     2.530
   159   1 H        0.924     0.036     2.499     2.472
   160   1 H        0.924     0.032     2.561     2.503
   161   1 H        0.924     0.030     2.592     2.518
   162   1 H        0.926     0.029     2.604     2.523
   163   1 H        0.926     0.031     2.577     2.511
   164   1 H        0.926     0.035     2.523     2.484
   165   1 H        0.926     0.023     2.692     2.566
   166   1 H        0.926     0.060     2.202     2.321

molecular dipole:
                 x           y           z       tot (Debye)
 q only:       -0.933      -2.422       0.374
   full:       -1.307      -2.795       0.356       7.893

 projected vibrational frequencies (cm⁻¹)
eigval :       -0.00    -0.00    -0.00    -0.00     0.00     0.00
eigval :       -2.25     6.82     7.50     8.56    13.87    17.24
eigval :       17.70    20.28    22.74    28.70    33.36    36.30
eigval :       40.19    42.29    45.12    48.86    51.15    54.18
eigval :       57.30    64.20    65.82    67.69    73.77    77.00
eigval :       81.31    83.83    84.12    91.26    96.46   101.96
eigval :      104.99   107.17   108.50   118.79   119.80   127.24
eigval :      133.36   139.84   141.00   147.69   148.67   151.15
eigval :      153.52   156.48   158.76   166.12   170.20   176.78
eigval :      183.70   194.06   200.25   201.77   211.48   220.04
eigval :      228.16   234.80   240.85   242.66   245.01   255.42
eigval :      267.02   271.80   272.04   274.12   279.28   285.63
eigval :      293.73   295.27   306.57   311.47   313.73   329.21
eigval :      331.14   345.04   354.89   360.47   372.14   374.02
eigval :      374.96   379.87   380.83   383.19   384.33   392.09
eigval :      394.75   394.85   398.74   403.43   404.10   407.97
eigval :      409.59   413.71   417.86   418.41   423.98   425.30
eigval :      427.63   429.14   433.07   438.63   440.15   444.62
eigval :      449.15   449.93   460.68   466.80   470.50   478.23
eigval :      481.42   492.14   507.67   510.29   518.65   518.97
eigval :      520.63   531.11   531.91   533.35   533.41   535.22
eigval :      538.03   540.64   541.13   541.41   543.88   546.32
eigval :      551.60   560.24   576.23   581.89   583.88   586.50
eigval :      592.19   595.16   598.04   599.38   602.56   603.08
eigval :      613.76   615.49   618.69   619.05   621.69   628.43
eigval :      629.68   639.53   654.43   657.14   671.81   673.85
eigval :      674.19   676.38   682.74   689.39   690.76   692.19
eigval :      697.12   703.55   707.38   707.80   707.94   708.40
eigval :      709.25   717.62   721.46   739.25   740.03   753.24
eigval :      757.53   757.62   769.75   771.28   776.35   777.38
eigval :      780.93   782.08   797.09   805.26   806.69   811.86
eigval :      816.03   818.35   820.43   824.78   829.56   833.58
eigval :      837.37   846.15   855.44   866.13   867.01   867.98
eigval :      870.05   871.11   871.38   873.68   876.15   878.50
eigval :      878.55   878.97   879.92   883.43   890.57   892.47
eigval :      892.87   897.58   898.17   901.92   902.17   902.74
eigval :      903.55   905.53   906.33   906.78   908.24   913.52
eigval :      916.51   916.95   917.83   918.45   919.17   921.23
eigval :      922.03   922.42   923.72   925.41   925.86   925.92
eigval :      926.52   932.24   933.60   933.87   934.53   940.48
eigval :      941.56   952.41   954.71   956.18   960.24   974.05
eigval :      974.82   981.14   996.17   998.56  1005.17  1008.76
eigval :     1012.04  1012.25  1026.18  1027.24  1035.32  1036.89
eigval :     1069.73  1070.12  1070.37  1073.43  1073.58  1073.71
eigval :     1074.22  1079.93  1086.65  1090.69  1094.58  1099.67
eigval :     1119.45  1119.63  1122.95  1123.33  1128.18  1130.63
eigval :     1137.26  1140.33  1143.70  1147.94  1148.81  1152.23
eigval :     1152.96  1153.30  1154.58  1155.96  1157.80  1161.69
eigval :     1170.69  1172.60  1176.64  1176.92  1177.21  1181.61
eigval :     1181.76  1182.40  1184.00  1185.37  1186.52  1199.91
eigval :     1203.07  1206.11  1206.70  1212.09  1215.03  1216.19
eigval :     1218.12  1219.51  1220.40  1221.95  1225.98  1227.28
eigval :     1229.67  1236.98  1237.29  1237.56  1247.38  1247.52
eigval :     1249.83  1254.06  1255.32  1257.60  1259.37  1263.31
eigval :     1264.51  1275.33  1276.17  1277.71  1279.92  1284.65
eigval :     1285.45  1286.42  1290.27  1301.35  1301.39  1305.25
eigval :     1306.26  1310.26  1311.66  1315.46  1319.12  1319.49
eigval :     1321.94  1323.76  1327.93  1332.88  1334.19  1341.57
eigval :     1341.75  1345.68  1347.03  1348.83  1351.46  1352.00
eigval :     1356.31  1357.82  1357.96  1359.13  1359.36  1359.76
eigval :     1362.33  1362.88  1363.01  1370.33  1371.17  1385.29
eigval :     1399.54  1400.13  1406.84  1407.67  1409.21  1421.31
eigval :     1422.86  1426.55  1428.31  1428.76  1430.82  1433.71
eigval :     1434.56  1467.65  1468.54  1476.87  1477.18  1481.41
eigval :     1481.69  1483.41  1483.62  1487.86  1488.77  1489.14
eigval :     1489.74  1492.62  1494.21  1497.67  1498.09  1498.61
eigval :     1500.37  1504.50  1507.95  1508.10  1510.68  1520.38
eigval :     1521.88  1552.60  1564.46  1565.32  1567.63  1569.30
eigval :     1573.79  1575.01  1575.59  1576.38  1587.58  1587.97
eigval :     1589.11  1589.18  1597.32  1599.18  1599.23  1599.29
eigval :     1601.70  1602.58  1604.26  1605.21  1615.13  1615.32
eigval :     1615.74  1615.88  2373.69  2374.02  2956.40  2957.24
eigval :     2959.96  2962.14  2965.84  2967.60  2968.39  2972.82
eigval :     2972.98  2979.38  2982.08  2983.74  2985.76  2990.45
eigval :     2991.45  2995.91  2997.03  2998.15  3000.31  3004.73
eigval :     3070.01  3072.36  3073.04  3074.25  3074.55  3074.85
eigval :     3075.66  3078.39  3078.63  3078.72  3078.87  3079.17
eigval :     3079.38  3080.02  3081.19  3081.43  3081.57  3082.73
eigval :     3082.76  3085.34  3086.00  3087.04  3087.20  3088.80
eigval :     3089.06  3089.69  3090.35  3092.91  3093.03  3093.63
eigval :     3093.72  3093.83  3094.10  3094.32  3095.70  3096.02
eigval :     3096.22  3097.06  3097.83  3098.11  3098.37  3099.18
eigval :     3099.53  3101.00  3103.84  3109.60  3117.46  3125.15

   temp. (K)  partition function   enthalpy   heat capacity  entropy
                                   cal/mol     cal/K/mol   cal/K/mol   J/K/mol
 298.15  VIB  0.192E+39            47459.422    299.347    298.548
         ROT  0.574E+09              888.752      2.981     43.061
         INT  0.110E+48            48348.174    302.328    341.608
         TR   0.431E+29             1481.254      4.968     47.243
         TOT                       49829.4283   307.2962   388.8516  1626.9549

       T/K    H(0)-H(T)+PV         H(T)/Eh          T*S/Eh         G(T)/Eh
   ------------------------------------------------------------------------
    298.15    0.794082E-01    0.139329E+01    0.184756E+00    0.120854E+01
   ------------------------------------------------------------------------

         :::::::::::::::::::::::::::::::::::::::::::::::::::::
         ::                  THERMODYNAMIC                  ::
         :::::::::::::::::::::::::::::::::::::::::::::::::::::
         :: total free energy        -248.163259589503 Eh   ::
         ::.................................................::
         :: total energy             -249.371796257733 Eh   ::
         :: zero point energy           1.313884340302 Eh   ::
         :: G(RRHO) w/o ZPVE           -0.105347672073 Eh   ::
         :: G(RRHO) contrib.            1.208536668229 Eh   ::
         :::::::::::::::::::::::::::::::::::::::::::::::::::::

           -------------------------------------------------
          | TOTAL ENERGY             -249.371796257733 Eh   |
          | TOTAL ENTHALPY           -247.978503668906 Eh   |
          | TOTAL FREE ENERGY        -248.163259589503 Eh   |
          | GRADIENT NORM               0.000198680956 Eh/α |
          | HOMO-LUMO GAP               1.337499612904 eV   |
           -------------------------------------------------

 * finished run on 2025/09/12 at 12:49:12.639
