   * xtb version 6.7.1 (edcfbbe) compiled by 'albert@albert-system' on 2024-07-22

   ID    Z sym.   atoms
    1    7 N      1, 6, 25, 51, 70, 98
    2    6 C      2-5, 7-24, 26-50, 52-69, 71-97
    3    1 H      99-166

          program call               : xtb data2507/gas/BPCP-2CPC/BPCP-2CPC_gas_S0_finalOpt.xtbopt.xyz --gfn 2 --spinpol --tblite --uhf 2 --ohess vtight --parallel 40 --molden --ceasefiles --namespace data2507/gas/BPCP-2CPC/BPCP-2CPC_gas_T1_preOpt
 * total energy  :  -249.2840767 Eh     change        0.2038774E-08 Eh
 * total energy  :  -249.2875107 Eh     change       -0.3433945E-02 Eh
 * total energy  :  -249.2882850 Eh     change       -0.7742994E-03 Eh
 * total energy  :  -249.2885416 Eh     change       -0.2566256E-03 Eh
 * total energy  :  -249.2887063 Eh     change       -0.1647445E-03 Eh
 * total energy  :  -249.2886740 Eh     change        0.3237160E-04 Eh
 * total energy  :  -249.2887418 Eh     change       -0.6780461E-04 Eh
 * total energy  :  -249.2887543 Eh     change       -0.1252785E-04 Eh
 * total energy  :  -249.2887706 Eh     change       -0.1632053E-04 Eh
 * total energy  :  -249.2887756 Eh     change       -0.5013050E-05 Eh
 * total energy  :  -249.2888357 Eh     change       -0.5615300E-06 Eh
 * total energy  :  -249.2888361 Eh     change       -0.4198561E-06 Eh
 * total energy  :  -249.2888366 Eh     change       -0.5437542E-06 Eh
 * total energy  :  -249.2888370 Eh     change       -0.4116441E-06 Eh
 * total energy  :  -249.2888373 Eh     change       -0.2615675E-06 Eh
 * total energy  :  -249.2888376 Eh     change       -0.2785960E-06 Eh
 * total energy  :  -249.2888381 Eh     change       -0.4930118E-06 Eh
 * total energy  :  -249.2888386 Eh     change       -0.4875204E-06 Eh
 * total energy  :  -249.2888386 Eh     change       -0.5643275E-07 Eh
   *** GEOMETRY OPTIMIZATION CONVERGED AFTER 60 ITERATIONS ***

 final structure:
================
166
 xtb: 6.7.1 (edcfbbe)
N            9.92785416996860        6.23668378881987       -1.82791835113809
C            9.34041708476178        5.43843720665027       -1.23320305053470
C            8.62380954578817        4.45996052843828       -0.55687728830753
C            7.48700401969077        3.89703464205971       -1.13084985735458
C            6.72113664872616        2.95846766162760       -0.47118349446240
N            5.55577056442900        2.45975934399492       -1.05129130791937
C            5.48621996625582        1.81671509965864       -2.27761859614485
C            6.44564582888061        1.70626196409942       -3.27271194361521
C            6.13049382649169        0.96281133096843       -4.39620016995802
C            4.89119499628209        0.34301281721422       -4.53130448675646
C            3.93927026986935        0.42949395749392       -3.53161297845536
C            4.23859096947360        1.15659214727841       -2.38960743201325
C            3.52247114735519        1.42125879779462       -1.17211099197642
C            2.29925207420303        1.01229639227154       -0.67740120038293
C            1.86961126850869        1.48543730055942        0.56273530242605
C            0.58771623422017        1.05924590485026        1.12610741225944
C            0.39577488599972        0.97932100173233        2.50494510713136
C           -0.83163497353812        0.63787786456374        3.04177952384084
C           -1.91872428344358        0.34842665967696        2.22769280621459
C           -3.31997326861430        0.00182948334303        2.71582640496834
C           -4.26096371646922        0.89576629735124        1.92094255401547
C           -5.30679292048361        0.42129647671875        1.14186802043915
C           -6.10993777648509        1.28931013858983        0.42551703109134
C           -5.89526367941830        2.66027751277510        0.48634617434367
N           -6.70925156081806        3.53548618716667       -0.24488058684578
C           -6.26774615968779        4.54864772554246       -1.07116326292336
C           -4.97133754340909        4.91153332594683       -1.40997693553109
C           -4.80622325221109        5.96479504973953       -2.28947591132489
C           -5.89832638551963        6.63906021439497       -2.83046523903710
C           -7.19146590622769        6.26457931814855       -2.51814196825349
C           -7.38267393076273        5.20979387367898       -1.63729831941373
C           -8.55189998429091        4.55384825954210       -1.11863616766833
C           -9.91405306292036        4.75341312152179       -1.29108542415491
C          -10.79417473506132        3.93363401899964       -0.61042930923680
C          -10.32985543249380        2.93705857864010        0.24467898440070
C           -8.97809949525995        2.72018600887207        0.43358626249082
C           -8.08883416403924        3.52401059399410       -0.26668508009656
C           -4.86157162543589        3.14995616095019        1.28105180071567
C           -4.05632020485450        2.27395426331386        1.97762570807881
C           -3.55657199477872       -1.49187167880897        2.44511271380723
C           -2.56735425814917       -2.36451441717679        3.21985024788947
C           -2.42284025602865       -1.92154364867508        4.68361190429590
C           -3.55524261089100       -0.98481848894150        5.08552091491779
C           -3.58629892814886        0.27645020020380        4.21752665946859
C           -1.71472031711881        0.38843322092545        0.84765869321763
C           -0.49723720428664        0.73893045107463        0.30730096174337
C            2.66595734117314        2.41478558237372        1.25585974065912
C            3.89854551401591        2.81491520130286        0.79126593678277
C            4.35969436971366        2.26183221394593       -0.39762101557160
C            7.13470945621627        2.50927839483847        0.85678785647702
N            6.41269706138679        1.51636082380895        1.51848071323060
C            5.82297796862924        1.65751672983548        2.76449504375382
C            5.97742673468512        2.66399444396509        3.70639667938248
C            5.21424242636262        2.59513766988261        4.85797623310711
C            4.31195624788641        1.55566073541801        5.06970396988404
C            4.13732449344282        0.56095231194172        4.12496545962581
C            4.89144438077834        0.60970303725664        2.96262793601258
C            4.93474627749427       -0.20687747083930        1.78170070926550
C            4.22395792263810       -1.31532753679466        1.36197003304909
C            4.49364823423002       -1.85629466568112        0.10756911513194
C            3.66117672430333       -2.94595932616788       -0.40864303871158
C            3.28861577200069       -4.02342791293314        0.38823489521332
C            2.44970594213453       -5.00849394660880       -0.09613665377742
C            1.92732459244745       -4.94915533200016       -1.38585521200133
C            0.88809210945561       -5.93843379926601       -1.89680851455326
C           -0.46084125578286       -5.25384477633094       -1.69655657847043
C           -0.74985652724684       -4.70108356362844       -0.45064694400459
C           -1.96256317420959       -4.10002212755729       -0.18983063067519
C           -2.94104925995225       -4.04392851798248       -1.17690510135972
N           -4.19061114186826       -3.46989603812300       -0.89831846437367
C           -4.99109550925770       -3.78768997479998        0.18087531918032
C           -4.77624377982861       -4.69823991815045        1.20617550252316
C           -5.75169236988241       -4.81898280896047        2.17708805949941
C           -6.92265053806899       -4.06517571409065        2.13111360197223
C           -7.15852994705697       -3.18353718604940        1.09505911667079
C           -6.19205211375375       -3.04431003322842        0.10741514132544
C           -6.10364896522263       -2.24342554934617       -1.08192998743185
C           -6.95463615251058       -1.32279165225212       -1.67881339058176
C           -6.53296435376812       -0.67893518019768       -2.82521342783588
C           -5.27805720492535       -0.93941530093538       -3.37151513326284
C           -4.42168826033669       -1.86479669641840       -2.80643513121501
C           -4.84849284530885       -2.53118085458983       -1.66637076156267
C           -2.66344132415090       -4.57919788407252       -2.42848774127696
C           -1.43706489287179       -5.16908222442037       -2.68150365494131
C            1.15089674313274       -6.32349077279093       -3.36248951359680
C            2.49130477282693       -7.03895796593574       -3.50420499159692
C            2.47169879095812       -8.33915617953950       -2.70871127557445
C            2.16434471734856       -8.04621362469982       -1.24467864160365
C            0.85946589710595       -7.26421939516065       -1.10709823971992
C            2.30287695909885       -3.86510980869825       -2.17621231262603
C            3.16757612831322       -2.89633305452341       -1.70986813359974
C            5.53645608715333       -1.33192733459826       -0.67062259578364
C            6.26691231423186       -0.23750858606615       -0.26209714123227
C            5.90868147553538        0.37423793193350        0.93371005449012
C            8.25493842299703        3.06561020809625        1.43590019574580
C            9.03055489075327        4.01982128541611        0.78058860452694
C           10.17814941322817        4.52293534687718        1.37804280937663
N           11.11739331328013        4.93902595096740        1.90820824747784
H            7.16736006235396        4.25311832527062       -2.10033028959023
H            7.41250318399950        2.17598854088490       -3.17892471668486
H            6.86084086410509        0.86475596331376       -5.18482130153156
H            4.67686873176809       -0.21850690402522       -5.42835538427555
H            2.97995054481136       -0.05552625012913       -3.63468848239944
H            1.69804053056406        0.31260753374088       -1.23712617975288
H            1.22336931147926        1.17800458834129        3.17048136595739
H           -0.92213226073452        0.60821443819458        4.11648283893391
H           -5.50528897707948       -0.63486307351682        1.06596202802095
H           -6.89061279389136        0.89881550350522       -0.20814956874059
H           -4.11928995167885        4.38250583635727       -1.01078999300979
H           -3.80771416099615        6.26923127112216       -2.56580652328798
H           -5.72758057561570        7.45948955444355       -3.51115194676938
H           -8.03734930800632        6.77647248890118       -2.95119312254805
H          -10.27459449753836        5.53644176314846       -1.94065573443234
H          -11.85809289307570        4.07063970360073       -0.73272085438881
H          -11.04225469755898        2.32304593215136        0.77548266025387
H           -8.62731412428174        1.95908027089036        1.11385672270646
H           -4.70223884021093        4.21517940525080        1.35576637926073
H           -3.24911347304917        2.66441168336704        2.57974941253816
H           -4.57436569249990       -1.75593207824374        2.73524864005253
H           -3.44973295132258       -1.69277662595617        1.37808451937079
H           -2.92097800905233       -3.39704209024323        3.17556412001393
H           -1.59067290104940       -2.32379048409669        2.73208761095452
H           -2.42198003478252       -2.79279562674763        5.34096951826082
H           -1.46963530802490       -1.41170116766966        4.82453238464621
H           -3.44195250975362       -0.69455880254506        6.13220517725562
H           -4.50425865512581       -1.51709925976340        4.99906514586461
H           -2.87033258597421        1.00549780957202        4.59551602924261
H           -4.57510553382749        0.73177277135698        4.31445391693040
H           -2.53745242309071        0.16560265850237        0.18236818475092
H           -0.39815669935317        0.80069854601626       -0.76597822587623
H            2.29307857924778        2.84729606776208        2.17124342636915
H            4.48259243969809        3.54469311555711        1.33183562438324
H            6.66174785678115        3.48337035584360        3.54938299756959
H            5.31968593204743        3.36572392926199        5.60644150965056
H            3.73642909940301        1.53492116396548        5.98321870068681
H            3.42539578312537       -0.23588500884526        4.27989430762887
H            3.44068805187122       -1.73024474741292        1.97805475518899
H            3.67271394954681       -4.09938482004521        1.39545001936204
H            2.19837642288101       -5.82417226585687        0.56353963624715
H           -0.00795795216866       -4.72615161839531        0.33259856886477
H           -2.15170980135077       -3.66305512940130        0.77759369521616
H           -3.88155327742830       -5.30108204127644        1.23990848210850
H           -5.60501734188719       -5.51605045985310        2.98891943749149
H           -7.65834726831977       -4.18440369265628        2.91240851563495
H           -8.07393850043901       -2.61284342420225        1.04869889617849
H           -7.92685676358897       -1.12159795900653       -1.25311836876174
H           -7.17772424049207        0.04300104518898       -3.30416805740193
H           -4.96916553172777       -0.40701238801117       -4.25882824906270
H           -3.44838002808501       -2.05560302494944       -3.23280662239353
H           -3.41782810483389       -4.55059651166568       -3.20084889319865
H           -1.26412947475419       -5.57435628964205       -3.66529809973732
H            1.12397391996339       -5.44850870543453       -4.01165192867842
H            0.36576366797484       -7.00718686168208       -3.69261348963673
H            3.29401718178811       -6.39511241107056       -3.13817826088417
H            2.68310620124853       -7.25015764941271       -4.55843353997103
H            3.43448541331150       -8.84683135374538       -2.79213735993599
H            1.70658711996112       -9.00332500908733       -3.11866195123733
H            2.08387197230509       -8.98153171174454       -0.68603252636519
H            2.98968477810311       -7.47199096655678       -0.82088975366548
H            0.03928363485698       -7.86786369894345       -1.50544955059535
H            0.63399711972183       -7.08332745461436       -0.05545488510481
H            1.90528750940025       -3.75811277153041       -3.17359862894839
H            3.43900102048178       -2.06543155277056       -2.34429050330798
H            5.77954127239360       -1.80894952624272       -1.60811455105921
H            7.08514476427211        0.13662071325646       -0.85904497351470
H            8.57872181524674        2.71402806537614        2.40563123824853

 projected vibrational frequencies (cm⁻¹)
eigval :       -0.00    -0.00    -0.00     0.00     0.00     0.00
eigval :       -3.06     6.24     7.04     7.83    13.89    16.89
eigval :       17.46    19.90    22.86    29.02    33.57    35.69
eigval :       37.05    40.56    45.72    48.86    51.71    53.42
eigval :       56.80    64.58    66.45    68.10    73.86    77.26
eigval :       81.01    83.27    84.26    91.45    96.98   101.63
eigval :      104.22   107.72   107.94   118.20   119.85   126.22
eigval :      134.92   139.69   140.53   146.62   147.85   150.64
eigval :      153.06   156.67   158.37   165.59   169.32   175.37
eigval :      183.61   190.53   198.37   200.84   210.28   219.37
eigval :      228.44   233.15   239.98   242.73   244.27   254.00
eigval :      265.49   269.39   271.11   273.93   279.14   284.27
eigval :      291.66   294.55   305.67   312.27   317.96   325.89
eigval :      331.21   343.11   351.39   355.92   361.47   371.79
eigval :      373.11   374.46   378.92   379.75   380.48   381.79
eigval :      383.83   391.50   394.28   396.45   398.98   401.33
eigval :      404.18   408.80   414.81   416.81   417.55   420.13
eigval :      423.89   424.16   428.36   437.41   439.57   440.07
eigval :      443.29   445.28   455.97   462.60   464.03   470.22
eigval :      478.27   478.69   487.36   506.60   509.20   516.89
eigval :      517.44   518.79   526.52   530.62   532.82   535.84
eigval :      537.52   539.22   539.88   540.37   542.85   544.60
eigval :      548.63   552.00   569.91   576.85   583.29   584.11
eigval :      587.43   590.64   592.97   597.48   598.32   600.40
eigval :      601.15   610.57   612.85   616.13   618.77   621.09
eigval :      627.26   629.19   634.38   641.14   650.65   670.11
eigval :      672.23   673.92   674.35   681.03   686.58   690.26
eigval :      692.52   702.43   703.03   703.46   704.82   707.92
eigval :      709.03   715.32   717.53   730.00   737.98   741.40
eigval :      756.77   757.29   769.63   771.16   773.16   774.18
eigval :      779.92   781.71   795.64   804.41   805.88   810.22
eigval :      815.41   817.62   820.56   825.21   827.27   832.81
eigval :      835.41   842.39   853.41   863.61   865.09   865.18
eigval :      866.06   866.55   870.17   872.83   873.22   874.58
eigval :      876.14   878.01   879.44   880.68   889.42   890.03
eigval :      892.57   897.39   897.75   898.30   903.11   903.43
eigval :      903.88   903.91   905.72   907.10   907.72   912.96
eigval :      915.96   916.41   917.86   918.58   919.06   920.29
eigval :      920.79   921.18   922.13   923.82   924.82   925.73
eigval :      926.38   929.95   932.17   933.02   933.23   934.14
eigval :      940.86   941.62   953.45   954.92   958.90   974.08
eigval :      974.56   979.50   993.93   996.49  1004.61  1007.02
eigval :     1011.72  1011.78  1022.55  1023.35  1034.76  1035.65
eigval :     1066.18  1069.20  1069.44  1070.01  1070.49  1072.83
eigval :     1073.11  1074.63  1083.44  1090.04  1094.22  1100.05
eigval :     1112.34  1118.51  1119.47  1123.03  1127.27  1130.59
eigval :     1136.72  1138.52  1140.99  1143.49  1147.54  1148.04
eigval :     1150.02  1150.67  1151.74  1153.95  1157.82  1159.86
eigval :     1164.96  1168.61  1169.62  1170.81  1176.11  1176.73
eigval :     1179.71  1179.94  1181.09  1182.90  1183.91  1185.89
eigval :     1199.51  1201.79  1205.45  1205.73  1208.86  1210.85
eigval :     1214.41  1215.46  1217.54  1218.65  1223.20  1224.35
eigval :     1228.81  1231.97  1234.28  1236.01  1245.09  1246.22
eigval :     1248.03  1251.62  1253.40  1254.79  1256.97  1258.13
eigval :     1259.08  1273.26  1274.50  1275.68  1277.15  1281.17
eigval :     1282.70  1284.85  1287.94  1294.55  1296.92  1297.13
eigval :     1299.83  1302.53  1307.49  1315.61  1317.52  1319.57
eigval :     1319.89  1323.61  1326.87  1328.40  1331.79  1332.19
eigval :     1336.50  1340.33  1341.39  1344.50  1345.32  1346.74
eigval :     1351.95  1353.00  1354.68  1355.35  1356.40  1357.34
eigval :     1358.87  1359.37  1359.55  1362.26  1365.44  1367.17
eigval :     1368.58  1398.29  1400.09  1402.01  1406.25  1406.76
eigval :     1407.91  1414.48  1420.20  1420.68  1424.54  1425.47
eigval :     1428.70  1431.50  1436.61  1441.19  1456.55  1457.63
eigval :     1468.76  1473.79  1478.18  1478.75  1483.02  1485.41
eigval :     1486.66  1487.53  1489.29  1490.12  1492.55  1493.82
eigval :     1494.15  1497.13  1502.71  1504.66  1505.24  1508.60
eigval :     1520.47  1520.49  1543.54  1548.33  1550.54  1557.54
eigval :     1559.06  1561.87  1565.16  1566.30  1572.08  1573.94
eigval :     1575.62  1576.63  1583.65  1585.27  1587.26  1588.02
eigval :     1588.95  1595.78  1596.44  1599.20  1600.54  1602.24
eigval :     1609.39  1611.93  2241.74  2255.01  2956.68  2957.89
eigval :     2960.39  2961.78  2965.95  2969.18  2969.43  2973.71
eigval :     2973.76  2980.90  2982.51  2984.29  2986.97  2991.94
eigval :     2991.99  2995.53  2996.08  2997.38  3003.46  3006.93
eigval :     3067.81  3074.71  3075.15  3076.75  3077.89  3078.66
eigval :     3078.95  3079.07  3079.35  3079.96  3079.99  3080.24
eigval :     3082.06  3082.62  3082.90  3083.43  3084.01  3084.57
eigval :     3085.77  3085.85  3087.30  3087.41  3087.61  3087.82
eigval :     3090.25  3090.39  3091.26  3092.73  3093.62  3093.73
eigval :     3094.68  3095.07  3095.22  3095.36  3095.60  3095.84
eigval :     3096.78  3097.04  3098.00  3098.76  3100.58  3100.87
eigval :     3102.03  3102.60  3105.00  3111.22  3118.07  3124.05

   temp. (K)  partition function   enthalpy   heat capacity  entropy
                                   cal/mol     cal/K/mol   cal/K/mol   J/K/mol
 298.15  VIB  0.284E+39            47739.860    300.885    300.063
         ROT  0.567E+09              888.752      2.981     43.035
         INT  0.161E+48            48628.613    303.866    343.098
         TR   0.431E+29             1481.254      4.968     47.243
         TOT                       50109.8665   308.8342   390.3412  1633.1875

       T/K    H(0)-H(T)+PV         H(T)/Eh          T*S/Eh         G(T)/Eh
   ------------------------------------------------------------------------
    298.15    0.798552E-01    0.138939E+01    0.185464E+00    0.120392E+01
   ------------------------------------------------------------------------

         :::::::::::::::::::::::::::::::::::::::::::::::::::::
         ::                  THERMODYNAMIC                  ::
         :::::::::::::::::::::::::::::::::::::::::::::::::::::
         :: total free energy        -248.084915219445 Eh   ::
         ::.................................................::
         :: total energy             -249.288838425060 Eh   ::
         :: zero point energy           1.309531736831 Eh   ::
         :: G(RRHO) w/o ZPVE           -0.105608531216 Eh   ::
         :: G(RRHO) contrib.            1.203923205615 Eh   ::
         :::::::::::::::::::::::::::::::::::::::::::::::::::::

           -------------------------------------------------
          | TOTAL ENERGY             -249.288838425060 Eh   |
          | TOTAL ENTHALPY           -247.899451532963 Eh   |
          | TOTAL FREE ENERGY        -248.084915219445 Eh   |
          | GRADIENT NORM               0.000074511622 Eh/α |
           -------------------------------------------------

 * finished run on 2025/09/12 at 12:50:36.380
