   * xtb version 6.7.1 (edcfbbe) compiled by 'albert@albert-system' on 2024-07-22

   ID    Z sym.   atoms
    1    6 C      1-9, 12-18, 21-31, 33, 35, 36
    2    7 N      10, 11, 19, 20
    3    8 O      32, 34
    4    1 H      37-66

          program call               : xtb data2507/gas/OXD-7/OXD-7_gas_S0_crest.xyz --gfn 2 --ohess vtight --parallel 40 --molden --ceasefiles --namespace data2507/gas/OXD-7/OXD-7_gas_S0_finalOpt
          :  Hamiltonian                  GFN2-xTB          :
 * total energy  :   -99.3936497 Eh     change       -0.8556924E-09 Eh
 * total energy  :   -99.3936524 Eh     change       -0.2741970E-05 Eh
 * total energy  :   -99.3936533 Eh     change       -0.8729300E-06 Eh
 * total energy  :   -99.3936544 Eh     change       -0.1155407E-05 Eh
 * total energy  :   -99.3936556 Eh     change       -0.1148876E-05 Eh
 * total energy  :   -99.3936566 Eh     change       -0.1000087E-05 Eh
 * total energy  :   -99.3936576 Eh     change       -0.9893115E-06 Eh
 * total energy  :   -99.3936585 Eh     change       -0.8688251E-06 Eh
 * total energy  :   -99.3936591 Eh     change       -0.6223585E-06 Eh
 * total energy  :   -99.3936596 Eh     change       -0.5594863E-06 Eh
 * total energy  :   -99.3936625 Eh     change       -0.6457123E-06 Eh
 * total energy  :   -99.3936629 Eh     change       -0.4206006E-06 Eh
 * total energy  :   -99.3936633 Eh     change       -0.3667829E-06 Eh
 * total energy  :   -99.3936637 Eh     change       -0.3944205E-06 Eh
 * total energy  :   -99.3936640 Eh     change       -0.3116207E-06 Eh
 * total energy  :   -99.3936642 Eh     change       -0.2250029E-06 Eh
 * total energy  :   -99.3936645 Eh     change       -0.2310259E-06 Eh
 * total energy  :   -99.3936647 Eh     change       -0.2521477E-06 Eh
 * total energy  :   -99.3936647 Eh     change       -0.3689635E-08 Eh
   *** GEOMETRY OPTIMIZATION CONVERGED AFTER 22 ITERATIONS ***

 final structure:
================
66
 xtb: 6.7.1 (edcfbbe)
C           -9.64962775841786       -2.33549736156999        1.27501776273874
C           -9.35981337023976       -1.49169173347696        0.02532021272481
C           -9.68913357184245       -2.30051135620356       -1.23757450062594
C          -10.27222181908487       -0.26253819001280        0.05668203881016
C           -7.88443039733942       -1.12848438345615        0.00827272120341
C           -6.92831352217335       -2.14539439218520       -0.02227940292303
C           -5.57894395496445       -1.86938043026559       -0.03584979237302
C           -5.13960828456993       -0.54577519239521       -0.01896859957564
C           -3.72609830680042       -0.26232542003054       -0.02971949613952
N           -2.75387846808826       -1.12912717301866       -0.05262036705217
N           -1.60650958271050       -0.44215265447597       -0.05127633561380
C           -1.91061973335254        0.82300628278211       -0.02783172562796
C           -0.99017563857603        1.93634358167519       -0.01578516053315
C           -1.45743808232843        3.25009630887946       -0.00060172566318
C           -0.55772186621886        4.30207765377351        0.01209357543780
C            0.80243917990557        4.05929545346467        0.01074869950929
C            1.27324535677840        2.74413598516177       -0.00399135656589
C            2.69795978608544        2.50318395264882       -0.00150375629145
N            3.64313599108247        3.39803631322861        0.01506398613853
N            4.81044857829094        2.74548875079562        0.01503997154313
C            4.54208475630631        1.47004457948599       -0.00169730639323
C            5.48983999072027        0.38354603461847       -0.00532351851853
C            5.06379370613216       -0.94107795713602       -0.03332856836349
C            5.98769931586520       -1.96866227250722       -0.03341651013820
C            7.35474780101749       -1.71238865134550       -0.00511135393700
C            8.40080981756041       -2.81465207273759        0.00018267507269
C            9.30520789463276       -2.65143609339605       -1.22985098728944
C            9.23813597969445       -2.69806800910505        1.28200999293442
C            7.78513094104140       -4.21583793717122       -0.04284520798036
C            7.76498952202951       -0.37814496324414        0.02231342440939
C            6.85701394288109        0.65766272681027        0.02192364115296
O            3.20681232075977        1.24964401707437       -0.01330937977945
C            0.37829885772469        1.68146488438114       -0.01790247317658
O           -3.25237246752857        1.00674642948999       -0.01332534944227
C           -6.07979017570077        0.47972336706839        0.01022410583425
C           -7.43002380580160        0.18623936393550        0.02347420486138
H           -9.07715162151619       -3.25861933224511        1.27325326321209
H           -9.39422456146723       -1.77747677383062        2.17344612344357
H          -10.70636171169095       -2.59024988549977        1.31583424314629
H          -10.74672511094331       -2.55458956699584       -1.25194727042926
H           -9.46216962671923       -1.71755612509105       -2.12775159830528
H           -9.11739076243895       -3.22310902686770       -1.27970941986007
H          -10.09763734557276        0.33315425785623        0.94965791036049
H          -11.31140592032138       -0.58458638540375        0.06744370649358
H          -10.12385263278292        0.35885532756585       -0.82343456497687
H           -7.24113381103793       -3.17811606755362       -0.03536658862353
H           -4.84506608082797       -2.65907322174839       -0.05892666678194
H           -2.52068994930282        3.43704905813024        0.00115092211041
H           -0.92241459389678        5.31804434364859        0.02356201674165
H            1.51948918273356        4.86434110943734        0.02132906625124
H            4.00717161322067       -1.16309728781711       -0.05490383724852
H            5.61977495890560       -2.98115208458554       -0.05560291559324
H           10.05005460407087       -3.44393750689911       -1.25242566848404
H            8.71400295114528       -2.70740955879820       -2.14147617932727
H            9.82451964473812       -1.69747047204800       -1.21867401505534
H            8.59971228814132       -2.79164750391691        2.15803681440072
H            9.75198933130599       -1.74252705760296        1.33572035763723
H            9.98465631711760       -3.48869895354247        1.31300826315797
H            7.15615422407806       -4.39509117702071        0.82598288746334
H            7.19685185434553       -4.35806806891750       -0.94637146669263
H            8.57942823721542       -4.95943135680201       -0.03990651113003
H            8.81700913262457       -0.13855865254068        0.04506410780923
H            7.17964133904753        1.68638868040128        0.04326946073027
H            0.72256452683114        0.65965292817573       -0.02945309862300
H           -5.74952268066559        1.50796802842724        0.02316807018932
H           -8.12758382710762        1.00723945114510        0.04655431171711

          :  Hamiltonian                  GFN2-xTB          :
         :: gradient norm              0.000038163767 Eh/a0 ::
         :: HOMO-LUMO gap              2.626882164587 eV    ::
         :: SCC energy              -100.940932284513 Eh    ::
         :: -> dispersion             -0.072166557379 Eh    ::
         :: repulsion energy           1.547267550401 Eh    ::

    * Orbital Energies and Occupations

         #    Occupation            Energy/Eh            Energy/eV
      -------------------------------------------------------------
         1        2.0000           -0.7678626             -20.8946
       ...           ...                  ...                  ...
        79        2.0000           -0.4248051             -11.5595
        80        2.0000           -0.4232941             -11.5184
        81        2.0000           -0.4225003             -11.4968
        82        2.0000           -0.4197424             -11.4218
        83        2.0000           -0.4193035             -11.4098
        84        2.0000           -0.4191223             -11.4049
        85        2.0000           -0.4163039             -11.3282
        86        2.0000           -0.4156659             -11.3108
        87        2.0000           -0.4113595             -11.1937
        88        2.0000           -0.3940053             -10.7214
        89        2.0000           -0.3896316             -10.6024
        90        2.0000           -0.3860394             -10.5047
        91        2.0000           -0.3830788             -10.4241 (HOMO)
        92                         -0.2865426              -7.7972 (LUMO)
        93                         -0.2773616              -7.5474
        94                         -0.2582937              -7.0285
        95                         -0.2537119              -6.9039
        96                         -0.2324408              -6.3250
        97                         -0.2280975              -6.2068
        98                         -0.2080342              -5.6609
        99                         -0.1841528              -5.0111
       100                         -0.1803557              -4.9077
       101                         -0.1664521              -4.5294
       102                         -0.0905605              -2.4643
       ...                                ...                  ...
       174                          0.6620868              18.0163
      -------------------------------------------------------------
                  HL-Gap            0.0965362 Eh            2.6269 eV

     #   Z          covCN         q      C6AA      α(0)
     1   6 C        3.762    -0.107    22.595     6.776
     2   6 C        3.903     0.026    20.083     6.370
     3   6 C        3.762    -0.107    22.596     6.776
     4   6 C        3.761    -0.109    22.636     6.782
     5   6 C        2.973     0.017    27.628     8.622
     6   6 C        2.926    -0.031    28.768     8.796
     7   6 C        2.923    -0.030    28.746     8.792
     8   6 C        2.975    -0.009    28.234     8.716
     9   6 C        3.171     0.215    23.152     7.860
    10   7 N        2.049    -0.198    26.026     7.567
    11   7 N        2.048    -0.196    25.974     7.560
    12   6 C        3.173     0.213    23.187     7.865
    13   6 C        2.974    -0.001    28.037     8.685
    14   6 C        2.923    -0.024    28.604     8.771
    15   6 C        2.918    -0.023    28.582     8.767
    16   6 C        2.924    -0.025    28.634     8.775
    17   6 C        2.974     0.003    27.955     8.673
    18   6 C        3.175     0.212    23.189     7.864
    19   7 N        2.048    -0.195    25.963     7.558
    20   7 N        2.049    -0.199    26.033     7.568
    21   6 C        3.173     0.215    23.133     7.856
    22   6 C        2.975    -0.009    28.230     8.715
    23   6 C        2.922    -0.028    28.704     8.786
    24   6 C        2.924    -0.037    28.924     8.820
    25   6 C        2.973     0.017    27.630     8.622
    26   6 C        3.903     0.026    20.084     6.370
    27   6 C        3.762    -0.107    22.594     6.776
    28   6 C        3.762    -0.107    22.593     6.776
    29   6 C        3.761    -0.109    22.640     6.783
    30   6 C        2.926    -0.031    28.776     8.797
    31   6 C        2.923    -0.030    28.750     8.793
    32   8 O        1.722    -0.222    17.678     5.677
    33   6 C        2.930    -0.027    28.674     8.782
    34   8 O        1.722    -0.227    17.762     5.690
    35   6 C        2.922    -0.028    28.710     8.787
    36   6 C        2.924    -0.037    28.932     8.821
    37   1 H        0.925     0.039     2.461     2.453
    38   1 H        0.925     0.036     2.507     2.476
    39   1 H        0.925     0.041     2.433     2.439
    40   1 H        0.925     0.041     2.433     2.439
    41   1 H        0.925     0.036     2.506     2.476
    42   1 H        0.925     0.039     2.461     2.453
    43   1 H        0.925     0.037     2.484     2.465
    44   1 H        0.925     0.040     2.453     2.449
    45   1 H        0.925     0.037     2.484     2.465
    46   1 H        0.926     0.042     2.426     2.436
    47   1 H        0.926     0.058     2.218     2.329
    48   1 H        0.926     0.052     2.298     2.371
    49   1 H        0.926     0.049     2.328     2.386
    50   1 H        0.926     0.069     2.101     2.267
    51   1 H        0.926     0.046     2.374     2.409
    52   1 H        0.926     0.046     2.367     2.406
    53   1 H        0.925     0.041     2.439     2.442
    54   1 H        0.925     0.036     2.505     2.475
    55   1 H        0.925     0.039     2.465     2.455
    56   1 H        0.925     0.036     2.506     2.475
    57   1 H        0.925     0.039     2.465     2.455
    58   1 H        0.925     0.041     2.438     2.442
    59   1 H        0.925     0.038     2.478     2.462
    60   1 H        0.925     0.038     2.478     2.462
    61   1 H        0.925     0.039     2.458     2.452
    62   1 H        0.926     0.041     2.436     2.441
    63   1 H        0.926     0.058     2.226     2.333
    64   1 H        0.926     0.072     2.059     2.244
    65   1 H        0.926     0.041     2.430     2.438
    66   1 H        0.926     0.045     2.385     2.415

molecular dipole:
                 x           y           z       tot (Debye)
 q only:       -0.874      -0.652       0.018
   full:       -1.495      -0.601       0.021       4.095

 projected vibrational frequencies (cm⁻¹)
eigval :       -0.00    -0.00    -0.00    -0.00     0.00     0.00
eigval :       11.20    13.81    15.24    22.02    28.05    39.07
eigval :       51.27    52.53    57.61    60.58    79.07    86.49
eigval :       98.91   132.71   132.83   140.73   170.88   175.41
eigval :      176.62   189.74   215.42   216.65   235.24   236.74
eigval :      239.92   240.71   288.43   298.66   302.48   309.39
eigval :      315.86   316.17   327.61   344.20   365.26   365.40
eigval :      371.68   375.20   375.37   407.85   409.75   428.13
eigval :      430.44   431.51   445.97   453.88   460.23   489.15
eigval :      516.67   530.53   536.54   550.71   594.29   594.74
eigval :      605.80   605.86   645.55   652.26   683.97   684.51
eigval :      701.34   720.76   723.70   728.67   739.43   753.53
eigval :      778.99   804.07   821.96   822.95   870.81   871.29
eigval :      883.22   883.60   889.13   903.39   916.50   917.90
eigval :      930.51   931.04   931.11   952.81   961.03   961.05
eigval :      962.53   962.69   964.03   964.10   967.87   968.61
eigval :      992.70   994.96  1013.34  1016.20  1035.27  1035.28
eigval :     1035.33  1035.50  1086.98  1089.70  1099.41  1106.48
eigval :     1119.34  1137.96  1138.06  1145.91  1146.18  1178.35
eigval :     1181.95  1185.73  1204.88  1206.27  1226.98  1227.01
eigval :     1232.88  1233.52  1234.15  1265.61  1274.65  1275.40
eigval :     1278.50  1285.27  1301.17  1312.27  1323.17  1328.59
eigval :     1328.83  1334.00  1398.75  1398.78  1406.25  1406.53
eigval :     1409.85  1409.95  1415.22  1429.83  1429.96  1442.55
eigval :     1467.64  1468.18  1490.80  1490.82  1492.99  1493.15
eigval :     1499.87  1499.89  1504.19  1504.25  1514.42  1514.58
eigval :     1518.68  1518.69  1533.96  1536.62  1539.26  1539.83
eigval :     1570.12  1570.55  1575.72  1584.27  1597.64  1597.96
eigval :     3025.37  3025.70  3027.30  3027.74  3029.56  3029.75
eigval :     3033.08  3033.17  3034.05  3034.41  3037.84  3038.18
eigval :     3040.79  3040.97  3049.69  3050.08  3053.23  3053.59
eigval :     3086.45  3088.76  3089.34  3090.54  3091.42  3099.36
eigval :     3111.98  3112.62  3116.70  3116.80  3117.19  3118.42

   temp. (K)  partition function   enthalpy   heat capacity  entropy
                                   cal/mol     cal/K/mol   cal/K/mol   J/K/mol
 298.15  VIB  0.323E+16            19201.877    115.880    120.731
         ROT  0.712E+08              888.752      2.981     38.912
         INT  0.230E+24            20090.630    118.861    159.643
         TR   0.101E+29             1481.254      4.968     44.365
         TOT                       21571.8835   123.8288   204.0079   853.5689

       T/K    H(0)-H(T)+PV         H(T)/Eh          T*S/Eh         G(T)/Eh
   ------------------------------------------------------------------------
    298.15    0.343770E-01    0.563244E+00    0.969307E-01    0.466313E+00
   ------------------------------------------------------------------------

         :::::::::::::::::::::::::::::::::::::::::::::::::::::
         ::                  THERMODYNAMIC                  ::
         :::::::::::::::::::::::::::::::::::::::::::::::::::::
         :: total free energy         -98.927351618300 Eh   ::
         ::.................................................::
         :: total energy              -99.393664734113 Eh   ::
         :: zero point energy           0.528866854157 Eh   ::
         :: G(RRHO) w/o ZPVE           -0.062553738343 Eh   ::
         :: G(RRHO) contrib.            0.466313115813 Eh   ::
         :::::::::::::::::::::::::::::::::::::::::::::::::::::

           -------------------------------------------------
          | TOTAL ENERGY              -99.393664734113 Eh   |
          | TOTAL ENTHALPY            -98.830420895392 Eh   |
          | TOTAL FREE ENERGY         -98.927351618300 Eh   |
          | GRADIENT NORM               0.000038156935 Eh/α |
          | HOMO-LUMO GAP               2.626882386291 eV   |
           -------------------------------------------------

 * finished run on 2025/09/13 at 10:34:22.281
