   * xtb version 6.7.1 (edcfbbe) compiled by 'albert@albert-system' on 2024-07-22

   ID    Z sym.   atoms
    1    6 C      1-9, 12-18, 21-31, 33, 35, 36
    2    7 N      10, 11, 19, 20
    3    8 O      32, 34
    4    1 H      37-66

          program call               : xtb data2507/gas/OXD-7/OXD-7_gas_T1_crest.xyz --gfn 2 --spinpol --tblite --uhf 2 --ohess vtight --parallel 40 --molden --ceasefiles --namespace data2507/gas/OXD-7/OXD-7_gas_T1_finalOpt
 * total energy  :   -99.2998946 Eh     change       -0.6746973E-08 Eh
 * total energy  :   -99.2999128 Eh     change       -0.1815737E-04 Eh
 * total energy  :   -99.2999246 Eh     change       -0.1184892E-04 Eh
 * total energy  :   -99.2999258 Eh     change       -0.1240018E-05 Eh
 * total energy  :   -99.2999265 Eh     change       -0.6119521E-06 Eh
 * total energy  :   -99.2999271 Eh     change       -0.6550501E-06 Eh
 * total energy  :   -99.2999284 Eh     change       -0.1272727E-05 Eh
 * total energy  :   -99.2999299 Eh     change       -0.1486190E-05 Eh
 * total energy  :   -99.2999306 Eh     change       -0.7113535E-06 Eh
 * total energy  :   -99.2999310 Eh     change       -0.4399849E-06 Eh
 * total energy  :   -99.2999327 Eh     change       -0.2635511E-06 Eh
 * total energy  :   -99.2999330 Eh     change       -0.3131206E-06 Eh
 * total energy  :   -99.2999333 Eh     change       -0.2386245E-06 Eh
 * total energy  :   -99.2999336 Eh     change       -0.3170018E-06 Eh
 * total energy  :   -99.2999338 Eh     change       -0.2437703E-06 Eh
 * total energy  :   -99.2999340 Eh     change       -0.1560485E-06 Eh
 * total energy  :   -99.2999340 Eh     change        0.1721062E-07 Eh
 * total energy  :   -99.2999341 Eh     change       -0.1038338E-06 Eh
 * total energy  :   -99.2999341 Eh     change       -0.6577039E-07 Eh
   *** GEOMETRY OPTIMIZATION CONVERGED AFTER 23 ITERATIONS ***

 final structure:
================
66
 xtb: 6.7.1 (edcfbbe)
C           -9.60454083708118       -2.42638398501210        1.23942456299764
C           -9.32291644489083       -1.57523792027184       -0.00903856173711
C           -9.60733519551619       -2.40251925908941       -1.27283442354540
C          -10.27750859566226       -0.37830093380634        0.00352784689267
C           -7.86485549236135       -1.16575155245856       -0.00717991434690
C           -6.86748993199180       -2.15893068316872       -0.01583608990572
C           -5.53661800727822       -1.84864043171374       -0.01487165167736
C           -5.12071246536219       -0.49316114273079       -0.00507587755979
C           -3.76008081463345       -0.17368190677105       -0.00424089217053
N           -2.73063732050821       -1.04217052166895       -0.01194555396595
N           -1.63238576978546       -0.38461299700324       -0.00844565418732
C           -1.92130673419810        0.93982111470187        0.00170360484032
C           -1.00900899101290        1.99130382870761        0.00791448834197
C           -1.44765401988517        3.35469831968845        0.01841883401707
C           -0.52747806759800        4.37232728720068        0.02295710802605
C            0.83672348188257        4.10356569089986        0.01751816163768
C            1.28279402448977        2.75610933033748        0.00772765089907
C            2.69766033242338        2.49882312223085        0.00242841526355
N            3.65659948929940        3.38632013363682       -0.00121257498040
N            4.81316250568494        2.72608526910578       -0.00571767080572
C            4.53672296637725        1.45021675003811       -0.00448847378645
C            5.47682775541348        0.36023555350554       -0.00612142343570
C            5.04266805424760       -0.96323674741033        0.00265459078023
C            5.96013733964140       -1.99578834932996        0.00339603971274
C            7.32954650374699       -1.74749581982822       -0.00478990537937
C            8.36872439963828       -2.85573357239423       -0.00289723383445
C            7.74427922566600       -4.25359151142666        0.01233335105994
C            9.23267194673666       -2.73040768299869       -1.26615361903731
C            9.24908002133454       -2.71081749257119        1.24690394904983
C            7.74822552022116       -0.41502065665280       -0.01484403571372
C            6.84700501011930        0.62597943082476       -0.01532981414643
O            3.19907245776103        1.24011479646925        0.00051939278062
C            0.37848715843135        1.71999215810726        0.00323184692638
O           -3.28815548182392        1.12154854373898        0.00489426337403
C           -6.11897057443067        0.51135625587536        0.00350680604908
C           -7.44709075302924        0.17244118441671        0.00238106616856
H           -8.99986643153043       -3.32857532652831        1.25162031485861
H           -9.38591556427330       -1.85645170803003        2.13995105562708
H          -10.65222081611894       -2.71801768127914        1.26077814344656
H           -9.39158015765086       -1.81525025790091       -2.16286054922391
H           -9.00183767234420       -3.30372373729819       -1.30388137806471
H          -10.65483427130356       -2.69458325322938       -1.29694872542506
H          -10.13544484029634        0.22758647893348        0.89537906131987
H          -11.30503563544255       -0.73590587816897        0.00231996800796
H          -10.13898109873866        0.24352227601315       -0.87784356559955
H           -7.15416180431153       -3.19942054111316       -0.02362631890028
H           -4.77780184936443       -2.61455502396948       -0.02156107592239
H           -2.50747649872711        3.55384656776123        0.02243147092575
H           -0.86380499979694        5.39856879048006        0.03081774179027
H            1.57231481647076        4.88972471279375        0.02072716517929
H            3.98444417942344       -1.17805313835621        0.00941210756917
H            5.58642290156072       -3.00636349923630        0.01084023004055
H            8.53419148785713       -5.00182087829139        0.01406374520837
H            7.13964853721830       -4.40345852919002        0.90373396269326
H            7.12952001516435       -4.41840718722869       -0.86943325289318
H            9.75533469144137       -1.77872670789277       -1.29808942938977
H            8.61147381673587       -2.80849707841914       -2.15593206816738
H            9.97332254801905       -3.52671487899015       -1.29138365580904
H            9.77399680316546       -1.75990289232142        1.25609547836924
H            8.63921623490072       -2.77255528611483        2.14576747534263
H            9.98853184614269       -3.50809726996298        1.27615804996799
H            8.80192926200093       -0.18207845502686       -0.02223188758194
H            7.17617815987697        1.65284081392315       -0.02260236986459
H            0.70211786232179        0.69121690367669       -0.00442395558996
H           -5.81405174913237        1.54660525891227        0.01091974905075
H           -8.17626985713455        0.96604215237580        0.00916422543239

 projected vibrational frequencies (cm⁻¹)
eigval :       -0.00    -0.00    -0.00     0.00     0.00     0.00
eigval :       13.07    13.44    15.89    22.35    31.77    38.97
eigval :       49.84    53.73    59.69    67.35    78.30    91.87
eigval :      115.87   126.61   131.63   140.93   164.58   168.13
eigval :      175.31   188.01   194.31   214.30   215.94   232.31
eigval :      235.32   238.59   277.67   288.60   301.29   306.06
eigval :      314.20   315.86   326.73   340.22   341.81   363.67
eigval :      364.89   370.65   374.63   378.53   396.16   410.47
eigval :      426.92   427.47   431.01   452.98   459.63   464.71
eigval :      488.49   509.75   516.63   517.97   537.95   590.28
eigval :      592.72   594.81   605.09   605.24   626.88   671.17
eigval :      680.26   686.90   702.15   717.41   718.80   736.74
eigval :      743.59   761.48   804.84   822.03   823.49   826.89
eigval :      834.77   859.65   868.56   870.44   882.83   886.11
eigval :      908.03   912.10   917.39   920.78   930.38   941.33
eigval :      950.32   958.68   960.47   960.82   962.12   963.44
eigval :      963.66   963.96   979.20  1003.84  1028.21  1030.40
eigval :     1034.14  1034.83  1035.23  1045.47  1059.00  1084.91
eigval :     1106.75  1116.46  1121.57  1137.28  1139.35  1144.18
eigval :     1149.01  1168.09  1186.49  1202.97  1204.40  1216.93
eigval :     1226.22  1226.92  1228.17  1233.09  1259.65  1268.66
eigval :     1274.82  1277.90  1285.83  1286.85  1307.41  1328.29
eigval :     1328.92  1336.27  1350.71  1356.97  1389.92  1399.07
eigval :     1401.22  1403.58  1405.71  1409.82  1410.83  1427.68
eigval :     1428.03  1429.13  1461.22  1463.66  1472.10  1485.22
eigval :     1488.79  1490.33  1491.50  1492.48  1498.19  1499.17
eigval :     1502.38  1503.62  1513.33  1513.94  1517.98  1518.15
eigval :     1524.14  1533.32  1549.37  1562.25  1566.68  1592.25
eigval :     3025.47  3026.14  3027.45  3028.15  3029.92  3030.29
eigval :     3033.19  3033.87  3034.22  3034.57  3038.17  3038.41
eigval :     3041.07  3041.53  3050.09  3050.77  3053.38  3054.02
eigval :     3084.27  3089.21  3090.36  3091.27  3094.65  3106.62
eigval :     3110.79  3111.36  3111.68  3115.49  3118.63  3127.54

   temp. (K)  partition function   enthalpy   heat capacity  entropy
                                   cal/mol     cal/K/mol   cal/K/mol   J/K/mol
 298.15  VIB  0.331E+16            19624.099    118.994    122.761
         ROT  0.718E+08              888.752      2.981     38.930
         INT  0.238E+24            20512.851    121.975    161.691
         TR   0.101E+29             1481.254      4.968     44.365
         TOT                       21994.1050   126.9430   206.0558   862.1373

       T/K    H(0)-H(T)+PV         H(T)/Eh          T*S/Eh         G(T)/Eh
   ------------------------------------------------------------------------
    298.15    0.350498E-01    0.558078E+00    0.979037E-01    0.460174E+00
   ------------------------------------------------------------------------

         :::::::::::::::::::::::::::::::::::::::::::::::::::::
         ::                  THERMODYNAMIC                  ::
         :::::::::::::::::::::::::::::::::::::::::::::::::::::
         :: total free energy         -98.839760148569 Eh   ::
         ::.................................................::
         :: total energy              -99.299934078166 Eh   ::
         :: zero point energy           0.523027833559 Eh   ::
         :: G(RRHO) w/o ZPVE           -0.062853903962 Eh   ::
         :: G(RRHO) contrib.            0.460173929597 Eh   ::
         :::::::::::::::::::::::::::::::::::::::::::::::::::::

           -------------------------------------------------
          | TOTAL ENERGY              -99.299934078166 Eh   |
          | TOTAL ENTHALPY            -98.741856407203 Eh   |
          | TOTAL FREE ENERGY         -98.839760148569 Eh   |
          | GRADIENT NORM               0.000110110810 Eh/α |
           -------------------------------------------------

 * finished run on 2025/09/13 at 10:38:01.156
