   * xtb version 6.7.1 (edcfbbe) compiled by 'albert@albert-system' on 2024-07-22

   ID    Z sym.   atoms
    1    6 C      1-9, 12-18, 21-31, 33, 35, 36
    2    7 N      10, 11, 19, 20
    3    8 O      32, 34
    4    1 H      37-66

          program call               : xtb data2507/gas/OXD-7/OXD-7.xyz --gfn 2 --ohess vtight --parallel 40 --molden --ceasefiles --namespace data2507/gas/OXD-7/OXD-7_gas_S0_preOpt
          :  Hamiltonian                  GFN2-xTB          :
 * total energy  :   -99.3767161 Eh     change       -0.9416112E-09 Eh
 * total energy  :   -99.3888293 Eh     change       -0.1211322E-01 Eh
 * total energy  :   -99.3919425 Eh     change       -0.3113252E-02 Eh
 * total energy  :   -99.3927765 Eh     change       -0.8339503E-03 Eh
 * total energy  :   -99.3931229 Eh     change       -0.3463803E-03 Eh
 * total energy  :   -99.3932100 Eh     change       -0.8712944E-04 Eh
 * total energy  :   -99.3932750 Eh     change       -0.6500289E-04 Eh
 * total energy  :   -99.3933291 Eh     change       -0.5410925E-04 Eh
 * total energy  :   -99.3933762 Eh     change       -0.4708900E-04 Eh
 * total energy  :   -99.3934278 Eh     change       -0.5158838E-04 Eh
 * total energy  :   -99.3936306 Eh     change       -0.9394729E-06 Eh
 * total energy  :   -99.3936314 Eh     change       -0.8305901E-06 Eh
 * total energy  :   -99.3936322 Eh     change       -0.7302424E-06 Eh
 * total energy  :   -99.3936328 Eh     change       -0.6356115E-06 Eh
 * total energy  :   -99.3936333 Eh     change       -0.5391264E-06 Eh
 * total energy  :   -99.3936338 Eh     change       -0.4753855E-06 Eh
 * total energy  :   -99.3936342 Eh     change       -0.4050104E-06 Eh
 * total energy  :   -99.3936346 Eh     change       -0.3390931E-06 Eh
 * total energy  :   -99.3936346 Eh     change       -0.1624699E-08 Eh
   *** GEOMETRY OPTIMIZATION CONVERGED AFTER 44 ITERATIONS ***

 final structure:
================
66
 xtb: 6.7.1 (edcfbbe)
C           -9.39377584905848       -2.79471493287408        0.00043944506004
C           -9.12508497582898       -1.28758444292580       -0.00107175031517
C           -9.76942738499653       -0.68742940247135       -1.25906818032849
C           -9.77172991887450       -0.68452353166485        1.25434844532551
C           -7.64222337108611       -0.95542968733332       -0.00015657864264
C           -6.64781606438611       -1.93012217596632        0.00152483595605
C           -5.30924252787156       -1.59157745992474        0.00219666331127
C           -4.92558439608486       -0.25278477123161        0.00121842151948
C           -3.52563755273626        0.09155608078609        0.00181265532115
N           -2.51547968279323       -0.73102105618141        0.00278674502493
N           -1.40001469585734        0.00678818677177        0.00286893578282
C           -1.76069172920808        1.25722033587946        0.00196303238819
C           -0.89225564389863        2.41162613343730        0.00164612044088
C           -1.41986224742862        3.70244193153409        0.00140548532312
C           -0.56995224524702        4.79509450365637        0.00108121280683
C            0.80003083706738        4.61566383143854        0.00094480554076
C            1.33118276289048        3.32366932145939        0.00115667670532
C            2.76537050163764        3.14797484449594        0.00087365777179
N            3.66981787758547        4.08411682049233        0.00050485548944
N            4.86509181224458        3.48411811561954        0.00022472652356
C            4.65360239006524        2.19791652633641        0.00043029896773
C            5.64705270322381        1.15306568095545        0.00018723765217
C            5.27456105532318       -0.18998581815106        0.00056805448912
C            6.24191449326162       -1.17201203116127        0.00026564971033
C            7.60132121984400       -0.85967025791740       -0.00043581945487
C            8.62365988792255       -1.98403337098883       -0.00076630471454
C           10.06645132099205       -1.47202568496381       -0.00170095905629
C            8.42077735288076       -2.84234369294152        1.25620469908700
C            8.41937230091180       -2.84292090317641       -1.25711586855271
C            7.95667717247152        0.48666793874177       -0.00078777114503
C            7.00014605869813        1.48246228993485       -0.00048020636520
O            3.32945933323708        1.91834790883934        0.00085661402051
C            0.48648236970509        2.22049368772773        0.00153975316122
O           -3.10931186817705        1.38065521808205        0.00126064095321
C           -5.90887165826232        0.73473397126995       -0.00042597430557
C           -7.24098229180365        0.38039392963672       -0.00110764741177
H           -8.97688365498105       -3.26827633526713       -0.88525388918601
H           -8.97830758372785       -3.26623316279349        0.88789120890891
H          -10.46763605571480       -2.96979840009701       -0.00022761489328
H          -10.82907549399638       -0.93143759133771       -1.28770364827220
H           -9.66953015578397        0.39409375323228       -1.28073855264951
H           -9.29790090295140       -1.09172991012643       -2.15233931144337
H           -9.30176545212726       -1.08666592668930        2.14941455028264
H          -10.83140278896344       -0.92857637214049        1.28166075540631
H           -9.67200142851448        0.39705846617275        1.27365092839844
H           -6.90746244525937       -2.97569549206577        0.00232302394039
H           -4.54272253584982       -2.35010687716756        0.00346873287306
H           -2.49064266481775        3.83984509456658        0.00149044378274
H           -0.98144680030700        5.79308714400842        0.00091712445609
H            1.47895251248845        5.45317581251236        0.00065840923654
H            4.22794857449217       -0.45572337176487        0.00109825050715
H            5.92446633185016       -2.20358513750690        0.00057986605651
H           10.74991150455283       -2.31866393691865       -0.00194583561452
H           10.27067748840761       -0.87666016886812       -0.88848108776602
H           10.27171957976383       -0.87633813433384        0.88462154854934
H            9.15675140632422       -3.64290471920209        1.28384692154862
H            7.43122538499391       -3.28992979595081        1.27734783347237
H            8.53914878700842       -2.23359861791427        2.15016873854139
H            7.42983393477405       -3.29059685927776       -1.27691027106969
H            8.53665965211632       -2.23456900234928       -2.15149027615111
H            9.15537258508162       -3.64344049424288       -1.28525577667193
H            8.99381107727574        0.77834198548770       -0.00131765941714
H            7.28016459470713        2.52390437170759       -0.00076252240605
H            0.87784886991052        1.21571639282005        0.00172625489268
H           -5.62211966348034        1.77594147321769       -0.00120060093646
H           -7.98062500363422        1.16653777506674       -0.00243015241603

          :  Hamiltonian                  GFN2-xTB          :
         :: gradient norm              0.000030648873 Eh/a0 ::
         :: HOMO-LUMO gap              2.626517166921 eV    ::
         :: SCC energy              -100.940963471424 Eh    ::
         :: -> dispersion             -0.072176304536 Eh    ::
         :: repulsion energy           1.547328915324 Eh    ::

    * Orbital Energies and Occupations

         #    Occupation            Energy/Eh            Energy/eV
      -------------------------------------------------------------
         1        2.0000           -0.7679069             -20.8958
       ...           ...                  ...                  ...
        79        2.0000           -0.4249405             -11.5632
        80        2.0000           -0.4229645             -11.5095
        81        2.0000           -0.4225263             -11.4975
        82        2.0000           -0.4199984             -11.4287
        83        2.0000           -0.4191346             -11.4052
        84        2.0000           -0.4188864             -11.3985
        85        2.0000           -0.4166555             -11.3378
        86        2.0000           -0.4158689             -11.3164
        87        2.0000           -0.4114805             -11.1970
        88        2.0000           -0.3939915             -10.7211
        89        2.0000           -0.3895961             -10.6014
        90        2.0000           -0.3860735             -10.5056
        91        2.0000           -0.3830716             -10.4239 (HOMO)
        92                         -0.2865489              -7.7974 (LUMO)
        93                         -0.2773545              -7.5472
        94                         -0.2583496              -7.0300
        95                         -0.2537538              -6.9050
        96                         -0.2325675              -6.3285
        97                         -0.2281561              -6.2084
        98                         -0.2080474              -5.6613
        99                         -0.1841862              -5.0120
       100                         -0.1803499              -4.9076
       101                         -0.1664579              -4.5295
       102                         -0.0906119              -2.4657
       ...                                ...                  ...
       174                          0.6638787              18.0651
      -------------------------------------------------------------
                  HL-Gap            0.0965227 Eh            2.6265 eV

     #   Z          covCN         q      C6AA      α(0)
     1   6 C        3.761    -0.110    22.652     6.785
     2   6 C        3.903     0.026    20.083     6.370
     3   6 C        3.762    -0.107    22.587     6.775
     4   6 C        3.762    -0.107    22.587     6.775
     5   6 C        2.973     0.017    27.628     8.622
     6   6 C        2.924    -0.035    28.873     8.812
     7   6 C        2.924    -0.030    28.741     8.792
     8   6 C        2.975    -0.009    28.234     8.716
     9   6 C        3.171     0.215    23.151     7.860
    10   7 N        2.049    -0.198    26.028     7.568
    11   7 N        2.048    -0.196    25.974     7.560
    12   6 C        3.173     0.213    23.188     7.865
    13   6 C        2.974    -0.001    28.037     8.685
    14   6 C        2.923    -0.024    28.604     8.771
    15   6 C        2.918    -0.023    28.582     8.767
    16   6 C        2.924    -0.025    28.633     8.775
    17   6 C        2.974     0.003    27.955     8.673
    18   6 C        3.175     0.212    23.190     7.864
    19   7 N        2.048    -0.195    25.962     7.558
    20   7 N        2.049    -0.199    26.036     7.569
    21   6 C        3.173     0.215    23.133     7.856
    22   6 C        2.975    -0.009    28.230     8.715
    23   6 C        2.921    -0.028    28.709     8.787
    24   6 C        2.926    -0.033    28.818     8.803
    25   6 C        2.973     0.017    27.630     8.622
    26   6 C        3.903     0.026    20.083     6.370
    27   6 C        3.761    -0.110    22.648     6.784
    28   6 C        3.762    -0.107    22.589     6.775
    29   6 C        3.762    -0.107    22.589     6.775
    30   6 C        2.924    -0.035    28.881     8.813
    31   6 C        2.923    -0.030    28.745     8.792
    32   8 O        1.722    -0.222    17.676     5.677
    33   6 C        2.930    -0.027    28.674     8.782
    34   8 O        1.722    -0.227    17.761     5.690
    35   6 C        2.921    -0.029    28.714     8.787
    36   6 C        2.926    -0.033    28.825     8.805
    37   1 H        0.925     0.038     2.472     2.459
    38   1 H        0.925     0.038     2.472     2.459
    39   1 H        0.925     0.040     2.451     2.448
    40   1 H        0.925     0.041     2.434     2.440
    41   1 H        0.925     0.038     2.477     2.461
    42   1 H        0.925     0.036     2.503     2.474
    43   1 H        0.925     0.036     2.503     2.474
    44   1 H        0.925     0.041     2.434     2.440
    45   1 H        0.925     0.038     2.477     2.461
    46   1 H        0.926     0.049     2.338     2.391
    47   1 H        0.926     0.058     2.218     2.329
    48   1 H        0.926     0.052     2.299     2.371
    49   1 H        0.926     0.049     2.328     2.386
    50   1 H        0.926     0.069     2.102     2.267
    51   1 H        0.926     0.046     2.375     2.410
    52   1 H        0.926     0.039     2.457     2.451
    53   1 H        0.925     0.039     2.457     2.451
    54   1 H        0.925     0.038     2.476     2.461
    55   1 H        0.925     0.038     2.476     2.461
    56   1 H        0.925     0.041     2.440     2.443
    57   1 H        0.925     0.039     2.468     2.457
    58   1 H        0.925     0.036     2.506     2.475
    59   1 H        0.925     0.039     2.468     2.457
    60   1 H        0.925     0.036     2.506     2.475
    61   1 H        0.925     0.041     2.440     2.443
    62   1 H        0.926     0.048     2.347     2.396
    63   1 H        0.926     0.058     2.226     2.333
    64   1 H        0.926     0.072     2.059     2.244
    65   1 H        0.926     0.041     2.431     2.438
    66   1 H        0.926     0.038     2.474     2.460

molecular dipole:
                 x           y           z       tot (Debye)
 q only:       -0.858      -0.688      -0.001
   full:       -1.494      -0.662      -0.001       4.153

 projected vibrational frequencies (cm⁻¹)
eigval :       -0.00    -0.00    -0.00     0.00     0.00     0.00
eigval :       10.30    13.74    14.86    22.62    28.27    38.75
eigval :       47.10    47.86    61.63    64.67    78.74    84.94
eigval :       96.80   132.53   135.00   140.84   172.35   175.73
eigval :      176.95   196.31   215.60   217.42   224.19   230.40
eigval :      235.56   240.23   298.21   302.28   308.75   314.95
eigval :      315.93   316.33   321.20   336.61   365.43   365.56
eigval :      372.42   375.19   375.28   407.72   409.75   428.13
eigval :      431.91   432.54   445.99   452.12   459.06   489.49
eigval :      516.75   530.47   536.55   550.79   594.25   594.75
eigval :      605.89   605.94   645.53   652.27   683.99   684.51
eigval :      701.36   720.80   723.71   728.68   739.41   753.56
eigval :      779.03   804.04   822.63   823.41   869.55   870.29
eigval :      883.21   883.59   889.09   903.36   919.73   920.35
eigval :      928.75   929.21   930.52   952.79   961.02   961.04
eigval :      962.62   962.77   964.01   964.03   968.08   968.80
eigval :      992.96   995.15  1013.33  1016.18  1035.23  1035.27
eigval :     1035.27  1035.36  1087.22  1090.00  1099.74  1106.76
eigval :     1119.32  1139.01  1139.10  1146.21  1146.46  1178.40
eigval :     1181.75  1185.60  1203.78  1205.11  1226.91  1227.00
eigval :     1233.29  1233.40  1233.57  1265.16  1273.69  1275.40
eigval :     1278.62  1285.28  1301.93  1311.74  1321.59  1330.01
eigval :     1330.61  1334.26  1398.71  1398.74  1406.14  1406.33
eigval :     1409.89  1410.09  1415.24  1429.80  1429.88  1442.57
eigval :     1466.12  1466.75  1490.99  1491.09  1493.25  1493.27
eigval :     1499.99  1500.00  1504.58  1504.69  1514.07  1514.18
eigval :     1518.45  1518.59  1534.25  1537.33  1541.49  1541.78
eigval :     1568.71  1569.02  1575.68  1584.31  1597.61  1597.93
eigval :     3025.43  3026.02  3027.41  3028.00  3029.93  3030.17
eigval :     3033.11  3033.33  3034.23  3034.80  3038.48  3038.76
eigval :     3040.93  3041.39  3048.56  3049.25  3051.92  3052.71
eigval :     3083.22  3085.50  3088.76  3094.67  3096.64  3099.41
eigval :     3107.49  3108.13  3116.73  3116.83  3120.86  3121.52

   temp. (K)  partition function   enthalpy   heat capacity  entropy
                                   cal/mol     cal/K/mol   cal/K/mol   J/K/mol
 298.15  VIB  0.376E+16            19206.752    115.799    120.796
         ROT  0.710E+08              888.752      2.981     38.906
         INT  0.267E+24            20095.505    118.780    159.702
         TR   0.101E+29             1481.254      4.968     44.365
         TOT                       21576.7588   123.7484   204.0664   853.8137

       T/K    H(0)-H(T)+PV         H(T)/Eh          T*S/Eh         G(T)/Eh
   ------------------------------------------------------------------------
    298.15    0.343848E-01    0.563249E+00    0.969585E-01    0.466291E+00
   ------------------------------------------------------------------------

         :::::::::::::::::::::::::::::::::::::::::::::::::::::
         ::                  THERMODYNAMIC                  ::
         :::::::::::::::::::::::::::::::::::::::::::::::::::::
         :: total free energy         -98.927343594943 Eh   ::
         ::.................................................::
         :: total energy              -99.393634556100 Eh   ::
         :: zero point energy           0.528864726138 Eh   ::
         :: G(RRHO) w/o ZPVE           -0.062573764981 Eh   ::
         :: G(RRHO) contrib.            0.466290961157 Eh   ::
         :::::::::::::::::::::::::::::::::::::::::::::::::::::

           -------------------------------------------------
          | TOTAL ENERGY              -99.393634556100 Eh   |
          | TOTAL ENTHALPY            -98.830385076201 Eh   |
          | TOTAL FREE ENERGY         -98.927343594943 Eh   |
          | GRADIENT NORM               0.000030647201 Eh/α |
          | HOMO-LUMO GAP               2.626517112375 eV   |
           -------------------------------------------------

 * finished run on 2025/09/13 at 10:31:52.879
