   * xtb version 6.7.1 (edcfbbe) compiled by 'albert@albert-system' on 2024-07-22

   ID    Z sym.   atoms
    1    6 C      1-9, 12-18, 21-31, 33, 35, 36
    2    7 N      10, 11, 19, 20
    3    8 O      32, 34
    4    1 H      37-66

          program call               : xtb data2507/gas/OXD-7/OXD-7_gas_S0_finalOpt.xtbopt.xyz --gfn 2 --spinpol --tblite --uhf 2 --ohess vtight --parallel 40 --molden --ceasefiles --namespace data2507/gas/OXD-7/OXD-7_gas_T1_preOpt
 * total energy  :   -99.2914519 Eh     change       -0.4479045E-07 Eh
 * total energy  :   -99.2969861 Eh     change       -0.5534266E-02 Eh
 * total energy  :   -99.2987968 Eh     change       -0.1810619E-02 Eh
 * total energy  :   -99.2988880 Eh     change       -0.9124753E-04 Eh
 * total energy  :   -99.2990301 Eh     change       -0.1421000E-03 Eh
 * total energy  :   -99.2991961 Eh     change       -0.1659548E-03 Eh
 * total energy  :   -99.2993901 Eh     change       -0.1940637E-03 Eh
 * total energy  :   -99.2997808 Eh     change       -0.3906522E-03 Eh
 * total energy  :   -99.2998538 Eh     change       -0.7300418E-04 Eh
 * total energy  :   -99.2998803 Eh     change       -0.2656619E-04 Eh
 * total energy  :   -99.2999296 Eh     change       -0.5025787E-06 Eh
 * total energy  :   -99.2999304 Eh     change       -0.8442933E-06 Eh
 * total energy  :   -99.2999315 Eh     change       -0.1054250E-05 Eh
 * total energy  :   -99.2999324 Eh     change       -0.8836400E-06 Eh
 * total energy  :   -99.2999330 Eh     change       -0.6492596E-06 Eh
 * total energy  :   -99.2999339 Eh     change       -0.8382109E-06 Eh
 * total energy  :   -99.2999343 Eh     change       -0.4006069E-06 Eh
 * total energy  :   -99.2999346 Eh     change       -0.3257621E-06 Eh
 * total energy  :   -99.2999347 Eh     change       -0.8452699E-07 Eh
   *** GEOMETRY OPTIMIZATION CONVERGED AFTER 42 ITERATIONS ***

 final structure:
================
66
 xtb: 6.7.1 (edcfbbe)
C           -9.61296965055937       -2.37550820026899        1.27641337838313
C           -9.32946294465230       -1.54478784182515        0.01466550395555
C           -9.61493742204643       -2.39172350405671       -1.23578356307596
C          -10.28223170335229       -0.34633552478906        0.00769772510799
C           -7.87067194752889       -1.13771449238607        0.01135675883563
C           -6.87495846259236       -2.13256423281935        0.01686276496452
C           -5.54357102987066       -1.82448873168506        0.01528314931939
C           -5.12539314176634       -0.46970393904435        0.00818634457931
C           -3.76420615070813       -0.15259018434055        0.00736731033781
N           -2.73630649363967       -1.02295612826088        0.01107968749970
N           -1.63692224077427       -0.36743305888943        0.00840942396615
C           -1.92327867111231        0.95750127960729        0.00333161855777
C           -1.00910726584051        2.00737269635012       -0.00045461747882
C           -1.44549057511388        3.37152279387519       -0.00391072469731
C           -0.52360166962721        4.38762163849579       -0.00792014582303
C            0.84012178852696        4.11650774277717       -0.00906794446943
C            1.28398965198797        2.76824159006115       -0.00589816274561
C            2.69852773111678        2.50911869914874       -0.00816432450333
N            3.65818515380965        3.39583388549279       -0.01400481073615
N            4.81416483936630        2.73474229287456       -0.01465119369435
C            4.53680320875202        1.45908963491738       -0.00924298957349
C            5.47673579008595        0.36895956034982       -0.00751378532083
C            5.04309213730802       -0.95467795130714       -0.00078596222152
C            5.96103513649989       -1.98685524038796        0.00137244221618
C            7.33037032486021       -1.73800682628818       -0.00308778813753
C            8.37013806350005       -2.84570442744549       -0.00046187530658
C            9.23785866076938       -2.71702769045304       -1.26082883231648
C            9.24674287783019       -2.70308666829366        1.25224036644558
C            7.74653213403890       -4.24399613169209        0.00965885455068
C            7.74852098030373       -0.40533840567972       -0.01032325587961
C            6.84686056817602        0.63523989630978       -0.01246354712783
O            3.19895164994370        1.24999305223726       -0.00489915693268
C            0.37794399315958        1.73366397028359       -0.00134829103452
O           -3.28987716267348        1.14179999530220        0.00237285015820
C           -6.12197967707470        0.53647776887383        0.00215404879700
C           -7.45067015064016        0.19977563661930        0.00365354406517
H           -9.01004924377482       -3.27858323976618        1.30279947456397
H           -9.39301571495575       -1.79184364297299        2.16777462760635
H          -10.66124961646003       -2.66461648444374        1.30249831382985
H          -10.66305501236883       -2.68190937229935       -1.25590024142614
H           -9.39739134269036       -1.81929059079534       -2.13497605343641
H           -9.01142522657601       -3.29464243499390       -1.25201699071660
H          -10.14037145235669        0.27287829768096        0.89037916650789
H          -11.31038580941589       -0.70217172392453        0.01049490045201
H          -10.14133949704129        0.26169887149452       -0.88286830593110
H           -7.16336908047364       -3.17258367621125        0.02253687462016
H           -4.78605272771473       -2.59170349280763        0.01955373612186
H           -2.50497403898086        3.57248676598887       -0.00305278512430
H           -0.85819029852724        5.41445730204603       -0.01017892383759
H            1.57701418805510        4.90144202943351       -0.01235188778608
H            3.98493483149312       -1.16997240770165        0.00283120061585
H            5.58775408422179       -2.99762276618273        0.00671712834149
H            9.97880487244999       -3.51306917453056       -1.28580689679098
H            8.61932021032617       -2.79312642716947       -2.15265068719831
H            9.76038089107767       -1.76512640913096       -1.28893106852782
H            8.63446755982583       -2.76882089682377        2.14918247839443
H            9.76982885691782       -1.75120505867325        1.26592762161312
H            9.98760225081880       -3.49907911069808        1.28104668578856
H            7.13928540471317       -4.39631011276963        0.89887243932503
H            7.13452821753502       -4.40710259274531       -0.87435390486219
H            8.53689367702285       -4.99175820218234        0.01205606986849
H            8.80214535974865       -0.17192580797002       -0.01432475033926
H            7.17559234937319        1.66226038918854       -0.01790547175231
H            0.69984990045841        0.70431654782151        0.00117646416985
H           -5.81536330508031        1.57123515913200       -0.00371182293924
H           -8.17852651949371        0.99460180495168       -0.00122610477779

 projected vibrational frequencies (cm⁻¹)
eigval :       -0.00    -0.00    -0.00    -0.00     0.00     0.00
eigval :       12.70    13.24    15.46    22.20    31.60    38.90
eigval :       49.94    53.74    59.55    67.13    78.36    92.02
eigval :      115.70   126.54   131.64   140.78   164.42   168.20
eigval :      175.26   188.02   194.26   214.08   215.96   232.30
eigval :      235.25   238.80   277.56   288.45   301.31   306.00
eigval :      314.08   315.70   326.68   340.27   341.74   363.64
eigval :      365.20   370.47   374.50   378.40   396.07   410.45
eigval :      426.87   427.41   431.02   452.89   459.50   464.78
eigval :      488.36   509.65   516.60   517.84   537.83   590.24
eigval :      592.73   594.78   604.99   605.04   626.90   671.11
eigval :      680.25   686.86   702.13   717.41   718.92   736.75
eigval :      743.38   761.55   804.57   821.84   823.22   826.52
eigval :      834.84   859.32   868.30   870.31   882.80   885.99
eigval :      907.65   911.73   917.08   920.41   930.15   941.26
eigval :      950.43   958.41   960.43   960.57   961.96   963.21
eigval :      963.50   963.84   979.01  1003.85  1028.67  1030.15
eigval :     1033.98  1034.47  1035.16  1045.53  1057.67  1084.68
eigval :     1106.55  1117.42  1121.26  1136.81  1139.21  1144.02
eigval :     1149.41  1168.07  1186.13  1202.69  1204.14  1216.79
eigval :     1226.10  1226.79  1228.01  1232.90  1260.14  1268.42
eigval :     1274.46  1277.70  1285.56  1286.73  1307.16  1328.27
eigval :     1328.89  1336.17  1351.05  1357.06  1389.42  1398.91
eigval :     1400.85  1403.16  1405.58  1409.59  1410.65  1426.92
eigval :     1427.34  1428.47  1460.97  1463.39  1472.10  1484.93
eigval :     1488.02  1489.74  1490.89  1491.81  1497.62  1498.57
eigval :     1501.57  1503.10  1512.53  1513.14  1517.39  1517.54
eigval :     1524.00  1533.41  1549.46  1562.00  1566.38  1592.19
eigval :     3025.41  3026.10  3027.33  3028.14  3029.74  3030.24
eigval :     3033.16  3033.87  3034.01  3034.51  3038.00  3038.40
eigval :     3040.87  3041.40  3049.88  3050.57  3053.25  3053.87
eigval :     3084.28  3089.12  3090.04  3091.11  3094.55  3106.74
eigval :     3110.88  3111.36  3111.66  3115.38  3118.10  3127.67

   temp. (K)  partition function   enthalpy   heat capacity  entropy
                                   cal/mol     cal/K/mol   cal/K/mol   J/K/mol
 298.15  VIB  0.361E+16            19629.029    119.004    122.854
         ROT  0.718E+08              888.752      2.981     38.930
         INT  0.259E+24            20517.781    121.985    161.784
         TR   0.101E+29             1481.254      4.968     44.365
         TOT                       21999.0348   126.9532   206.1490   862.5276

       T/K    H(0)-H(T)+PV         H(T)/Eh          T*S/Eh         G(T)/Eh
   ------------------------------------------------------------------------
    298.15    0.350577E-01    0.558018E+00    0.979481E-01    0.460070E+00
   ------------------------------------------------------------------------

         :::::::::::::::::::::::::::::::::::::::::::::::::::::
         ::                  THERMODYNAMIC                  ::
         :::::::::::::::::::::::::::::::::::::::::::::::::::::
         :: total free energy         -98.839864668149 Eh   ::
         ::.................................................::
         :: total energy              -99.299934662651 Eh   ::
         :: zero point energy           0.522960366021 Eh   ::
         :: G(RRHO) w/o ZPVE           -0.062890371519 Eh   ::
         :: G(RRHO) contrib.            0.460069994501 Eh   ::
         :::::::::::::::::::::::::::::::::::::::::::::::::::::

           -------------------------------------------------
          | TOTAL ENERGY              -99.299934662651 Eh   |
          | TOTAL ENTHALPY            -98.741916603108 Eh   |
          | TOTAL FREE ENERGY         -98.839864668149 Eh   |
          | GRADIENT NORM               0.000213447952 Eh/α |
           -------------------------------------------------

 * finished run on 2025/09/13 at 10:34:29.158
