   * xtb version 6.7.1 (edcfbbe) compiled by 'albert@albert-system' on 2024-07-22

   ID    Z sym.   atoms
    1    6 C      1-8, 10-18, 20, 22, 24, 26, 28, 30-32
    2    7 N      9, 19, 21, 25, 29
    3    8 O      23, 27
    4    1 H      33-63

          program call               : xtb data2507/gas/1CM/1CM_gas_S0_finalOpt.xtbopt.xyz --gfn 2 --spinpol --tblite --uhf 2 --ohess vtight --parallel 40 --molden --ceasefiles --namespace data2507/gas/1CM/1CM_gas_T1_preOpt
 * total energy  :   -92.1138699 Eh     change       -0.3046651E-08 Eh
 * total energy  :   -92.1172750 Eh     change       -0.3405095E-02 Eh
 * total energy  :   -92.1181044 Eh     change       -0.8294844E-03 Eh
 * total energy  :   -92.1181920 Eh     change       -0.8760089E-04 Eh
 * total energy  :   -92.1182521 Eh     change       -0.6008378E-04 Eh
 * total energy  :   -92.1182780 Eh     change       -0.2588708E-04 Eh
 * total energy  :   -92.1183473 Eh     change       -0.6925323E-04 Eh
 * total energy  :   -92.1183973 Eh     change       -0.5004226E-04 Eh
 * total energy  :   -92.1184847 Eh     change       -0.8736246E-04 Eh
 * total energy  :   -92.1186094 Eh     change       -0.1247512E-03 Eh
 * total energy  :   -92.1186802 Eh     change       -0.7453684E-06 Eh
 * total energy  :   -92.1186808 Eh     change       -0.6193667E-06 Eh
 * total energy  :   -92.1186813 Eh     change       -0.5249348E-06 Eh
 * total energy  :   -92.1186816 Eh     change       -0.3466175E-06 Eh
 * total energy  :   -92.1186819 Eh     change       -0.2751510E-06 Eh
 * total energy  :   -92.1186822 Eh     change       -0.2674731E-06 Eh
 * total energy  :   -92.1186824 Eh     change       -0.1973277E-06 Eh
 * total energy  :   -92.1186826 Eh     change       -0.1771140E-06 Eh
 * total energy  :   -92.1186826 Eh     change       -0.7990920E-08 Eh
   *** GEOMETRY OPTIMIZATION CONVERGED AFTER 44 ITERATIONS ***

 final structure:
================
63
 xtb: 6.7.1 (edcfbbe)
C            1.60054795450657       -1.49228952656338       -2.22707695048559
C            0.32901778751612       -2.19930646416953       -2.68028166280996
C           -0.86784366262310       -1.80884941607519       -1.81749212592306
C           -2.16598717093281       -2.45443058262379       -2.29746175487866
C           -3.37040855205460       -2.07672480149290       -1.43257613324587
C           -3.41510244248701       -2.84878957729455       -0.11283726787093
C           -4.53155868690769       -2.36565012139124        0.82087531167083
C           -4.05486324556779       -1.33216330380105        1.85554912587321
N           -3.44822142412424       -0.18333046496394        1.25238879628029
C           -4.15830608199735        0.82184004788183        0.59760606139221
C           -5.51534263415059        0.99570745548680        0.50058623445419
C           -5.98378407457872        2.12258689480455       -0.23395599711188
C           -5.10099001692245        2.99615605595340       -0.81930917072760
C           -3.71569576407882        2.82171121756960       -0.72149716011200
C           -3.23306545550406        1.71925108820420        0.00277683425204
C           -1.93874782844381        1.24205657978030        0.30965162266041
C           -0.64975167804064        1.65829120880533       -0.00785655089502
C            0.43944448180135        0.91065040846624        0.44020068893445
N            1.68306637954239        1.33698211158652        0.07311057530149
C            2.92138523846400        0.78890975839459        0.24256066721756
N            3.91341839294568        1.53454538880210       -0.27987728284743
C            5.12166906069125        1.02412441951911       -0.14723344102733
O            6.16728690602726        1.68242674858641       -0.62708103082719
C            5.89150947303003        2.91703208924196       -1.26141182544880
N            5.41034411138733       -0.13567909546956        0.44458128099597
C            4.35396988823043       -0.78683869023652        0.92515836176153
O            4.53711445009777       -1.95023861393417        1.53139658632385
C            5.87536859624774       -2.40801511501341        1.61384315593740
N            3.09703333730339       -0.37870829167490        0.85553786539881
C            0.25537452366431       -0.24909202263990        1.25949124001790
C           -1.02440151498262       -0.67525398015577        1.58587657138608
C           -2.11329660249732        0.03291372717480        1.10931057715793
H            2.45315383213966       -1.81432064419833       -2.82132482707006
H            1.49454287993007       -0.41471494776842       -2.33693930335343
H            1.80767042684192       -1.70639980501314       -1.18079413109075
H            0.47537828035124       -3.28054456741945       -2.62569255669929
H            0.12443839845585       -1.94620169169033       -3.72368515082763
H           -0.98387571989165       -0.72248415881172       -1.83287965226074
H           -0.66257593070135       -2.09859293968120       -0.78629867200270
H           -2.05357445565636       -3.54135346777269       -2.30934869060167
H           -2.35455461846298       -2.13287292225360       -3.32455622067240
H           -4.28926677036284       -2.28812824178326       -1.98590931270629
H           -3.34363319183718       -1.00290719719280       -1.24427339442498
H           -3.57036046686991       -3.90561118474325       -0.34120943033702
H           -2.45384609776746       -2.76454357063474        0.39426037170528
H           -4.94429802428929       -3.20805463393839        1.37901254324098
H           -5.33696620654943       -1.93331831288615        0.22491182332555
H           -3.32556914221201       -1.79553908227293        2.52338056827126
H           -4.91029155563633       -1.00324940579154        2.45529060563051
H           -6.22227150766294        0.32339039579301        0.96057838389149
H           -7.04759925547093        2.27706852459957       -0.32190964782439
H           -5.48097321284199        3.84292392387341       -1.37296612713605
H           -3.03477780925647        3.51327843551039       -1.19046707020185
H           -0.49475154332276        2.53891986985398       -0.61403100878766
H            1.72529209060901        2.20149220646063       -0.45519754906051
H            5.41021423478722        3.60881277269037       -0.56670443951263
H            5.23460960742085        2.77032284983634       -2.12152131289502
H            6.85500919862971        3.30780472807832       -1.58106693104158
H            5.82890605762924       -3.36226549557411        2.13424573425327
H            6.49202549440351       -1.69743015310606        2.16720600743791
H            6.30116806056382       -2.53358178448467        0.61669238422475
H            1.12478583446489       -0.77797590080364        1.60053610145368
H           -1.14516578055391       -1.55109947304985        2.20558243168159

 projected vibrational frequencies (cm⁻¹)
eigval :       -0.00    -0.00     0.00     0.00     0.00     0.00
eigval :       15.37    17.81    22.68    40.71    47.34    59.03
eigval :       66.35    74.96    84.37    94.29    95.06   105.80
eigval :      111.33   124.85   126.24   130.26   134.98   141.66
eigval :      147.54   169.17   191.71   200.40   200.81   216.56
eigval :      223.83   241.72   252.96   255.64   265.97   273.22
eigval :      289.84   305.94   321.04   341.11   361.62   399.64
eigval :      405.30   422.47   434.90   447.32   495.57   507.39
eigval :      509.66   529.96   546.84   548.01   559.49   565.08
eigval :      580.87   602.63   607.02   630.08   653.88   660.35
eigval :      663.64   699.24   709.85   713.25   729.89   742.96
eigval :      750.45   755.67   767.46   774.02   792.68   813.30
eigval :      818.40   825.24   841.83   866.76   875.77   895.01
eigval :      906.44   926.63   943.26   954.73   966.43   982.39
eigval :      986.62  1008.48  1023.20  1034.60  1044.56  1045.68
eigval :     1079.75  1085.44  1096.77  1104.74  1112.82  1115.23
eigval :     1121.23  1122.75  1123.13  1125.85  1129.65  1132.19
eigval :     1137.43  1151.19  1159.10  1163.86  1176.56  1190.65
eigval :     1201.93  1218.06  1226.51  1235.05  1240.11  1247.11
eigval :     1265.27  1272.87  1279.41  1281.36  1290.60  1298.52
eigval :     1301.96  1304.13  1315.01  1323.23  1343.27  1347.48
eigval :     1352.37  1363.23  1370.75  1373.88  1374.55  1380.58
eigval :     1387.89  1394.75  1403.16  1407.76  1416.34  1419.43
eigval :     1420.48  1437.82  1441.57  1442.33  1459.96  1465.86
eigval :     1467.98  1471.73  1476.31  1487.52  1491.68  1492.87
eigval :     1497.21  1500.01  1501.63  1504.29  1510.39  1514.20
eigval :     1546.68  1572.82  2939.68  2956.77  2958.71  2961.31
eigval :     2964.40  2970.44  2973.15  2973.66  2976.23  2978.88
eigval :     2979.66  2981.76  2987.64  2987.72  2995.92  2998.74
eigval :     3007.00  3011.61  3024.90  3030.04  3030.37  3032.73
eigval :     3038.46  3072.03  3072.64  3077.47  3086.23  3097.59
eigval :     3102.36  3164.35  3379.22

   temp. (K)  partition function   enthalpy   heat capacity  entropy
                                   cal/mol     cal/K/mol   cal/K/mol   J/K/mol
 298.15  VIB  0.855E+14            18218.848    109.730    115.418
         ROT  0.257E+08              888.752      2.981     36.884
         INT  0.219E+22            19107.600    112.711    152.302
         TR   0.873E+28             1481.254      4.968     44.070
         TOT                       20588.8542   117.6793   196.3725   821.6226

       T/K    H(0)-H(T)+PV         H(T)/Eh          T*S/Eh         G(T)/Eh
   ------------------------------------------------------------------------
    298.15    0.328104E-01    0.545847E+00    0.933029E-01    0.452544E+00
   ------------------------------------------------------------------------

         :::::::::::::::::::::::::::::::::::::::::::::::::::::
         ::                  THERMODYNAMIC                  ::
         :::::::::::::::::::::::::::::::::::::::::::::::::::::
         :: total free energy         -91.666138533122 Eh   ::
         ::.................................................::
         :: total energy              -92.118682559455 Eh   ::
         :: zero point energy           0.513036512068 Eh   ::
         :: G(RRHO) w/o ZPVE           -0.060492485735 Eh   ::
         :: G(RRHO) contrib.            0.452544026333 Eh   ::
         :::::::::::::::::::::::::::::::::::::::::::::::::::::

           -------------------------------------------------
          | TOTAL ENERGY              -92.118682559455 Eh   |
          | TOTAL ENTHALPY            -91.572835619807 Eh   |
          | TOTAL FREE ENERGY         -91.666138533122 Eh   |
          | GRADIENT NORM               0.000042760350 Eh/α |
           -------------------------------------------------

 * finished run on 2025/09/13 at 14:07:36.575
