   * xtb version 6.7.1 (edcfbbe) compiled by 'albert@albert-system' on 2024-07-22

   ID    Z sym.   atoms
    1    6 C      1-8, 10-18, 20, 22, 24, 26, 28, 30-32
    2    7 N      9, 19, 21, 25, 29
    3    8 O      23, 27
    4    1 H      33-63

          program call               : xtb data2507/gas/1CM/1CM_gas_S0_crest.xyz --gfn 2 --ohess vtight --parallel 40 --molden --ceasefiles --namespace data2507/gas/1CM/1CM_gas_S0_finalOpt
          :  Hamiltonian                  GFN2-xTB          :
 * total energy  :   -92.2256161 Eh     change       -0.2708219E-08 Eh
 * total energy  :   -92.2256178 Eh     change       -0.1734386E-05 Eh
 * total energy  :   -92.2256201 Eh     change       -0.2301176E-05 Eh
 * total energy  :   -92.2256219 Eh     change       -0.1752438E-05 Eh
 * total energy  :   -92.2256238 Eh     change       -0.1963129E-05 Eh
 * total energy  :   -92.2256264 Eh     change       -0.2555464E-05 Eh
 * total energy  :   -92.2256283 Eh     change       -0.1936464E-05 Eh
 * total energy  :   -92.2256294 Eh     change       -0.1073066E-05 Eh
 * total energy  :   -92.2256304 Eh     change       -0.1030826E-05 Eh
 * total energy  :   -92.2256323 Eh     change       -0.1832231E-05 Eh
 * total energy  :   -92.2256424 Eh     change       -0.1510765E-05 Eh
 * total energy  :   -92.2256438 Eh     change       -0.1480193E-05 Eh
 * total energy  :   -92.2256453 Eh     change       -0.1483683E-05 Eh
 * total energy  :   -92.2256464 Eh     change       -0.1107590E-05 Eh
 * total energy  :   -92.2256472 Eh     change       -0.8029571E-06 Eh
 * total energy  :   -92.2256479 Eh     change       -0.6579104E-06 Eh
 * total energy  :   -92.2256485 Eh     change       -0.5946258E-06 Eh
 * total energy  :   -92.2256490 Eh     change       -0.5214049E-06 Eh
 * total energy  :   -92.2256490 Eh     change       -0.1171757E-07 Eh
   *** GEOMETRY OPTIMIZATION CONVERGED AFTER 22 ITERATIONS ***

 final structure:
================
63
 xtb: 6.7.1 (edcfbbe)
C            1.64239701934878       -1.51294180118611       -2.17744362582741
C            0.36901019096546       -2.20406203950356       -2.64926331281282
C           -0.82802428158076       -1.82615632916085       -1.78122314034225
C           -2.12927122527982       -2.45060448012750       -2.28021084879845
C           -3.33609109909705       -2.07188923243706       -1.41921585156788
C           -3.39704865800134       -2.85558663768695       -0.10726051158378
C           -4.52335270463355       -2.37948794168340        0.81891777629259
C           -4.06791575796710       -1.33448360450082        1.84869013568181
N           -3.47461917728978       -0.17091636322027        1.25074501855703
C           -4.16759437087516        0.81964759318787        0.59769912571918
C           -5.53771356031227        1.00572408165743        0.46951737894610
C           -5.97805566540815        2.10563969614235       -0.24022548276663
C           -5.08430554182360        3.00630823863250       -0.81654103583392
C           -3.72113506254981        2.82983015006989       -0.69317340730170
C           -3.25325007761383        1.73258928808970        0.01800021697434
C           -1.94245232785621        1.24503488608986        0.33754886963010
C           -0.66422576510862        1.68747357399778        0.03225307173842
C            0.42633783816896        0.95754725711014        0.48697142830290
N            1.69869284024154        1.41966673320297        0.14174567295356
C            2.90666493497763        0.84205822479371        0.25523956066907
N            3.91607503613786        1.57105431534672       -0.25339670685471
C            5.10945133947811        1.01752565995309       -0.16171815760246
O            6.16706558673269        1.66228626938603       -0.63105864770887
C            5.92129769850918        2.93106352208909       -1.20877406200525
N            5.36781189853544       -0.17254091303244        0.37401905359077
C            4.30322669955973       -0.80523311659376        0.84599472987081
O            4.45447120694534       -1.99867710893124        1.39707640186477
C            5.77576982703354       -2.51002455331576        1.42917444297218
N            3.05884573206546       -0.35080511803078        0.82214936352957
C            0.23545139955730       -0.18713741741869        1.26938526599830
C           -1.03127926117741       -0.63558629580704        1.58081126379036
C           -2.12846264583681        0.06764082565964        1.10159642388644
H            2.49466898907738       -1.82164394415021       -2.77944235335762
H            1.53940465821529       -0.43251666872217       -2.25814773688616
H            1.84793629073469       -1.75386596767313       -1.13679681822873
H            0.51006497906484       -3.28699953835125       -2.61831666212992
H            0.16830278856391       -1.92701072431111       -3.68735723101428
H           -0.93552902255466       -0.73896601166040       -1.77052735249345
H           -0.62896378156179       -2.14166103676789       -0.75645310971210
H           -2.02834034111555       -3.53840554743963       -2.30716072475298
H           -2.30647388934247       -2.11214871233364       -3.30405415422727
H           -4.25291958964509       -2.27005212932574       -1.98102736257106
H           -3.30073593167453       -1.00055670560579       -1.21986355983212
H           -3.55166668390233       -3.90998148790622       -0.34774649979048
H           -2.44227779711000       -2.77722660186140        0.41224172536513
H           -4.92815372639922       -3.22566314509015        1.37779036136489
H           -5.33180550961285       -1.96365239765896        0.21490565983366
H           -3.33351964591658       -1.78186396515064        2.52193400066538
H           -4.92901582989227       -1.02085353819053        2.44947458167207
H           -6.24357138988130        0.31845104730942        0.91101216940866
H           -7.03951289985960        2.27172880860503       -0.35258130924331
H           -5.46920543078540        3.85303744921674       -1.36523883467392
H           -3.02906562202248        3.52915618226119       -1.13806850677671
H           -0.52201372358581        2.58152604970341       -0.55792165347001
H            1.72940231490487        2.30728762333767       -0.34301493029168
H            5.47372792352538        3.60751576510306       -0.47761669953786
H            5.24612985209109        2.84134776042921       -2.06233762555525
H            6.89190654301739        3.30382233551338       -1.52846677708823
H            5.70336083239858       -3.48396684792995        1.90840346517413
H            6.43083689685660       -1.84834319837206        1.99868278895430
H            6.17482237559192       -2.60726521875364        0.41792781201788
H            1.10323899756129       -0.72220485375892        1.61381510057536
H           -1.14662049289242       -1.52141095873809        2.18729205773204

          :  Hamiltonian                  GFN2-xTB          :
         :: gradient norm              0.000054992555 Eh/a0 ::
         :: HOMO-LUMO gap              2.999617284364 eV    ::
         :: SCC energy               -93.577186904052 Eh    ::
         :: -> dispersion             -0.074488152244 Eh    ::
         :: repulsion energy           1.351537875479 Eh    ::

    * Orbital Energies and Occupations

         #    Occupation            Energy/Eh            Energy/eV
      -------------------------------------------------------------
         1        2.0000           -0.7305029             -19.8780
       ...           ...                  ...                  ...
        72        2.0000           -0.4216633             -11.4740
        73        2.0000           -0.4197181             -11.4211
        74        2.0000           -0.4188664             -11.3979
        75        2.0000           -0.4175443             -11.3620
        76        2.0000           -0.4155001             -11.3063
        77        2.0000           -0.4151362             -11.2964
        78        2.0000           -0.4123338             -11.2202
        79        2.0000           -0.4091820             -11.1344
        80        2.0000           -0.3904946             -10.6259
        81        2.0000           -0.3813507             -10.3771
        82        2.0000           -0.3741945             -10.1823
        83        2.0000           -0.3730636             -10.1516
        84        2.0000           -0.3524090              -9.5895 (HOMO)
        85                         -0.2421751              -6.5899 (LUMO)
        86                         -0.2401351              -6.5344
        87                         -0.2327378              -6.3331
        88                         -0.2112245              -5.7477
        89                         -0.1869253              -5.0865
        90                         -0.1762858              -4.7970
        91                         -0.1100061              -2.9934
        92                         -0.0862895              -2.3481
        93                         -0.0552843              -1.5044
        94                          0.0050517               0.1375
        95                          0.0160145               0.4358
       ...                                ...                  ...
       159                          0.7496758              20.3997
      -------------------------------------------------------------
                  HL-Gap            0.1102339 Eh            2.9996 eV

     #   Z          covCN         q      C6AA      α(0)
     1   6 C        3.752    -0.098    22.437     6.755
     2   6 C        3.801    -0.052    21.505     6.603
     3   6 C        3.803    -0.059    21.636     6.622
     4   6 C        3.802    -0.059    21.629     6.621
     5   6 C        3.801    -0.058    21.614     6.619
     6   6 C        3.801    -0.060    21.653     6.625
     7   6 C        3.800    -0.064    21.737     6.638
     8   6 C        3.739    -0.000    20.660     6.486
     9   7 N        2.796    -0.043    22.066     6.977
    10   6 C        3.084     0.045    26.894     8.501
    11   6 C        2.910    -0.052    29.294     8.875
    12   6 C        2.923    -0.034    28.851     8.808
    13   6 C        2.920    -0.043    29.058     8.840
    14   6 C        2.912    -0.033    28.831     8.805
    15   6 C        3.069    -0.020    28.432     8.743
    16   6 C        3.070    -0.017    28.357     8.732
    17   6 C        2.919    -0.058    29.439     8.897
    18   6 C        2.905     0.063    26.579     8.453
    19   7 N        2.717    -0.134    23.900     7.261
    20   6 C        2.927     0.257    22.692     7.812
    21   7 N        1.851    -0.383    30.855     8.233
    22   6 C        2.913     0.338    21.274     7.563
    23   8 O        1.709    -0.236    17.913     5.714
    24   6 C        3.663     0.028    20.359     6.472
    25   7 N        1.835    -0.365    30.369     8.167
    26   6 C        2.922     0.337    21.299     7.568
    27   8 O        1.709    -0.234    17.870     5.708
    28   6 C        3.664     0.026    20.394     6.478
    29   7 N        1.839    -0.340    29.690     8.075
    30   6 C        2.923    -0.051    29.274     8.873
    31   6 C        2.911    -0.047    29.172     8.857
    32   6 C        3.078     0.043    26.958     8.512
    33   1 H        0.925     0.029     2.603     2.523
    34   1 H        0.925     0.025     2.659     2.550
    35   1 H        0.925     0.040     2.444     2.445
    36   1 H        0.924     0.028     2.613     2.528
    37   1 H        0.924     0.026     2.640     2.541
    38   1 H        0.924     0.029     2.607     2.525
    39   1 H        0.924     0.033     2.545     2.495
    40   1 H        0.924     0.029     2.598     2.521
    41   1 H        0.924     0.028     2.610     2.526
    42   1 H        0.924     0.026     2.646     2.544
    43   1 H        0.924     0.035     2.516     2.481
    44   1 H        0.924     0.031     2.569     2.507
    45   1 H        0.925     0.041     2.435     2.440
    46   1 H        0.924     0.036     2.499     2.472
    47   1 H        0.924     0.042     2.417     2.431
    48   1 H        0.924     0.050     2.322     2.383
    49   1 H        0.924     0.043     2.412     2.429
    50   1 H        0.926     0.024     2.674     2.557
    51   1 H        0.926     0.027     2.629     2.536
    52   1 H        0.926     0.026     2.646     2.544
    53   1 H        0.926     0.028     2.622     2.532
    54   1 H        0.926     0.028     2.608     2.525
    55   1 H        0.860     0.192     1.148     1.679
    56   1 H        0.924     0.062     2.178     2.308
    57   1 H        0.924     0.062     2.179     2.308
    58   1 H        0.925     0.073     2.053     2.241
    59   1 H        0.925     0.073     2.057     2.243
    60   1 H        0.924     0.066     2.131     2.283
    61   1 H        0.924     0.066     2.130     2.282
    62   1 H        0.926     0.074     2.040     2.234
    63   1 H        0.926     0.030     2.582     2.513

molecular dipole:
                 x           y           z       tot (Debye)
 q only:       -0.706      -0.078       0.088
   full:       -0.637       0.093       0.022       1.638

 projected vibrational frequencies (cm⁻¹)
eigval :       -0.00    -0.00    -0.00     0.00     0.00     0.00
eigval :       16.12    18.11    21.80    41.40    47.34    59.84
eigval :       66.43    71.55    89.68    94.43    98.21   107.14
eigval :      112.47   125.49   128.05   132.48   137.72   141.66
eigval :      148.81   174.71   194.20   200.95   201.84   220.35
eigval :      235.10   238.69   250.42   263.55   274.35   281.76
eigval :      298.00   312.49   329.92   379.58   395.82   405.66
eigval :      423.41   426.84   442.12   456.15   502.84   512.85
eigval :      531.29   539.29   555.12   563.75   577.51   584.22
eigval :      590.92   616.29   621.55   647.41   670.37   672.31
eigval :      707.57   712.28   729.81   763.03   765.43   768.85
eigval :      771.63   775.57   816.00   818.86   837.70   856.85
eigval :      865.16   879.34   897.91   900.05   908.82   920.05
eigval :      926.37   928.16   947.05   964.71   989.64  1010.51
eigval :     1013.10  1034.99  1042.19  1045.41  1058.56  1072.35
eigval :     1085.04  1106.24  1109.14  1114.58  1121.22  1122.76
eigval :     1125.67  1131.22  1135.51  1139.04  1154.02  1160.99
eigval :     1167.28  1172.07  1175.41  1184.87  1191.55  1209.60
eigval :     1230.99  1234.33  1237.40  1248.95  1262.67  1270.11
eigval :     1280.64  1291.09  1291.19  1299.26  1308.79  1315.72
eigval :     1332.40  1335.91  1347.19  1347.93  1357.63  1369.20
eigval :     1372.02  1375.25  1375.96  1381.04  1386.40  1413.26
eigval :     1416.43  1420.85  1427.94  1438.10  1441.86  1444.37
eigval :     1465.65  1466.51  1467.33  1472.80  1478.33  1487.98
eigval :     1489.46  1492.57  1497.68  1500.22  1502.22  1504.43
eigval :     1510.71  1541.65  1553.62  1570.62  1584.72  1587.81
eigval :     1603.11  1620.31  2933.02  2955.30  2958.08  2960.24
eigval :     2967.17  2967.96  2973.46  2974.35  2975.62  2976.88
eigval :     2981.27  2981.34  2985.23  2988.36  2993.67  2999.02
eigval :     3010.00  3014.01  3025.02  3029.15  3031.24  3032.69
eigval :     3039.99  3071.68  3074.32  3079.14  3079.74  3086.31
eigval :     3094.28  3140.76  3412.92

   temp. (K)  partition function   enthalpy   heat capacity  entropy
                                   cal/mol     cal/K/mol   cal/K/mol   J/K/mol
 298.15  VIB  0.496E+14            17819.930    107.021    113.075
         ROT  0.255E+08              888.752      2.981     36.869
         INT  0.126E+22            18708.682    110.002    149.944
         TR   0.873E+28             1481.254      4.968     44.070
         TOT                       20189.9360   114.9701   194.0145   811.7567

       T/K    H(0)-H(T)+PV         H(T)/Eh          T*S/Eh         G(T)/Eh
   ------------------------------------------------------------------------
    298.15    0.321747E-01    0.551664E+00    0.921826E-01    0.459481E+00
   ------------------------------------------------------------------------

         :::::::::::::::::::::::::::::::::::::::::::::::::::::
         ::                  THERMODYNAMIC                  ::
         :::::::::::::::::::::::::::::::::::::::::::::::::::::
         :: total free energy         -91.766167880243 Eh   ::
         ::.................................................::
         :: total energy              -92.225649028574 Eh   ::
         :: zero point energy           0.519488994996 Eh   ::
         :: G(RRHO) w/o ZPVE           -0.060007846665 Eh   ::
         :: G(RRHO) contrib.            0.459481148331 Eh   ::
         :::::::::::::::::::::::::::::::::::::::::::::::::::::

           -------------------------------------------------
          | TOTAL ENERGY              -92.225649028574 Eh   |
          | TOTAL ENTHALPY            -91.673985322632 Eh   |
          | TOTAL FREE ENERGY         -91.766167880243 Eh   |
          | GRADIENT NORM               0.000054989746 Eh/α |
          | HOMO-LUMO GAP               2.999617621150 eV   |
           -------------------------------------------------

 * finished run on 2025/09/13 at 14:07:30.357
