   * xtb version 6.7.1 (edcfbbe) compiled by 'albert@albert-system' on 2024-07-22

   ID    Z sym.   atoms
    1    6 C      1-8, 10-18, 20, 22, 24, 26, 28, 30-32
    2    7 N      9, 19, 21, 25, 29
    3    8 O      23, 27
    4    1 H      33-63

          program call               : xtb data2507/gas/1CM/1CM_gas_T1_crest.xyz --gfn 2 --spinpol --tblite --uhf 2 --ohess vtight --parallel 40 --molden --ceasefiles --namespace data2507/gas/1CM/1CM_gas_T1_finalOpt
 * total energy  :   -92.1184517 Eh     change       -0.1206762E-07 Eh
 * total energy  :   -92.1185004 Eh     change       -0.4878968E-04 Eh
 * total energy  :   -92.1171518 Eh     change        0.1348654E-02 Eh
 * total energy  :   -92.1186404 Eh     change       -0.1488578E-02 Eh
 * total energy  :   -92.1186651 Eh     change       -0.2474921E-04 Eh
 * total energy  :   -92.1186732 Eh     change       -0.8073141E-05 Eh
 * total energy  :   -92.1186746 Eh     change       -0.1391076E-05 Eh
 * total energy  :   -92.1186753 Eh     change       -0.7216920E-06 Eh
 * total energy  :   -92.1186758 Eh     change       -0.5194635E-06 Eh
 * total energy  :   -92.1186767 Eh     change       -0.8346249E-06 Eh
 * total energy  :   -92.1186798 Eh     change       -0.3830194E-06 Eh
 * total energy  :   -92.1186802 Eh     change       -0.3796834E-06 Eh
 * total energy  :   -92.1186804 Eh     change       -0.2303773E-06 Eh
 * total energy  :   -92.1186808 Eh     change       -0.3216710E-06 Eh
 * total energy  :   -92.1186811 Eh     change       -0.3475640E-06 Eh
 * total energy  :   -92.1186815 Eh     change       -0.3493506E-06 Eh
 * total energy  :   -92.1186816 Eh     change       -0.1556114E-06 Eh
 * total energy  :   -92.1186816 Eh     change        0.3113200E-07 Eh
 * total energy  :   -92.1186817 Eh     change       -0.8115875E-07 Eh
   *** GEOMETRY OPTIMIZATION CONVERGED AFTER 22 ITERATIONS ***

 final structure:
================
63
 xtb: 6.7.1 (edcfbbe)
C            1.55416376848743       -1.30405174259613       -2.34971303469845
C            0.27957322077559       -1.98483177959271       -2.83347280389399
C           -0.90791332229208       -1.65701463888062       -1.93251172416493
C           -2.20917362480423       -2.27753490575782       -2.43646327560769
C           -3.40352658395532       -1.96332091503879       -1.53308682914710
C           -3.42760998110642       -2.82041626928552       -0.26631460177559
C           -4.53192430040395       -2.40290862545105        0.71241845865977
C           -4.04290429550883       -1.43832932549547        1.80628886875771
N           -3.44020790250824       -0.25381784120858        1.27207375682809
C           -4.15464514404547        0.79173215506787        0.68919356854965
C           -5.51222309537872        0.97250227552854        0.61538042378503
C           -5.98547476163261        2.14420199782805       -0.04182073501692
C           -5.10665944242395        3.05261924311064       -0.57806910844780
C           -3.72082438186107        2.87112664081247       -0.50388002727902
C           -3.23345479657966        1.72427171660131        0.14420821374688
C           -1.93714810214987        1.22699999392767        0.40766286001368
C           -0.65063993214019        1.66016188716721        0.10305719486067
C            0.44152743867710        0.88434823555604        0.49207538385678
N            1.68203880727310        1.32891467905256        0.13620466748784
C            2.92074175599500        0.76944060036135        0.25953399778370
N            3.90711164363922        1.53435875795502       -0.24559154247285
C            5.11528044497648        1.01436204709356       -0.15591650191784
O            6.15519268610239        1.68807706214688       -0.62666497189543
C            5.87359258513608        2.94743648163449       -1.20748494557433
N            5.40941666314544       -0.17016802069293        0.38181751492917
C            4.35848049603198       -0.83844157487000        0.85071815245033
O            4.54692340363630       -2.02681208843386        1.40464278023536
C            5.88482935118679       -2.49081484202923        1.44858453730475
N            3.10193546450718       -0.42463206483848        0.81743108442584
C            0.26324572468954       -0.32377143992692        1.23982462107343
C           -1.01404983695395       -0.76821159495891        1.55117231915846
C           -2.10628743191109       -0.03019724683335        1.13074681742391
H            2.40050607843068       -1.58197477159226       -2.97437757932014
H            1.44291958248233       -0.22205194658769       -2.38610201297674
H            1.77487895238128       -1.58695669659079       -1.32269630324234
H            0.43020379423645       -3.06668784009811       -2.85204911806026
H            0.06150350635115       -1.66428785867912       -3.85536771503802
H           -1.02921547164869       -0.57255407013409       -1.87675692707649
H           -0.68812319414892       -2.01113868395782       -0.92465041356228
H           -2.09170781534098       -3.36074880396527       -2.52016748660117
H           -2.41303389940502       -1.89125467598539       -3.43801425027980
H           -4.32883267668945       -2.14245174120592       -2.08705049238106
H           -3.37861107981261       -0.90402445157315       -1.27513486007372
H           -3.58363675938173       -3.86050973955399       -0.56127514477905
H           -2.45949824375330       -2.76647194496002        0.23180883692712
H           -4.93528568764900       -3.28130854843104        1.21958720874638
H           -5.34631816900008       -1.93478834913374        0.15712642210780
H           -3.30760043647536       -1.94441891443354        2.43539439262107
H           -4.89158754453626       -1.14776105508729        2.43474543764457
H           -6.21595538621710        0.27270824328459        1.03774351750381
H           -7.04977296041854        2.30480467076232       -0.11054508297715
H           -5.49033740610535        3.93327954369453       -1.07320694808511
H           -3.04301352822071        3.59066415888153       -0.93364070542506
H           -0.50008782481483        2.57645246796622       -0.44893119205204
H            1.72012438432748        2.21997605895745       -0.34632983896409
H            5.41124230221930        3.61476733614781       -0.47692410045849
H            5.19787714187089        2.83704788413441       -2.05840624541347
H            6.83251767728121        3.34506722843932       -1.53242333341482
H            5.84318094348542       -3.46499569703833        1.93110187381299
H            6.51188546991497       -1.80448233273380        2.02055020135037
H            6.29527935083139       -2.57751142783237        0.44091032063125
H            1.13502568082161       -0.87368194765784        1.53900581367611
H           -1.13031135071994       -1.68149294068963        2.11515847121902

 projected vibrational frequencies (cm⁻¹)
eigval :       -0.00    -0.00     0.00     0.00     0.00     0.00
eigval :       15.40    17.53    22.69    41.00    47.39    59.12
eigval :       67.06    75.50    84.24    94.42    95.12   105.81
eigval :      111.49   124.74   126.24   130.18   134.69   141.71
eigval :      147.71   169.27   191.94   200.56   200.95   216.34
eigval :      223.92   242.39   253.13   255.76   265.74   273.32
eigval :      289.73   305.90   320.65   341.05   361.46   399.56
eigval :      405.32   422.46   434.84   447.43   495.84   507.39
eigval :      509.72   530.12   547.32   548.25   559.41   565.08
eigval :      580.95   603.39   606.44   630.10   654.46   660.62
eigval :      663.74   698.44   710.39   713.41   730.39   742.95
eigval :      750.42   755.82   767.62   774.06   792.62   813.34
eigval :      818.54   825.12   841.84   865.57   875.66   895.09
eigval :      906.94   926.62   943.27   954.69   966.10   982.69
eigval :      986.58  1008.40  1023.26  1034.66  1044.66  1045.55
eigval :     1079.78  1085.42  1096.66  1104.70  1112.85  1115.62
eigval :     1121.29  1122.88  1123.18  1125.86  1129.62  1132.38
eigval :     1137.60  1151.24  1159.14  1163.94  1176.71  1190.78
eigval :     1201.86  1218.19  1226.53  1235.08  1240.18  1246.90
eigval :     1265.44  1272.96  1279.65  1281.49  1290.78  1298.67
eigval :     1302.03  1304.10  1315.08  1323.62  1343.55  1347.61
eigval :     1352.57  1363.11  1370.81  1374.05  1374.72  1380.79
eigval :     1387.85  1394.76  1403.04  1407.89  1416.44  1419.22
eigval :     1420.52  1437.64  1441.42  1442.45  1460.23  1466.03
eigval :     1468.07  1472.11  1476.54  1487.45  1491.88  1492.90
eigval :     1497.18  1500.09  1501.69  1504.44  1510.42  1514.46
eigval :     1546.95  1572.64  2939.75  2956.96  2959.01  2961.54
eigval :     2964.43  2970.71  2973.18  2974.15  2976.71  2979.04
eigval :     2979.89  2982.14  2987.83  2988.00  2996.31  2998.98
eigval :     3007.18  3011.83  3025.24  3030.27  3030.41  3032.78
eigval :     3038.26  3072.17  3072.83  3077.80  3086.37  3097.90
eigval :     3102.30  3164.44  3378.99

   temp. (K)  partition function   enthalpy   heat capacity  entropy
                                   cal/mol     cal/K/mol   cal/K/mol   J/K/mol
 298.15  VIB  0.842E+14            18215.333    109.741    115.396
         ROT  0.256E+08              888.752      2.981     36.882
         INT  0.216E+22            19104.085    112.722    152.277
         TR   0.873E+28             1481.254      4.968     44.070
         TOT                       20585.3391   117.6897   196.3477   821.5190

       T/K    H(0)-H(T)+PV         H(T)/Eh          T*S/Eh         G(T)/Eh
   ------------------------------------------------------------------------
    298.15    0.328048E-01    0.545876E+00    0.932911E-01    0.452585E+00
   ------------------------------------------------------------------------

         :::::::::::::::::::::::::::::::::::::::::::::::::::::
         ::                  THERMODYNAMIC                  ::
         :::::::::::::::::::::::::::::::::::::::::::::::::::::
         :: total free energy         -91.666096339908 Eh   ::
         ::.................................................::
         :: total energy              -92.118681670539 Eh   ::
         :: zero point energy           0.513071652715 Eh   ::
         :: G(RRHO) w/o ZPVE           -0.060486322084 Eh   ::
         :: G(RRHO) contrib.            0.452585330631 Eh   ::
         :::::::::::::::::::::::::::::::::::::::::::::::::::::

           -------------------------------------------------
          | TOTAL ENERGY              -92.118681670539 Eh   |
          | TOTAL ENTHALPY            -91.572805191877 Eh   |
          | TOTAL FREE ENERGY         -91.666096339908 Eh   |
          | GRADIENT NORM               0.000100928310 Eh/α |
           -------------------------------------------------

 * finished run on 2025/09/13 at 14:24:20.240
