   * xtb version 6.7.1 (edcfbbe) compiled by 'albert@albert-system' on 2024-07-22

   ID    Z sym.   atoms
    1    6 C      1-8, 10-18, 20, 22, 24, 26, 28, 30-32
    2    7 N      9, 19, 21, 25, 29
    3    8 O      23, 27
    4    1 H      33-63

          program call               : xtb data2507/gas/1CM/1CM.xyz --gfn 2 --ohess vtight --parallel 40 --molden --ceasefiles --namespace data2507/gas/1CM/1CM_gas_S0_preOpt
          :  Hamiltonian                  GFN2-xTB          :
 * total energy  :   -92.2031844 Eh     change       -0.5734364E-09 Eh
 * total energy  :   -92.2152842 Eh     change       -0.1209982E-01 Eh
 * total energy  :   -92.2189052 Eh     change       -0.3620970E-02 Eh
 * total energy  :   -92.2193616 Eh     change       -0.4563848E-03 Eh
 * total energy  :   -92.2196625 Eh     change       -0.3009859E-03 Eh
 * total energy  :   -92.2197621 Eh     change       -0.9957391E-04 Eh
 * total energy  :   -92.2198725 Eh     change       -0.1104226E-03 Eh
 * total energy  :   -92.2199589 Eh     change       -0.8635616E-04 Eh
 * total energy  :   -92.2200265 Eh     change       -0.6763115E-04 Eh
 * total energy  :   -92.2200852 Eh     change       -0.5868930E-04 Eh
 * total energy  :   -92.2202901 Eh     change       -0.2202490E-06 Eh
 * total energy  :   -92.2202903 Eh     change       -0.2234634E-06 Eh
 * total energy  :   -92.2202905 Eh     change       -0.1923273E-06 Eh
 * total energy  :   -92.2202907 Eh     change       -0.1773671E-06 Eh
 * total energy  :   -92.2202909 Eh     change       -0.1881475E-06 Eh
 * total energy  :   -92.2202911 Eh     change       -0.2474705E-06 Eh
 * total energy  :   -92.2202915 Eh     change       -0.3753893E-06 Eh
 * total energy  :   -92.2202919 Eh     change       -0.3775481E-06 Eh
 * total energy  :   -92.2202919 Eh     change       -0.2678505E-08 Eh
   *** GEOMETRY OPTIMIZATION CONVERGED AFTER 68 ITERATIONS ***

 final structure:
================
63
 xtb: 6.7.1 (edcfbbe)
C           -7.76270342532156        1.66583124013108        1.42148618282362
C           -6.52267580356691        2.43698253831972        1.85843105851475
C           -5.67238227137834        2.92957384941057        0.68602801007679
C           -5.09160921390101        1.82972614698584       -0.20501326150134
C           -4.09693048540203        0.92686499453514        0.52183677780884
C           -3.49850646930601       -0.15575524523499       -0.37731276224431
C           -2.55045383776871        0.39749088625067       -1.43878795111362
C           -1.88407858697542       -0.71675909280225       -2.25590652627424
N           -1.00076938419612       -1.52639858827057       -1.46209165781594
C           -1.28705255617705       -2.74680372069962       -0.89952402716988
C           -2.43483369534378       -3.52392573767552       -0.98961794531213
C           -2.45443870931644       -4.73399137342455       -0.32460196098786
C           -1.36185662923888       -5.17480359653629        0.41946528529904
C           -0.21637549858306       -4.41116887001147        0.51420398826182
C           -0.17175495437260       -3.19055348438270       -0.14655137907815
C            0.82795866015019       -2.16863692473809       -0.26527361541984
C            2.11451200183772       -2.03116146823662        0.23283454508697
C            2.83984937112261       -0.88947265091458       -0.08501588279434
N            4.13369241312451       -0.78973586160798        0.43258139017543
C            5.07507867341440        0.15939228038241        0.29594870307055
N            6.22392350467165       -0.10911796893143        0.94351087220931
C            7.16374594672336        0.80782423407796        0.82286631481243
O            8.33079877241245        0.63131229800673        1.42439396489866
C            8.47730576793835       -0.56414178687105        2.16827384231320
N            7.05347710649290        1.93789592858597        0.12914124015618
C            5.88183721777737        2.10372617331683       -0.46822808961994
O            5.67275453003969        3.19714746598896       -1.18325138024777
C            6.74921046503978        4.11647665786355       -1.25011709544691
N            4.86274318753072        1.25795284804456       -0.42191482936607
C            2.27843431019126        0.10598227178816       -0.89393209403032
C            0.99863799597728       -0.01911296254300       -1.39444598565313
C            0.26855604089254       -1.15806750680055       -1.08245191745004
H           -7.49252320877194        0.72781141373438        0.94360035259297
H           -8.38694596559422        1.43713082267987        2.28247326403068
H           -8.34964049421091        2.25485682080797        0.71969951538371
H           -5.91892777848473        1.81211242475253        2.51842095315385
H           -6.83642466771658        3.30964817488042        2.43674928075119
H           -4.84859576899490        3.52883869425743        1.08221141794012
H           -6.28735126829133        3.58648670409557        0.06527786784547
H           -4.59002168711759        2.31483424715379       -1.04484585230954
H           -5.90010818638623        1.22164144444338       -0.61426135300461
H           -4.60280177124836        0.43384504827295        1.35349654119093
H           -3.29114868330444        1.53614546164851        0.93802308010231
H           -2.94869609836098       -0.86218413464817        0.24896747515836
H           -4.30848964862482       -0.70474242051336       -0.86423627198118
H           -1.77454954657965        0.99260362706820       -0.95289917627434
H           -3.09396583807168        1.04456802544680       -2.12846874361354
H           -1.30552699939389       -0.27421674403236       -3.07370378928530
H           -2.64823857199809       -1.36372824784439       -2.69288362600622
H           -3.29354568153603       -3.19999976171572       -1.55801326551947
H           -3.33783319259988       -5.35306715924923       -0.38151117059242
H           -1.41760991367911       -6.12693366025401        0.92585252645389
H            0.63147692446822       -4.75214762294156        1.08931246488232
H            2.54517007372628       -2.80197144618695        0.85573929627648
H            4.43832870361360       -1.56661697243207        1.00499052687645
H            7.73509984943646       -0.61422469246658        2.96770479487079
H            9.48244475954312       -0.53330786951554        2.58301433246938
H            8.35655039113401       -1.43684244532118        1.52303941636719
H            7.62911166017936        3.64705602357195       -1.69372520115521
H            7.01239886616578        4.47416299708798       -0.25303625692540
H            6.39768771875932        4.93712379726988       -1.87177179567084
H            2.87070082218566        0.97599724766847       -1.11895216352927
H            0.58788375725372        0.76054622830251       -2.01723025444639

          :  Hamiltonian                  GFN2-xTB          :
         :: gradient norm              0.000032891994 Eh/a0 ::
         :: HOMO-LUMO gap              3.009210872505 eV    ::
         :: SCC energy               -93.571845466303 Eh    ::
         :: -> dispersion             -0.066261098486 Eh    ::
         :: repulsion energy           1.351553603391 Eh    ::

    * Orbital Energies and Occupations

         #    Occupation            Energy/Eh            Energy/eV
      -------------------------------------------------------------
         1        2.0000           -0.7303240             -19.8731
       ...           ...                  ...                  ...
        72        2.0000           -0.4225833             -11.4991
        73        2.0000           -0.4220480             -11.4845
        74        2.0000           -0.4204552             -11.4412
        75        2.0000           -0.4180145             -11.3748
        76        2.0000           -0.4154514             -11.3050
        77        2.0000           -0.4153506             -11.3023
        78        2.0000           -0.4147122             -11.2849
        79        2.0000           -0.4127541             -11.2316
        80        2.0000           -0.3898602             -10.6086
        81        2.0000           -0.3810426             -10.3687
        82        2.0000           -0.3733131             -10.1584
        83        2.0000           -0.3725584             -10.1378
        84        2.0000           -0.3521149              -9.5815 (HOMO)
        85                         -0.2415284              -6.5723 (LUMO)
        86                         -0.2399112              -6.5283
        87                         -0.2324449              -6.3251
        88                         -0.2105795              -5.7302
        89                         -0.1858013              -5.0559
        90                         -0.1754066              -4.7731
        91                         -0.1095629              -2.9814
        92                         -0.0850176              -2.3134
        93                         -0.0543380              -1.4786
        94                          0.0050513               0.1375
        95                          0.0150931               0.4107
       ...                                ...                  ...
       159                          0.7505561              20.4237
      -------------------------------------------------------------
                  HL-Gap            0.1105865 Eh            3.0092 eV

     #   Z          covCN         q      C6AA      α(0)
     1   6 C        3.751    -0.101    22.494     6.764
     2   6 C        3.799    -0.053    21.524     6.606
     3   6 C        3.801    -0.058    21.621     6.620
     4   6 C        3.801    -0.059    21.630     6.622
     5   6 C        3.801    -0.059    21.637     6.623
     6   6 C        3.802    -0.057    21.606     6.618
     7   6 C        3.802    -0.064    21.728     6.637
     8   6 C        3.740    -0.001    20.678     6.488
     9   7 N        2.796    -0.045    22.118     6.985
    10   6 C        3.081     0.045    26.906     8.504
    11   6 C        2.910    -0.052    29.302     8.876
    12   6 C        2.923    -0.034    28.853     8.809
    13   6 C        2.920    -0.043    29.069     8.842
    14   6 C        2.912    -0.033    28.828     8.804
    15   6 C        3.071    -0.020    28.424     8.742
    16   6 C        3.068    -0.017    28.363     8.733
    17   6 C        2.919    -0.058    29.450     8.899
    18   6 C        2.905     0.062    26.618     8.460
    19   7 N        2.718    -0.134    23.902     7.261
    20   6 C        2.925     0.256    22.717     7.816
    21   7 N        1.851    -0.383    30.859     8.233
    22   6 C        2.912     0.338    21.278     7.564
    23   8 O        1.709    -0.236    17.916     5.715
    24   6 C        3.663     0.029    20.357     6.472
    25   7 N        1.835    -0.366    30.375     8.167
    26   6 C        2.921     0.336    21.301     7.568
    27   8 O        1.709    -0.233    17.862     5.706
    28   6 C        3.664     0.026    20.394     6.478
    29   7 N        1.839    -0.340    29.677     8.073
    30   6 C        2.923    -0.054    29.341     8.883
    31   6 C        2.910    -0.050    29.235     8.866
    32   6 C        3.082     0.039    27.029     8.523
    33   1 H        0.925     0.035     2.516     2.480
    34   1 H        0.925     0.031     2.579     2.511
    35   1 H        0.925     0.033     2.545     2.495
    36   1 H        0.924     0.031     2.578     2.511
    37   1 H        0.924     0.027     2.625     2.534
    38   1 H        0.924     0.028     2.618     2.530
    39   1 H        0.924     0.030     2.592     2.518
    40   1 H        0.924     0.028     2.619     2.531
    41   1 H        0.924     0.034     2.536     2.490
    42   1 H        0.924     0.035     2.516     2.480
    43   1 H        0.924     0.030     2.580     2.512
    44   1 H        0.924     0.035     2.516     2.480
    45   1 H        0.924     0.030     2.590     2.517
    46   1 H        0.924     0.043     2.408     2.427
    47   1 H        0.924     0.039     2.465     2.455
    48   1 H        0.924     0.045     2.381     2.413
    49   1 H        0.924     0.049     2.327     2.386
    50   1 H        0.926     0.024     2.678     2.559
    51   1 H        0.926     0.027     2.624     2.533
    52   1 H        0.926     0.026     2.644     2.543
    53   1 H        0.926     0.028     2.616     2.529
    54   1 H        0.926     0.029     2.596     2.520
    55   1 H        0.860     0.193     1.143     1.675
    56   1 H        0.924     0.062     2.179     2.309
    57   1 H        0.925     0.073     2.053     2.241
    58   1 H        0.924     0.062     2.180     2.309
    59   1 H        0.924     0.066     2.130     2.283
    60   1 H        0.924     0.066     2.130     2.282
    61   1 H        0.925     0.073     2.056     2.242
    62   1 H        0.926     0.077     2.015     2.220
    63   1 H        0.926     0.034     2.528     2.486

molecular dipole:
                 x           y           z       tot (Debye)
 q only:       -0.795      -0.178      -0.071
   full:       -0.656      -0.291       0.008       1.824

 projected vibrational frequencies (cm⁻¹)
eigval :       -0.00    -0.00     0.00     0.00     0.00     0.00
eigval :        9.16    12.74    14.96    24.25    29.93    37.50
eigval :       49.56    55.55    81.37    88.26    98.09   100.37
eigval :      108.79   121.83   126.25   130.29   134.54   140.68
eigval :      156.87   169.87   188.09   202.88   219.30   228.59
eigval :      234.27   238.32   252.88   263.16   272.15   276.78
eigval :      294.88   324.62   336.08   372.30   394.43   416.29
eigval :      425.48   426.76   449.79   466.36   502.76   527.04
eigval :      532.75   539.57   562.28   567.60   577.57   582.15
eigval :      587.14   620.29   621.63   647.58   670.52   672.57
eigval :      707.25   710.93   730.28   756.42   763.20   768.05
eigval :      770.08   783.37   812.19   816.21   839.40   856.27
eigval :      862.20   877.58   882.98   899.09   900.53   910.37
eigval :      918.97   925.44   954.16   989.55   990.43  1003.87
eigval :     1018.11  1032.15  1036.35  1044.76  1053.47  1066.43
eigval :     1073.78  1077.99  1109.31  1121.11  1121.34  1122.76
eigval :     1133.48  1134.94  1137.40  1152.28  1153.83  1159.43
eigval :     1163.93  1167.10  1173.55  1183.31  1189.60  1210.16
eigval :     1218.91  1233.38  1241.55  1246.67  1261.16  1269.68
eigval :     1275.44  1289.66  1297.25  1308.20  1313.57  1319.58
eigval :     1330.50  1337.66  1352.74  1356.19  1364.53  1370.63
eigval :     1371.95  1374.25  1376.04  1376.80  1383.58  1413.14
eigval :     1415.37  1416.49  1427.54  1438.27  1441.87  1444.98
eigval :     1463.66  1465.79  1467.40  1472.60  1477.76  1487.59
eigval :     1488.08  1489.85  1494.34  1495.02  1500.97  1506.22
eigval :     1516.32  1541.21  1553.70  1570.54  1584.40  1587.42
eigval :     1602.86  1620.12  2939.98  2957.40  2960.82  2963.43
eigval :     2966.61  2967.17  2972.67  2974.00  2975.49  2978.67
eigval :     2980.64  2981.34  2988.11  2988.20  2988.44  2992.42
eigval :     2995.44  2999.55  3030.18  3031.50  3032.55  3033.37
eigval :     3044.59  3072.37  3074.16  3079.19  3086.03  3090.01
eigval :     3094.39  3139.59  3411.82

   temp. (K)  partition function   enthalpy   heat capacity  entropy
                                   cal/mol     cal/K/mol   cal/K/mol   J/K/mol
 298.15  VIB  0.124E+16            17965.090    105.388    115.248
         ROT  0.439E+08              888.752      2.981     37.950
         INT  0.546E+23            18853.843    108.369    153.198
         TR   0.873E+28             1481.254      4.968     44.070
         TOT                       20335.0968   113.3367   197.2683   825.3707

       T/K    H(0)-H(T)+PV         H(T)/Eh          T*S/Eh         G(T)/Eh
   ------------------------------------------------------------------------
    298.15    0.324060E-01    0.551588E+00    0.937286E-01    0.457860E+00
   ------------------------------------------------------------------------

         :::::::::::::::::::::::::::::::::::::::::::::::::::::
         ::                  THERMODYNAMIC                  ::
         :::::::::::::::::::::::::::::::::::::::::::::::::::::
         :: total free energy         -91.762432065459 Eh   ::
         ::.................................................::
         :: total energy              -92.220291862916 Eh   ::
         :: zero point energy           0.519182312014 Eh   ::
         :: G(RRHO) w/o ZPVE           -0.061322514557 Eh   ::
         :: G(RRHO) contrib.            0.457859797457 Eh   ::
         :::::::::::::::::::::::::::::::::::::::::::::::::::::

           -------------------------------------------------
          | TOTAL ENERGY              -92.220291862916 Eh   |
          | TOTAL ENTHALPY            -91.668703511484 Eh   |
          | TOTAL FREE ENERGY         -91.762432065459 Eh   |
          | GRADIENT NORM               0.000032893173 Eh/α |
          | HOMO-LUMO GAP               3.009211063242 eV   |
           -------------------------------------------------

 * finished run on 2025/09/13 at 13:53:43.983
