   * xtb version 6.7.1 (edcfbbe) compiled by 'albert@albert-system' on 2024-07-22

   ID    Z sym.   atoms
    1    6 C      1-20, 22-34
    2   15 P      21
    3    1 H      35-85

          program call               : xtb data2507/gas/XPhos/XPhos.xyz --gfn 2 --ohess vtight --parallel 40 --molden --ceasefiles --namespace data2507/gas/XPhos/XPhos_gas_S0_preOpt
          :  Hamiltonian                  GFN2-xTB          :
 * total energy  :   -99.1729236 Eh     change       -0.1287773E-08 Eh
 * total energy  :   -99.1913013 Eh     change       -0.1837775E-01 Eh
 * total energy  :   -99.1972599 Eh     change       -0.5958544E-02 Eh
 * total energy  :   -99.1998595 Eh     change       -0.2599584E-02 Eh
 * total energy  :   -99.2010178 Eh     change       -0.1158305E-02 Eh
 * total energy  :   -99.2015984 Eh     change       -0.5806163E-03 Eh
 * total energy  :   -99.2019262 Eh     change       -0.3277949E-03 Eh
 * total energy  :   -99.2021251 Eh     change       -0.1989037E-03 Eh
 * total energy  :   -99.2022663 Eh     change       -0.1411577E-03 Eh
 * total energy  :   -99.2023833 Eh     change       -0.1170629E-03 Eh
 * total energy  :   -99.2033383 Eh     change       -0.4105643E-06 Eh
 * total energy  :   -99.2033387 Eh     change       -0.3626921E-06 Eh
 * total energy  :   -99.2033390 Eh     change       -0.3188708E-06 Eh
 * total energy  :   -99.2033392 Eh     change       -0.2697347E-06 Eh
 * total energy  :   -99.2033395 Eh     change       -0.2141347E-06 Eh
 * total energy  :   -99.2033396 Eh     change       -0.1824326E-06 Eh
 * total energy  :   -99.2033398 Eh     change       -0.1959340E-06 Eh
 * total energy  :   -99.2033401 Eh     change       -0.2684502E-06 Eh
 * total energy  :   -99.2033401 Eh     change       -0.1810918E-08 Eh
   *** GEOMETRY OPTIMIZATION CONVERGED AFTER 68 ITERATIONS ***

 final structure:
================
85
 xtb: 6.7.1 (edcfbbe)
C           -0.05605198352335        4.46159651459046        1.10359722669499
C           -0.83099069800625        4.02850511103258       -0.14698039941839
C           -2.06271108426700        4.91222073407084       -0.32968663027878
C           -1.15391907106988        2.55865020690889       -0.06338496611779
C           -2.34607536662088        2.04694104754132        0.23052444985464
C           -2.59125671415317        0.61253812983715        0.25866736635245
C           -3.92012705224747        0.26022259058483        0.90617605418313
C           -5.06517971660778        0.27168159372743       -0.11130838539679
C           -3.93929669675655       -1.03520012142385        1.71612172671677
C           -1.70866776370456       -0.24032184955671       -0.29710117997119
C           -2.06404010652057       -1.66042949023795       -0.52491494989998
C           -2.94755155546330       -1.99922794207871       -1.54698618660921
C           -3.29383981476797       -3.31786921155039       -1.78033345120642
C           -2.76557821695306       -4.32635302707842       -0.99304795506174
C           -1.90548548792039       -4.00155784402595        0.04103568350935
C           -1.56352323181676       -2.68166773653182        0.27404748189138
C           -0.35774371331907        0.24339576387991       -0.81907071851277
C           -0.32178317939755        0.34523936468664       -2.37240426002682
C           -1.42575097969734        1.25402726555025       -2.91482768722279
C           -0.35673029955698       -0.98919990941271       -3.11997533471316
P            0.96152858454345       -1.07612534386870       -0.32151311293444
C            2.56471028122823       -0.51528558679150       -1.15331729525414
C            3.11360726778857        0.91796061456829       -1.05311077643312
C            4.64391179208722        0.93414997143670       -1.14815454531257
C            5.11868034855761       -0.07751358743177       -2.18450998506341
C            4.81461060240016       -1.50720384725714       -1.71538277229336
C            3.63132455490141       -1.53649962079170       -0.74300891832670
C            1.19348020476157       -0.82795598730470        1.54894888771812
C            1.53744082391620       -2.20856218641360        2.12798681874776
C            1.15710447162040       -2.26623304862199        3.61074998003943
C            1.39461348674176       -0.90941776309825        4.28545461998690
C            2.54824504303761       -0.18741317793020        3.59941151870677
C            2.19580024370440        0.17218692852272        2.14388292655179
C           -0.00078927773272        1.61061254904487       -0.21489424409897
H           -0.65329376691215        4.27880295554643        1.99446035211913
H            0.17691713497675        5.52311036925592        1.05460217454845
H            0.87704555547790        3.91068697091593        1.19302411438538
H           -0.17591174551786        4.17715855937875       -1.01613142949999
H           -2.65746446391326        4.57272874514121       -1.17471592369427
H           -2.68324434854991        4.90053395690784        0.56294474971286
H           -1.75690136912028        5.93996365758411       -0.51448012437466
H           -3.19963590459387        2.67968307763879        0.41935673490377
H           -4.11603792353479        1.07311988994509        1.61840912093798
H           -5.02698232494563        1.17105967729487       -0.72303906399110
H           -6.02325565846894        0.24601755615752        0.40456074668599
H           -5.00620747390249       -0.59633990455561       -0.76149411033276
H           -4.81771580784001       -1.04307168464719        2.35967617807249
H           -3.05502669206731       -1.10725694603613        2.34505662523039
H           -3.98324115977083       -1.91101534927564        1.07682536028588
H           -3.36944957196358       -1.22099266417687       -2.16715036772446
H           -3.98049930751938       -3.55860491731834       -2.57979961328335
H           -3.03294447649175       -5.35654494855290       -1.17744087265991
H           -1.50517278150411       -4.77906451283585        0.67592497436319
H           -0.94213683144955       -2.43379939998640        1.11825014950803
H            0.63568971678743        0.82220808627305       -2.61323953959920
H           -1.39278931912358        1.25968971745057       -4.00303370000819
H           -2.40441059335603        0.90072471556072       -2.60134914017381
H           -1.30780612466953        2.27477808886877       -2.56281836811001
H            0.25114302264612       -1.74167312636318       -2.62010613516502
H            0.02799556165197       -0.85022328118871       -4.12950971379761
H           -1.36655458643554       -1.37589476006918       -3.19534972882812
H            2.34809417765559       -0.71964456694069       -2.21043109215660
H            2.81342755496894        1.40661933816736       -0.12876170871506
H            2.71383032713887        1.50871161285832       -1.88124568420082
H            5.09088790062360        0.69615106177531       -0.18085730366077
H            4.97547798683502        1.93847328153546       -1.42084394372751
H            4.60652300465358        0.12494279332336       -3.12766395642924
H            6.18909224563547        0.03766495465161       -2.36335418493158
H            4.59421075891281       -2.13359727982532       -2.58169760080531
H            5.69016768544669       -1.93231161534612       -1.22020461727037
H            3.19135148431518       -2.53751985008992       -0.73038595325412
H            3.98085128372017       -1.32579951607991        0.26785276722106
H            0.18123446390770       -0.56362681714670        1.88767517719663
H            1.02989359066067       -3.00585248198748        1.58116559736481
H            2.60793387123246       -2.38283983735125        2.00962556881611
H            0.10634560667897       -2.54581315280682        3.71565866203442
H            1.75109024943642       -3.03799875849504        4.10445223564398
H            0.49743544974653       -0.29021357809238        4.22023579969057
H            1.61571213834561       -1.05045792429553        5.34486271520603
H            3.42824731190220       -0.83322696524471        3.62623790063601
H            2.79931149678556        0.72474066363838        4.14470547141736
H            3.11783294661331        0.17921940808525        1.56559918940094
H            1.78399395980916        1.18341351450498        2.12811786285671
H            0.39984298719462        1.45727115263806        0.78861871305924
H            0.77713706272625        2.08002092903839       -0.81548505175836

          :  Hamiltonian                  GFN2-xTB          :
         :: gradient norm              0.000029377766 Eh/a0 ::
         :: HOMO-LUMO gap              2.981350775632 eV    ::
         :: SCC energy              -100.751185938894 Eh    ::
         :: -> dispersion             -0.108206743516 Eh    ::
         :: repulsion energy           1.547845836616 Eh    ::

    * Orbital Energies and Occupations

         #    Occupation            Energy/Eh            Energy/eV
      -------------------------------------------------------------
         1        2.0000           -0.6525996             -17.7581
       ...           ...                  ...                  ...
        82        2.0000           -0.4147936             -11.2871
        83        2.0000           -0.4134570             -11.2507
        84        2.0000           -0.4114805             -11.1970
        85        2.0000           -0.4106586             -11.1746
        86        2.0000           -0.4064952             -11.0613
        87        2.0000           -0.4039137             -10.9911
        88        2.0000           -0.3965206             -10.7899
        89        2.0000           -0.3938833             -10.7181
        90        2.0000           -0.3909317             -10.6378
        91        2.0000           -0.3870878             -10.5332
        92        2.0000           -0.3792088             -10.3188
        93        2.0000           -0.3472622              -9.4495
        94        2.0000           -0.3414727              -9.2919 (HOMO)
        95                         -0.2319101              -6.3106 (LUMO)
        96                         -0.2137050              -5.8152
        97                         -0.2098641              -5.7107
        98                         -0.1481367              -4.0310
        99                         -0.1441811              -3.9234
       100                         -0.1330085              -3.6193
       101                         -0.0855675              -2.3284
       102                         -0.0814080              -2.2152
       103                          0.0297967               0.8108
       104                          0.0445152               1.2113
       105                          0.0494148               1.3446
       ...                                ...                  ...
       192                          0.9137707              24.8650
      -------------------------------------------------------------
                  HL-Gap            0.1095626 Eh            2.9814 eV

     #   Z          covCN         q      C6AA      α(0)
     1   6 C        3.757    -0.100    22.454     6.756
     2   6 C        3.853    -0.011    20.740     6.477
     3   6 C        3.755    -0.104    22.536     6.769
     4   6 C        2.952    -0.003    28.102     8.695
     5   6 C        2.916    -0.059    29.472     8.902
     6   6 C        2.959    -0.009    28.232     8.715
     7   6 C        3.855    -0.013    20.770     6.482
     8   6 C        3.755    -0.099    22.450     6.756
     9   6 C        3.754    -0.102    22.500     6.764
    10   6 C        3.029    -0.010    28.233     8.716
    11   6 C        2.977     0.026    27.417     8.589
    12   6 C        2.927    -0.031    28.762     8.795
    13   6 C        2.919    -0.033    28.823     8.804
    14   6 C        2.920    -0.033    28.820     8.804
    15   6 C        2.919    -0.031    28.762     8.795
    16   6 C        2.932    -0.029    28.731     8.791
    17   6 C        3.848     0.024    20.131     6.382
    18   6 C        3.916    -0.008    20.657     6.460
    19   6 C        3.755    -0.101    22.483     6.761
    20   6 C        3.757    -0.105    22.552     6.771
    21  15 P        3.186    -0.198   169.353    23.377
    22   6 C        3.799    -0.006    20.695     6.477
    23   6 C        3.811    -0.052    21.493     6.599
    24   6 C        3.804    -0.052    21.504     6.602
    25   6 C        3.804    -0.054    21.544     6.608
    26   6 C        3.803    -0.056    21.578     6.613
    27   6 C        3.912    -0.050    21.405     6.576
    28   6 C        3.798    -0.004    20.652     6.471
    29   6 C        3.903    -0.054    21.485     6.589
    30   6 C        3.804    -0.054    21.543     6.608
    31   6 C        3.803    -0.053    21.524     6.605
    32   6 C        3.803    -0.054    21.535     6.607
    33   6 C        3.813    -0.050    21.461     6.594
    34   6 C        3.862    -0.062    21.655     6.618
    35   1 H        0.925     0.034     2.524     2.484
    36   1 H        0.925     0.035     2.522     2.483
    37   1 H        0.925     0.031     2.565     2.505
    38   1 H        0.923     0.028     2.616     2.530
    39   1 H        0.925     0.034     2.528     2.486
    40   1 H        0.925     0.037     2.492     2.469
    41   1 H        0.925     0.033     2.549     2.497
    42   1 H        0.926     0.027     2.627     2.535
    43   1 H        0.923     0.031     2.572     2.508
    44   1 H        0.925     0.031     2.576     2.510
    45   1 H        0.925     0.030     2.586     2.515
    46   1 H        0.925     0.036     2.503     2.474
    47   1 H        0.925     0.030     2.593     2.518
    48   1 H        0.925     0.030     2.593     2.518
    49   1 H        0.925     0.036     2.500     2.473
    50   1 H        0.926     0.027     2.631     2.537
    51   1 H        0.926     0.023     2.687     2.563
    52   1 H        0.926     0.024     2.670     2.555
    53   1 H        0.926     0.025     2.654     2.548
    54   1 H        0.926     0.047     2.352     2.398
    55   1 H        0.924     0.027     2.625     2.534
    56   1 H        0.925     0.031     2.568     2.506
    57   1 H        0.925     0.033     2.541     2.493
    58   1 H        0.925     0.033     2.549     2.497
    59   1 H        0.925     0.052     2.292     2.367
    60   1 H        0.925     0.028     2.614     2.528
    61   1 H        0.925     0.042     2.418     2.432
    62   1 H        0.927     0.046     2.364     2.404
    63   1 H        0.925     0.037     2.482     2.464
    64   1 H        0.924     0.021     2.726     2.582
    65   1 H        0.924     0.029     2.607     2.525
    66   1 H        0.924     0.024     2.674     2.557
    67   1 H        0.924     0.029     2.596     2.520
    68   1 H        0.924     0.025     2.661     2.551
    69   1 H        0.924     0.028     2.616     2.529
    70   1 H        0.924     0.026     2.639     2.541
    71   1 H        0.924     0.037     2.495     2.470
    72   1 H        0.925     0.032     2.558     2.501
    73   1 H        0.926     0.043     2.415     2.430
    74   1 H        0.924     0.038     2.474     2.460
    75   1 H        0.924     0.033     2.547     2.496
    76   1 H        0.924     0.025     2.659     2.550
    77   1 H        0.924     0.026     2.639     2.540
    78   1 H        0.924     0.028     2.610     2.527
    79   1 H        0.924     0.025     2.665     2.553
    80   1 H        0.924     0.029     2.596     2.520
    81   1 H        0.924     0.024     2.672     2.556
    82   1 H        0.925     0.038     2.476     2.461
    83   1 H        0.924     0.020     2.736     2.587
    84   1 H        0.924     0.052     2.298     2.371
    85   1 H        0.925     0.037     2.495     2.470

molecular dipole:
                 x           y           z       tot (Debye)
 q only:        0.275       0.278       0.089
   full:        0.377       0.640       0.181       1.943

 projected vibrational frequencies (cm⁻¹)
eigval :       -0.00    -0.00     0.00     0.00     0.00     0.00
eigval :       17.52    28.35    31.95    36.36    46.30    49.51
eigval :       53.31    61.23    67.46    78.00    89.56    98.32
eigval :      106.60   116.09   124.65   137.74   149.00   152.05
eigval :      158.75   170.03   171.50   183.68   191.89   195.56
eigval :      206.85   210.91   220.36   224.88   226.64   234.19
eigval :      239.32   252.42   260.24   264.84   273.31   288.88
eigval :      305.02   307.69   309.07   328.98   343.44   361.72
eigval :      377.61   387.98   395.39   406.90   421.52   427.96
eigval :      446.60   456.80   465.22   469.66   490.74   493.87
eigval :      506.57   519.09   530.73   540.42   545.98   585.17
eigval :      590.24   618.48   654.82   680.58   690.59   704.86
eigval :      721.28   757.43   777.78   801.82   802.07   803.59
eigval :      851.10   854.56   860.81   865.17   880.77   905.49
eigval :      908.13   913.50   924.03   926.76   927.64   933.07
eigval :      937.13   940.50   942.30   943.12   945.37   950.76
eigval :      951.91   954.19   963.96   968.83   970.98   973.61
eigval :      984.74   989.88   990.94   991.13   993.42  1008.57
eigval :     1035.44  1078.75  1084.57  1087.22  1090.16  1093.63
eigval :     1100.49  1104.71  1111.03  1113.79  1116.08  1116.69
eigval :     1119.02  1124.83  1127.95  1140.54  1143.86  1148.28
eigval :     1152.54  1154.11  1161.06  1169.61  1181.38  1184.78
eigval :     1187.37  1193.98  1196.80  1201.44  1205.52  1214.40
eigval :     1221.92  1222.89  1223.56  1238.85  1248.12  1254.36
eigval :     1258.53  1261.58  1265.57  1274.47  1292.62  1295.01
eigval :     1300.82  1304.15  1310.24  1314.26  1314.83  1324.66
eigval :     1329.40  1334.95  1335.07  1338.07  1340.76  1344.52
eigval :     1346.05  1346.35  1354.07  1354.50  1356.16  1360.04
eigval :     1376.05  1402.78  1402.84  1407.93  1415.84  1419.24
eigval :     1420.16  1425.85  1462.40  1474.95  1485.18  1486.55
eigval :     1487.83  1493.68  1494.19  1495.18  1495.61  1497.97
eigval :     1499.70  1501.86  1502.65  1503.62  1505.38  1506.46
eigval :     1507.30  1508.37  1509.48  1513.25  1513.92  1514.25
eigval :     1520.90  1525.18  1579.48  1598.49  1628.26  1709.04
eigval :     2865.95  2886.28  2890.65  2896.16  2912.08  2950.43
eigval :     2951.27  2955.37  2956.67  2959.43  2965.38  2966.72
eigval :     2969.74  2975.78  2976.00  2980.45  2981.03  2981.99
eigval :     2984.83  2985.89  2991.60  2992.10  2992.90  2995.96
eigval :     3005.53  3008.47  3012.49  3015.44  3018.28  3019.34
eigval :     3021.80  3024.39  3026.67  3026.80  3029.13  3029.63
eigval :     3035.08  3035.55  3039.74  3040.23  3044.66  3054.89
eigval :     3055.66  3063.67  3067.64  3069.69  3075.34  3083.42
eigval :     3086.37  3086.99  3124.34

   temp. (K)  partition function   enthalpy   heat capacity  entropy
                                   cal/mol     cal/K/mol   cal/K/mol   J/K/mol
 298.15  VIB  0.305E+16            21517.852    133.138    133.575
         ROT  0.245E+08              888.752      2.981     36.789
         INT  0.746E+23            22406.604    136.119    170.364
         TR   0.101E+29             1481.254      4.968     44.366
         TOT                       23887.8579   141.0875   214.7297   898.4291

       T/K    H(0)-H(T)+PV         H(T)/Eh          T*S/Eh         G(T)/Eh
   ------------------------------------------------------------------------
    298.15    0.380677E-01    0.796156E+00    0.102025E+00    0.694131E+00
   ------------------------------------------------------------------------

         :::::::::::::::::::::::::::::::::::::::::::::::::::::
         ::                  THERMODYNAMIC                  ::
         :::::::::::::::::::::::::::::::::::::::::::::::::::::
         :: total free energy         -98.509208730359 Eh   ::
         ::.................................................::
         :: total energy              -99.203340102277 Eh   ::
         :: zero point energy           0.758088662474 Eh   ::
         :: G(RRHO) w/o ZPVE           -0.063957290557 Eh   ::
         :: G(RRHO) contrib.            0.694131371918 Eh   ::
         :::::::::::::::::::::::::::::::::::::::::::::::::::::

           -------------------------------------------------
          | TOTAL ENERGY              -99.203340102277 Eh   |
          | TOTAL ENTHALPY            -98.407183715192 Eh   |
          | TOTAL FREE ENERGY         -98.509208730359 Eh   |
          | GRADIENT NORM               0.000029380611 Eh/α |
          | HOMO-LUMO GAP               2.981350979709 eV   |
           -------------------------------------------------

 * finished run on 2025/08/25 at 20:43:57.303
