   * xtb version 6.7.1 (edcfbbe) compiled by 'albert@albert-system' on 2024-07-22

   ID    Z sym.   atoms
    1    6 C      1-20, 22-34
    2   15 P      21
    3    1 H      35-85

          program call               : xtb data2507/gas/XPhos/XPhos_gas_S0_crest.xyz --gfn 2 --ohess vtight --parallel 40 --molden --ceasefiles --namespace data2507/gas/XPhos/XPhos_gas_S0_finalOpt
          :  Hamiltonian                  GFN2-xTB          :
 * total energy  :   -99.2296668 Eh     change       -0.1747651E-08 Eh
 * total energy  :   -99.2296678 Eh     change       -0.1028107E-05 Eh
 * total energy  :   -99.2296693 Eh     change       -0.1515910E-05 Eh
 * total energy  :   -99.2296738 Eh     change       -0.4514640E-05 Eh
 * total energy  :   -99.2296776 Eh     change       -0.3728756E-05 Eh
 * total energy  :   -99.2296796 Eh     change       -0.2041862E-05 Eh
 * total energy  :   -99.2296815 Eh     change       -0.1859422E-05 Eh
 * total energy  :   -99.2296839 Eh     change       -0.2448806E-05 Eh
 * total energy  :   -99.2296854 Eh     change       -0.1452049E-05 Eh
 * total energy  :   -99.2296866 Eh     change       -0.1244248E-05 Eh
 * total energy  :   -99.2296914 Eh     change       -0.8547085E-06 Eh
 * total energy  :   -99.2296921 Eh     change       -0.7326064E-06 Eh
 * total energy  :   -99.2296928 Eh     change       -0.6667976E-06 Eh
 * total energy  :   -99.2296935 Eh     change       -0.7104318E-06 Eh
 * total energy  :   -99.2296941 Eh     change       -0.5718521E-06 Eh
 * total energy  :   -99.2296945 Eh     change       -0.4562893E-06 Eh
 * total energy  :   -99.2296949 Eh     change       -0.3463850E-06 Eh
 * total energy  :   -99.2296953 Eh     change       -0.3882900E-06 Eh
 * total energy  :   -99.2296953 Eh     change       -0.4974737E-08 Eh
   *** GEOMETRY OPTIMIZATION CONVERGED AFTER 22 ITERATIONS ***

 final structure:
================
85
 xtb: 6.7.1 (edcfbbe)
C           -1.24272152450920        4.74002188927357        0.21906061469202
C           -1.01116997469686        3.90777308644426       -1.04519786679716
C           -1.95781678500098        4.35330473157561       -2.16190629784575
C           -1.16910816659466        2.43479900657342       -0.74820943707923
C           -2.31136590333042        1.90023796259418       -0.32013454644012
C           -2.45410035892141        0.48956552127949       -0.02304247937442
C           -3.74909197364447        0.07861797201556        0.64494366676035
C           -3.88403311085006        0.77772718860792        2.00091523054096
C           -4.96388827051967        0.37564379881936       -0.23716193202089
C           -1.46397452260638       -0.38343306343903       -0.29713020478557
C           -1.71488809164340       -1.83612306300779       -0.12574333376777
C           -2.68428620512862       -2.45358482460327       -0.92055463566798
C           -2.96907470887805       -3.79933806307151       -0.79475549061210
C           -2.29627630986193       -4.56748820250719        0.14070380462373
C           -1.35410131375420       -3.96704421997611        0.95498578645166
C           -1.07221888695586       -2.61779150583077        0.82704999620230
C           -0.14367037039566        0.06670922678139       -0.91036973993066
C           -0.08189266054107       -0.36866986267156       -2.40685517196391
C           -1.29812568697939        0.13402572310734       -3.18561377207504
C            0.11145827003912       -1.86403525919146       -2.64639959366389
P            1.26878746645392       -0.82356594007410        0.05201859695563
C            2.82567802778260       -0.26463568771221       -0.88576444369068
C            3.56249719610237        1.00923281319366       -0.47860996760943
C            4.72948127876719        1.25806923229095       -1.43523232166867
C            5.70222800143295        0.08381973599549       -1.42048440308321
C            4.97815667236980       -1.20564259045176       -1.79347565356890
C            3.80287740095155       -1.44595201186076       -0.85117209203170
C            1.42159412777157        0.18117872601591        1.65170729498878
C            0.11223455433267        0.48142433263117        2.37962429496596
C            0.39936689177061        1.26816360301353        3.65814093087537
C            1.31967191784046        0.47756194277748        4.58260518243108
C            2.62065159838936        0.13389778663391        3.86441181683762
C            2.33338453972946       -0.63145897208808        2.57601684735662
C            0.06672303934025        1.59607764617829       -0.85371257886194
H           -1.05898026258748        5.79347929186202        0.01836451134551
H           -0.57418188967371        4.41742949068646        1.01450429303728
H           -2.26604234946289        4.63003912514845        0.56840930436608
H            0.01690361911753        4.08563625544326       -1.38188191119058
H           -1.77573993251615        3.77997184501340       -3.06858461419199
H           -2.99415420516385        4.20760180790035       -1.86852015585436
H           -1.80837347648173        5.40755872154712       -2.38559807411088
H           -3.18529821473248        2.52040777591983       -0.19659408727879
H           -3.72337044901415       -0.99858206571527        0.83159905488681
H           -3.92209640487946        1.85844942331008        1.88680800328302
H           -3.03704534990719        0.53032672324275        2.63691171431841
H           -4.79578071298255        0.45400300837507        2.49876589035174
H           -4.85558248836761       -0.09718331326907       -1.21064151881750
H           -5.09191946247316        1.44428220280512       -0.39095666207735
H           -5.86710696763839       -0.00898967863403        0.23205454692118
H           -3.22274197715658       -1.86715035904436       -1.65113623248639
H           -3.72003861669585       -4.24968081422409       -1.42817424963792
H           -2.51365552085047       -5.62082627979640        0.23935994899127
H           -0.83600467314738       -4.55011383433785        1.70264618536785
H           -0.35410490251105       -2.17111752884537        1.49596417129802
H            0.79058349584916        0.13523569060650       -2.84140927031467
H           -1.41117753882531        1.20978239528080       -3.08321055414594
H           -1.18112113313061       -0.10317256553108       -4.24162752010662
H           -2.20960038400775       -0.33484326936604       -2.82936721372402
H            0.35252057069781       -2.03535902312641       -3.69460458503775
H           -0.78312652030619       -2.42823802427776       -2.40637943449933
H            0.92961225022883       -2.24939908638449       -2.03962864990355
H            2.50733680780117       -0.14868258062566       -1.92716819859787
H            3.96000318488239        0.90872486193436        0.53353400015996
H            2.89749618439358        1.87408422270781       -0.50565454013139
H            5.24902218287448        2.17525123601482       -1.14693811247538
H            4.34546658458066        1.39747134159634       -2.44914787172549
H            6.52183209666348        0.26926605851873       -2.11822608755493
H            6.13124303643189       -0.01797006063129       -0.42057854587349
H            4.60933642834669       -1.13085762622048       -2.81961863022521
H            5.66981790807612       -2.04974402999264       -1.74815427387392
H            3.28065922228857       -2.36304636083201       -1.13646507706232
H            4.17943329973806       -1.58739360612535        0.16459073413326
H            1.91646638091578        1.13605027978651        1.44369137918663
H           -0.56188168799739        1.05572782355877        1.74504821773162
H           -0.39533336883771       -0.44664971261536        2.64801468249341
H            0.87256131207431        2.22027852902242        3.40275127394105
H           -0.54009817564633        1.49173861312093        4.16898756856744
H            1.53197721317550        1.05557539521214        5.48483349829645
H            0.81968815703849       -0.44522890531212        4.88634783836333
H            3.26155018249348       -0.46387053318078        4.51661446412824
H            3.15633966585008        1.05683618176918        3.62589065619547
H            1.84966246102875       -1.58223462977224        2.81582754739756
H            3.27331910300413       -0.86322179321978        2.06988238002211
H            0.68494430590319        1.86604822574861        0.00647695412581
H            0.62986775587798        1.90561452052412       -1.73964189355412

          :  Hamiltonian                  GFN2-xTB          :
         :: gradient norm              0.000047404227 Eh/a0 ::
         :: HOMO-LUMO gap              2.870933731482 eV    ::
         :: SCC energy              -100.780952390229 Eh    ::
         :: -> dispersion             -0.107856184881 Eh    ::
         :: repulsion energy           1.551257112920 Eh    ::

    * Orbital Energies and Occupations

         #    Occupation            Energy/Eh            Energy/eV
      -------------------------------------------------------------
         1        2.0000           -0.6530680             -17.7709
       ...           ...                  ...                  ...
        82        2.0000           -0.4185113             -11.3883
        83        2.0000           -0.4151495             -11.2968
        84        2.0000           -0.4119913             -11.2109
        85        2.0000           -0.4108945             -11.1810
        86        2.0000           -0.4096579             -11.1474
        87        2.0000           -0.4056119             -11.0373
        88        2.0000           -0.4001854             -10.8896
        89        2.0000           -0.3947274             -10.7411
        90        2.0000           -0.3921720             -10.6715
        91        2.0000           -0.3895888             -10.6013
        92        2.0000           -0.3803969             -10.3511
        93        2.0000           -0.3481884              -9.4747
        94        2.0000           -0.3420219              -9.3069 (HOMO)
        95                         -0.2365170              -6.4360 (LUMO)
        96                         -0.2140683              -5.8251
        97                         -0.2084025              -5.6709
        98                         -0.1535134              -4.1773
        99                         -0.1490200              -4.0550
       100                         -0.1302246              -3.5436
       101                         -0.0839580              -2.2846
       102                         -0.0637953              -1.7360
       103                          0.0283758               0.7721
       104                          0.0388034               1.0559
       105                          0.0447482               1.2177
       ...                                ...                  ...
       192                          0.9293042              25.2877
      -------------------------------------------------------------
                  HL-Gap            0.1055049 Eh            2.8709 eV

     #   Z          covCN         q      C6AA      α(0)
     1   6 C        3.756    -0.100    22.472     6.759
     2   6 C        3.855    -0.013    20.770     6.482
     3   6 C        3.755    -0.100    22.464     6.758
     4   6 C        2.952    -0.004    28.116     8.697
     5   6 C        2.911    -0.052    29.295     8.875
     6   6 C        2.965    -0.006    28.179     8.707
     7   6 C        3.855    -0.014    20.789     6.485
     8   6 C        3.756    -0.099    22.449     6.755
     9   6 C        3.755    -0.096    22.395     6.748
    10   6 C        3.035    -0.010    28.234     8.715
    11   6 C        2.975     0.021    27.529     8.606
    12   6 C        2.929    -0.032    28.789     8.799
    13   6 C        2.918    -0.033    28.816     8.803
    14   6 C        2.920    -0.033    28.817     8.803
    15   6 C        2.919    -0.030    28.750     8.793
    16   6 C        2.931    -0.031    28.766     8.796
    17   6 C        3.846     0.022    20.180     6.390
    18   6 C        3.900    -0.007    20.654     6.460
    19   6 C        3.755    -0.101    22.486     6.762
    20   6 C        3.756    -0.104    22.548     6.770
    21  15 P        3.188    -0.182   168.564    23.323
    22   6 C        3.802    -0.013    20.808     6.494
    23   6 C        3.818    -0.051    21.470     6.594
    24   6 C        3.806    -0.053    21.521     6.604
    25   6 C        3.805    -0.054    21.541     6.607
    26   6 C        3.805    -0.055    21.552     6.609
    27   6 C        3.901    -0.052    21.442     6.582
    28   6 C        3.802    -0.007    20.696     6.477
    29   6 C        3.833    -0.055    21.531     6.602
    30   6 C        3.806    -0.052    21.509     6.602
    31   6 C        3.805    -0.054    21.547     6.608
    32   6 C        3.805    -0.053    21.524     6.605
    33   6 C        3.912    -0.049    21.385     6.573
    34   6 C        3.859    -0.060    21.606     6.611
    35   1 H        0.925     0.034     2.536     2.490
    36   1 H        0.925     0.031     2.572     2.508
    37   1 H        0.925     0.036     2.497     2.471
    38   1 H        0.924     0.025     2.657     2.549
    39   1 H        0.925     0.030     2.583     2.513
    40   1 H        0.925     0.037     2.493     2.469
    41   1 H        0.925     0.034     2.534     2.489
    42   1 H        0.926     0.028     2.617     2.530
    43   1 H        0.924     0.029     2.598     2.521
    44   1 H        0.925     0.035     2.519     2.482
    45   1 H        0.925     0.031     2.572     2.508
    46   1 H        0.925     0.031     2.572     2.508
    47   1 H        0.925     0.028     2.610     2.526
    48   1 H        0.925     0.034     2.528     2.486
    49   1 H        0.925     0.030     2.586     2.515
    50   1 H        0.926     0.025     2.664     2.552
    51   1 H        0.926     0.025     2.659     2.550
    52   1 H        0.926     0.025     2.653     2.547
    53   1 H        0.926     0.028     2.618     2.530
    54   1 H        0.926     0.051     2.311     2.377
    55   1 H        0.924     0.024     2.672     2.556
    56   1 H        0.925     0.034     2.531     2.488
    57   1 H        0.925     0.030     2.589     2.516
    58   1 H        0.925     0.034     2.531     2.488
    59   1 H        0.925     0.030     2.588     2.516
    60   1 H        0.925     0.042     2.426     2.436
    61   1 H        0.925     0.050     2.316     2.380
    62   1 H        0.925     0.044     2.392     2.419
    63   1 H        0.924     0.032     2.556     2.500
    64   1 H        0.924     0.027     2.628     2.535
    65   1 H        0.924     0.024     2.669     2.555
    66   1 H        0.924     0.027     2.629     2.535
    67   1 H        0.924     0.024     2.670     2.555
    68   1 H        0.924     0.029     2.595     2.519
    69   1 H        0.924     0.029     2.603     2.523
    70   1 H        0.924     0.026     2.643     2.543
    71   1 H        0.924     0.032     2.556     2.500
    72   1 H        0.924     0.030     2.592     2.518
    73   1 H        0.924     0.039     2.466     2.456
    74   1 H        0.925     0.039     2.464     2.455
    75   1 H        0.924     0.032     2.554     2.499
    76   1 H        0.924     0.025     2.665     2.553
    77   1 H        0.924     0.024     2.669     2.555
    78   1 H        0.924     0.024     2.675     2.558
    79   1 H        0.924     0.031     2.579     2.511
    80   1 H        0.924     0.025     2.656     2.549
    81   1 H        0.924     0.026     2.638     2.540
    82   1 H        0.924     0.034     2.536     2.490
    83   1 H        0.924     0.030     2.592     2.518
    84   1 H        0.924     0.054     2.271     2.357
    85   1 H        0.924     0.034     2.529     2.487

molecular dipole:
                 x           y           z       tot (Debye)
 q only:        0.119       0.360       0.001
   full:        0.191       0.747      -0.048       1.963

 projected vibrational frequencies (cm⁻¹)
eigval :       -0.00    -0.00    -0.00     0.00     0.00     0.00
eigval :       16.26    22.52    35.67    40.33    44.34    51.14
eigval :       57.44    66.34    69.10    71.13    86.11    88.52
eigval :      100.26   101.29   129.37   131.64   154.12   155.49
eigval :      161.74   171.47   174.38   184.46   188.04   193.06
eigval :      202.00   206.02   206.55   211.89   213.64   222.45
eigval :      235.62   241.87   255.04   260.59   281.94   291.54
eigval :      299.55   315.69   319.30   346.26   353.85   365.79
eigval :      372.78   387.41   388.91   396.20   424.49   426.27
eigval :      432.29   442.61   450.07   465.73   466.41   501.03
eigval :      509.49   516.26   524.03   540.16   558.51   578.06
eigval :      591.67   603.00   655.56   674.85   697.11   720.82
eigval :      750.11   756.78   774.65   814.59   819.87   822.62
eigval :      862.87   863.65   864.99   869.67   873.77   894.53
eigval :      896.15   900.18   924.17   924.61   926.58   927.66
eigval :      931.60   933.95   936.17   938.13   940.56   943.08
eigval :      946.38   954.64   957.68   967.17   968.86   975.14
eigval :      983.31   985.40   992.94   993.77   999.08  1003.80
eigval :     1037.51  1061.92  1063.68  1068.39  1072.68  1086.26
eigval :     1088.63  1090.94  1097.68  1101.23  1109.76  1111.04
eigval :     1119.12  1121.47  1129.80  1133.94  1136.51  1138.53
eigval :     1139.28  1157.82  1160.18  1177.93  1180.79  1185.59
eigval :     1186.68  1187.81  1195.06  1197.90  1200.56  1210.61
eigval :     1226.75  1241.59  1245.22  1248.60  1249.77  1252.57
eigval :     1256.97  1258.97  1259.95  1274.64  1281.90  1289.63
eigval :     1311.86  1314.05  1316.09  1319.66  1325.89  1330.04
eigval :     1332.79  1334.11  1336.88  1339.69  1341.93  1344.95
eigval :     1346.69  1354.19  1355.23  1355.86  1359.04  1362.52
eigval :     1372.39  1403.46  1404.85  1405.48  1418.17  1419.19
eigval :     1420.42  1423.83  1472.50  1473.92  1480.43  1483.24
eigval :     1485.65  1489.29  1489.99  1492.37  1493.18  1493.64
eigval :     1494.21  1495.23  1496.33  1497.27  1497.43  1500.20
eigval :     1500.90  1503.38  1505.31  1505.76  1506.97  1507.60
eigval :     1508.21  1510.74  1576.98  1597.56  1615.44  1704.24
eigval :     2891.46  2903.77  2919.71  2922.35  2927.04  2949.05
eigval :     2951.15  2952.90  2954.32  2956.93  2957.99  2960.19
eigval :     2961.00  2964.56  2965.88  2968.59  2969.83  2971.97
eigval :     2974.11  2975.91  2976.65  2980.89  2981.64  2982.31
eigval :     2983.02  2986.32  3009.51  3014.84  3017.29  3020.98
eigval :     3022.30  3022.96  3027.32  3028.12  3029.25  3029.51
eigval :     3031.15  3035.27  3040.43  3040.97  3042.63  3045.90
eigval :     3049.39  3065.94  3068.17  3072.34  3076.13  3079.97
eigval :     3088.11  3089.59  3099.22

   temp. (K)  partition function   enthalpy   heat capacity  entropy
                                   cal/mol     cal/K/mol   cal/K/mol   J/K/mol
 298.15  VIB  0.474E+16            21632.892    133.568    134.896
         ROT  0.246E+08              888.752      2.981     36.804
         INT  0.117E+24            22521.645    136.549    171.700
         TR   0.101E+29             1481.254      4.968     44.366
         TOT                       24002.8988   141.5171   216.0662   904.0208

       T/K    H(0)-H(T)+PV         H(T)/Eh          T*S/Eh         G(T)/Eh
   ------------------------------------------------------------------------
    298.15    0.382511E-01    0.795210E+00    0.102660E+00    0.692550E+00
   ------------------------------------------------------------------------

         :::::::::::::::::::::::::::::::::::::::::::::::::::::
         ::                  THERMODYNAMIC                  ::
         :::::::::::::::::::::::::::::::::::::::::::::::::::::
         :: total free energy         -98.537145053122 Eh   ::
         ::.................................................::
         :: total energy              -99.229695277308 Eh   ::
         :: zero point energy           0.756959178405 Eh   ::
         :: G(RRHO) w/o ZPVE           -0.064408954218 Eh   ::
         :: G(RRHO) contrib.            0.692550224187 Eh   ::
         :::::::::::::::::::::::::::::::::::::::::::::::::::::

           -------------------------------------------------
          | TOTAL ENERGY              -99.229695277308 Eh   |
          | TOTAL ENTHALPY            -98.434485044923 Eh   |
          | TOTAL FREE ENERGY         -98.537145053122 Eh   |
          | GRADIENT NORM               0.000047414877 Eh/α |
          | HOMO-LUMO GAP               2.870934012026 eV   |
           -------------------------------------------------

 * finished run on 2025/08/25 at 20:54:43.956
