   * xtb version 6.7.1 (edcfbbe) compiled by 'albert@albert-system' on 2024-07-22

   ID    Z sym.   atoms
    1    6 C      1-20, 22-34
    2   15 P      21
    3    1 H      35-85

          program call               : xtb data2507/gas/XPhos/XPhos_gas_T1_crest.xyz --gfn 2 --spinpol --tblite --uhf 2 --ohess vtight --parallel 40 --molden --ceasefiles --namespace data2507/gas/XPhos/XPhos_gas_T1_finalOpt
 * total energy  :   -99.1533438 Eh     change        0.6023555E-08 Eh
 * total energy  :   -99.1534282 Eh     change       -0.8443361E-04 Eh
 * total energy  :   -99.1534589 Eh     change       -0.3068708E-04 Eh
 * total energy  :   -99.1534640 Eh     change       -0.5043985E-05 Eh
 * total energy  :   -99.1534701 Eh     change       -0.6119440E-05 Eh
 * total energy  :   -99.1534742 Eh     change       -0.4175685E-05 Eh
 * total energy  :   -99.1534779 Eh     change       -0.3637106E-05 Eh
 * total energy  :   -99.1534802 Eh     change       -0.2273402E-05 Eh
 * total energy  :   -99.1534820 Eh     change       -0.1819838E-05 Eh
 * total energy  :   -99.1534842 Eh     change       -0.2264052E-05 Eh
 * total energy  :   -99.1535042 Eh     change       -0.5863920E-06 Eh
 * total energy  :   -99.1535045 Eh     change       -0.2685391E-06 Eh
 * total energy  :   -99.1535046 Eh     change       -0.1312406E-06 Eh
 * total energy  :   -99.1535049 Eh     change       -0.2586853E-06 Eh
 * total energy  :   -99.1535051 Eh     change       -0.2211572E-06 Eh
 * total energy  :   -99.1535051 Eh     change        0.2693629E-07 Eh
 * total energy  :   -99.1535052 Eh     change       -0.1588717E-06 Eh
 * total energy  :   -99.1535052 Eh     change        0.7452755E-08 Eh
 * total energy  :   -99.1535053 Eh     change       -0.9966655E-07 Eh
   *** GEOMETRY OPTIMIZATION CONVERGED AFTER 36 ITERATIONS ***

 final structure:
================
85
 xtb: 6.7.1 (edcfbbe)
C           -0.50331916126018        4.74087848124736        1.36497807433234
C           -0.96859438031902        3.47649978491910        2.10162106463110
C            0.02747879432723        3.13006257900255        3.21428849857742
C           -1.17342683874525        2.32054402020037        1.16472245348526
C           -2.45441020294027        1.88000429021260        0.83579097814633
C           -2.69220703456085        0.80657905264817        0.01447214338153
C           -4.10897571482989        0.49102234982024       -0.41507033303741
C           -5.07432948753328        0.43638931126311        0.77510524637486
C           -4.62879745079763        1.52004008715422       -1.42805999613905
C           -1.56559982488474        0.02338077596058       -0.51847371078407
C           -1.76705035064055       -1.36213631951992       -0.78037540584862
C           -1.11952610402525       -2.09624906748415       -1.80013229431993
C           -1.35249812680436       -3.44233438060389       -1.97946531729063
C           -2.23392451074530       -4.13359199795407       -1.16118176122161
C           -2.89199746957464       -3.43987822605988       -0.15173295560183
C           -2.67330658438030       -2.09659605490407        0.03059820576446
C           -0.23882285117934        0.73193423506871       -0.64028645231965
C           -0.12575380686538        1.62886285591058       -1.91264132720681
C           -1.17182681672600        2.73837641588297       -1.96448434281341
C           -0.17484393213977        0.84199416160066       -3.21706455492597
P            1.16933506832418       -0.60363414652308       -0.71090233940316
C            2.75136221403705        0.45025678166210       -0.82656339017019
C            3.51481442178072        0.84540142167551        0.43556290550382
C            4.69726216112784        1.74089428458935        0.06276611453813
C            5.64028914614519        1.01926831509411       -0.89409686547451
C            4.89016858228910        0.59019602425000       -2.15080966628009
C            3.69602110912692       -0.28574103891910       -1.78447431246207
C            1.33639496928127       -1.26291328652350        1.05494060694392
C            0.04059566815902       -1.70386904663939        1.72720439282417
C            0.33867224683365       -2.23646442444001        3.12756234866720
C            1.28000847858632       -3.43387055447149        3.05001361610186
C            2.56828400597432       -3.04736811845647        2.33113763045355
C            2.26010812042217       -2.48047153056350        0.94841037350716
C            0.01394542972874        1.62350928581832        0.60022731324475
H           -0.37790888699053        5.55924676298331        2.07075689516866
H           -1.23683175480541        5.04085404284668        0.61950707283477
H            0.44894450276640        4.57173820574031        0.86716332088921
H           -1.93361205350098        3.70296060945069        2.57004348069373
H            1.02870080208744        2.99698216121924        2.81151041919123
H            0.06137589780744        3.93243551071628        3.94817499631529
H           -0.27082867739733        2.21411284870580        3.72002781305013
H           -3.29058448374817        2.44823984840532        1.21901116418341
H           -4.11871017188330       -0.48359513232421       -0.91113271181850
H           -4.67808601343242       -0.18139610525366        1.57766232820720
H           -6.02692956491449        0.01669520242635        0.45839458964729
H           -5.26044093465265        1.43070148564274        1.17317347185935
H           -5.68128025108133        1.33497209001577       -1.63422393061677
H           -4.08569960305508        1.44591929135407       -2.36766891375095
H           -4.52525762460694        2.53154120886804       -1.04101577755946
H           -0.48193487498901       -1.59280986095469       -2.50318617315208
H           -0.84481933279913       -3.96242096834017       -2.77964096542406
H           -2.40859453775635       -5.18900648019147       -1.30627001179408
H           -3.57281462287761       -3.96321454760681        0.50527252501976
H           -3.14086897468708       -1.59818020544574        0.86508617404562
H            0.84830349382359        2.12855052691373       -1.87000424641757
H           -0.96173654272028        3.39028572279089       -2.81145525836544
H           -2.16492535195659        2.32275573794010       -2.08804535426852
H           -1.16165208862959        3.33886151786609       -1.06077895589352
H           -0.03321987787718        1.51872936025424       -4.05845157221354
H           -1.13767785007080        0.35062450624006       -3.33262541519402
H            0.62056058823197        0.09852918765114       -3.24772357629458
H            2.45606601288299        1.37536338426202       -1.33282681973392
H            3.90006942982114       -0.04195288435425        0.94086782158396
H            2.86928466725593        1.38539427858290        1.13108494127116
H            5.23599435504213        2.03056012695043        0.96832119028886
H            4.32916297793086        2.65439831084213       -0.41200441296059
H            6.47422195780500        1.67255002974526       -1.15991204984347
H            6.05179701241532        0.13649047341855       -0.39874287304391
H            4.53860571930904        1.47753525183600       -2.68367593276159
H            5.56033795716442        0.04429004311116       -2.81840845131182
H            3.15183230632887       -0.56670052280697       -2.69000851034481
H            4.05376757216307       -1.20736591028257       -1.32013859387592
H            1.82000994451715       -0.51651477336371        1.69366251609775
H           -0.67084979985883       -0.87850934481694        1.79242436858052
H           -0.42198611962630       -2.49741277653398        1.13965244665022
H            0.79831613832093       -1.44944041612565        3.73218386726543
H           -0.59474065408207       -2.52789064626241        3.61400322093295
H            1.50704598267793       -3.80008286616757        4.05383599523769
H            0.78851356255016       -4.24007716258953        2.50078937061449
H            3.21988856228967       -3.91918311572901        2.23778038636947
H            3.10024329928930       -2.29559701242381        2.92099505395188
H            1.76795087502004       -3.24234935972942        0.33827193384909
H            3.19275342033059       -2.21141685894991        0.44810148166970
H            0.42092549582765        0.98762488054195        1.39225743046900
H            0.78950426524795        2.35609225530085        0.35821573852532

 projected vibrational frequencies (cm⁻¹)
eigval :       -0.00    -0.00    -0.00    -0.00     0.00     0.00
eigval :       13.19    24.51    28.47    39.36    44.88    51.82
eigval :       59.18    66.19    71.77    75.27    81.32    99.35
eigval :      104.44   118.63   134.07   150.34   159.95   162.60
eigval :      167.23   179.81   182.88   189.04   199.18   208.66
eigval :      216.78   218.21   228.62   234.12   243.32   245.01
eigval :      253.93   260.76   269.18   277.61   288.32   302.41
eigval :      314.29   320.08   324.91   326.43   361.86   367.07
eigval :      370.82   381.72   395.86   400.59   424.30   425.38
eigval :      428.66   433.04   449.27   453.86   457.90   472.17
eigval :      484.29   512.00   517.17   532.77   534.93   542.74
eigval :      580.47   587.78   635.99   659.90   683.43   718.10
eigval :      739.18   751.39   766.56   805.18   820.90   826.72
eigval :      845.84   850.57   852.88   863.38   865.85   878.95
eigval :      895.31   896.36   915.95   917.89   922.90   925.02
eigval :      928.73   930.81   935.24   936.50   939.02   940.53
eigval :      943.47   948.85   951.93   963.08   967.74   968.63
eigval :      978.10   979.26   982.92   988.49   993.22   997.12
eigval :     1024.55  1038.08  1061.82  1065.86  1074.23  1080.37
eigval :     1086.98  1089.51  1092.91  1097.05  1100.04  1112.63
eigval :     1113.89  1116.62  1119.32  1123.09  1129.68  1137.51
eigval :     1138.16  1154.04  1156.75  1164.03  1177.79  1179.34
eigval :     1184.11  1185.30  1186.55  1194.34  1198.75  1204.23
eigval :     1214.64  1231.52  1240.62  1246.41  1247.55  1250.47
eigval :     1255.28  1256.56  1268.97  1277.28  1284.37  1287.49
eigval :     1297.61  1304.16  1311.64  1312.54  1313.82  1323.09
eigval :     1331.16  1332.10  1334.20  1338.28  1338.80  1340.72
eigval :     1343.12  1348.97  1352.88  1353.78  1355.12  1357.78
eigval :     1361.62  1396.69  1397.40  1398.37  1407.23  1409.80
eigval :     1412.32  1413.93  1415.96  1440.69  1458.92  1480.21
eigval :     1483.15  1485.94  1486.77  1487.55  1489.59  1490.23
eigval :     1491.26  1493.42  1494.80  1496.94  1497.24  1499.19
eigval :     1501.08  1501.89  1505.46  1505.98  1507.34  1508.29
eigval :     1508.99  1510.42  1511.56  1513.08  1522.27  1567.84
eigval :     2907.94  2908.44  2918.60  2921.71  2923.72  2948.46
eigval :     2949.34  2951.35  2951.63  2953.13  2953.27  2957.63
eigval :     2959.29  2965.27  2966.36  2966.70  2971.50  2972.52
eigval :     2973.82  2976.19  2976.62  2979.10  2981.40  2982.09
eigval :     2982.91  2986.28  3002.59  3004.12  3012.10  3018.15
eigval :     3018.88  3022.78  3025.32  3026.21  3026.85  3027.83
eigval :     3030.52  3031.20  3032.77  3034.61  3038.19  3038.72
eigval :     3040.01  3063.91  3064.40  3066.32  3068.15  3088.59
eigval :     3094.56  3103.20  3153.54

   temp. (K)  partition function   enthalpy   heat capacity  entropy
                                   cal/mol     cal/K/mol   cal/K/mol   J/K/mol
 298.15  VIB  0.235E+16            21451.009    134.252    132.556
         ROT  0.240E+08              888.752      2.981     36.754
         INT  0.566E+23            22339.761    137.233    169.310
         TR   0.101E+29             1481.254      4.968     44.366
         TOT                       23821.0149   142.2011   213.6755   894.0183

       T/K    H(0)-H(T)+PV         H(T)/Eh          T*S/Eh         G(T)/Eh
   ------------------------------------------------------------------------
    298.15    0.379612E-01    0.792657E+00    0.101524E+00    0.691133E+00
   ------------------------------------------------------------------------

         :::::::::::::::::::::::::::::::::::::::::::::::::::::
         ::                  THERMODYNAMIC                  ::
         :::::::::::::::::::::::::::::::::::::::::::::::::::::
         :: total free energy         -98.462371967605 Eh   ::
         ::.................................................::
         :: total energy              -99.153505324575 Eh   ::
         :: zero point energy           0.754696277192 Eh   ::
         :: G(RRHO) w/o ZPVE           -0.063562920222 Eh   ::
         :: G(RRHO) contrib.            0.691133356970 Eh   ::
         :::::::::::::::::::::::::::::::::::::::::::::::::::::

           -------------------------------------------------
          | TOTAL ENERGY              -99.153505324575 Eh   |
          | TOTAL ENTHALPY            -98.360847843793 Eh   |
          | TOTAL FREE ENERGY         -98.462371967605 Eh   |
          | GRADIENT NORM               0.000082999965 Eh/α |
           -------------------------------------------------

 * finished run on 2025/08/25 at 21:08:03.562
