   * xtb version 6.7.1 (edcfbbe) compiled by 'albert@albert-system' on 2024-07-22

   ID    Z sym.   atoms
    1    6 C      1-20, 22-34
    2   15 P      21
    3    1 H      35-85

          program call               : xtb data2507/gas/XPhos/XPhos_gas_S0_finalOpt.xtbopt.xyz --gfn 2 --spinpol --tblite --uhf 2 --ohess vtight --parallel 40 --molden --ceasefiles --namespace data2507/gas/XPhos/XPhos_gas_T1_preOpt
 * total energy  :   -99.1289981 Eh     change        0.2434489E-07 Eh
 * total energy  :   -99.1453796 Eh     change       -0.1638152E-01 Eh
 * total energy  :   -99.1486297 Eh     change       -0.3250107E-02 Eh
 * total energy  :   -99.1490715 Eh     change       -0.4418378E-03 Eh
 * total energy  :   -99.1494388 Eh     change       -0.3672606E-03 Eh
 * total energy  :   -99.1497136 Eh     change       -0.2747649E-03 Eh
 * total energy  :   -99.1500237 Eh     change       -0.3101281E-03 Eh
 * total energy  :   -99.1502843 Eh     change       -0.2606029E-03 Eh
 * total energy  :   -99.1505084 Eh     change       -0.2241207E-03 Eh
 * total energy  :   -99.1507317 Eh     change       -0.2233325E-03 Eh
 * total energy  :   -99.1535392 Eh     change       -0.7884714E-06 Eh
 * total energy  :   -99.1535400 Eh     change       -0.7704504E-06 Eh
 * total energy  :   -99.1535408 Eh     change       -0.7955506E-06 Eh
 * total energy  :   -99.1535415 Eh     change       -0.7088728E-06 Eh
 * total energy  :   -99.1535421 Eh     change       -0.6724303E-06 Eh
 * total energy  :   -99.1535428 Eh     change       -0.6141023E-06 Eh
 * total energy  :   -99.1535434 Eh     change       -0.6015722E-06 Eh
 * total energy  :   -99.1535438 Eh     change       -0.4781305E-06 Eh
 * total energy  :   -99.1535439 Eh     change       -0.3094763E-07 Eh
   *** GEOMETRY OPTIMIZATION CONVERGED AFTER 68 ITERATIONS ***

 final structure:
================
85
 xtb: 6.7.1 (edcfbbe)
C           -0.88814820564501        4.72544822492526       -0.61073218208405
C           -1.06155119930365        3.65610071229427       -1.70188363115187
C           -2.26864338122766        3.99901064790209       -2.57843236805806
C           -1.17160236348671        2.29495207904736       -1.08265571039271
C           -2.33177098471703        1.85566751764617       -0.41813906982658
C           -2.44510262479898        0.59589987471257        0.10019545112033
C           -3.61222009009720        0.28652934232052        1.01225230123102
C           -3.48961469050890        1.06993341710332        2.32572507781317
C           -4.96145156770369        0.61648121321232        0.36168521527502
C           -1.42941458184672       -0.42812830303504       -0.19381981753561
C           -1.82222555724987       -1.81220996784457       -0.08944961066547
C           -3.08868062304971       -2.21885100556031       -0.56194444149901
C           -3.50610635611444       -3.52789409778050       -0.48034868023522
C           -2.69215797240981       -4.49267360016831        0.09647889098662
C           -1.44562985823998       -4.11804795472892        0.57615397073648
C           -1.01726408213972       -2.81238582785597        0.48102471873038
C           -0.13716812583336       -0.02348104058798       -0.83568120255057
C           -0.10786442020752       -0.51629231359361       -2.32513571528896
C           -1.34009018712090       -0.04444510331381       -3.09314666451308
C            0.05337094072983       -2.02212610813300       -2.50693248822740
P            1.40991296821098       -0.82805551368258        0.02947361038311
C            2.87038625255439       -0.02238710768304       -0.88480266929486
C            3.51817471380388        1.24361775007703       -0.32899316935659
C            4.63554520325919        1.70604915749351       -1.26493089654012
C            5.69612401076357        0.62096395200648       -1.41713245103276
C            5.06453172846265       -0.66231799786439       -1.94650435619559
C            3.93417104710109       -1.11741673580562       -1.02884885008882
C            1.49003084806903        0.03842424204953        1.70370704939641
C            0.16109818284802        0.04588228216031        2.45151240240776
C            0.33267853193422        0.70537054280681        3.81882373235561
C            1.37746603497715       -0.03609738805789        4.64686613362596
C            2.70734181438015       -0.08210030548210        3.90186161195602
C            2.52602904928647       -0.72797555785141        2.53176760529361
C            0.06321925961127        1.50298190840829       -0.84034048102985
H           -0.78538637246190        5.71118737095569       -1.05932564462753
H           -0.00117495714682        4.52177713112161       -0.01500238208218
H           -1.75165545891517        4.73352394002991        0.05016802250279
H           -0.16477126979894        3.67575571596062       -2.33406902896835
H           -2.41531853378638        3.24100478638459       -3.34492703198499
H           -3.17618984843362        4.06434559985287       -1.98431296575747
H           -2.11342530373752        4.95813937005411       -3.06807324053023
H           -3.14462358317822        2.55494675022273       -0.28995026035192
H           -3.60142787032121       -0.77724150743286        1.26269410778801
H           -3.41752977859292        2.13832744973491        2.13380768718124
H           -2.60781253988805        0.75906037447726        2.87877172981035
H           -4.36397419979008        0.88908067981363        2.94783665161985
H           -5.03530690517226        0.19221650398613       -0.63659389130803
H           -5.10375819102195        1.69143048946432        0.28240943357546
H           -5.77137796119487        0.21337511056845        0.96601373391042
H           -3.72228545526447       -1.49362142910313       -1.04913138533521
H           -4.47441363462539       -3.80409023140281       -0.87392301107044
H           -3.02336539652372       -5.51765467763370        0.16845280944249
H           -0.80264652595785       -4.85574240732447        1.03494570636257
H           -0.05104661035570       -2.54797102630426        0.88279442378569
H            0.76260167475400       -0.04287320432595       -2.79327592173355
H           -1.48397947609281        1.02735932780831       -2.97535513054999
H           -1.21974302698882       -0.26520580802299       -4.15227795496806
H           -2.23180848284300       -0.55105740377928       -2.73485609402988
H            0.24162670741555       -2.23679768416282       -3.55772319326512
H           -0.84174920483303       -2.55723948288249       -2.20656242971415
H            0.89279148542837       -2.39868494443028       -1.92503064817423
H            2.50695447823075        0.19911757852638       -1.89458505241851
H            3.94955715272698        1.04613454730821        0.65411724191517
H            2.78809108742287        2.04865546596516       -0.22781859414168
H            5.08949809049671        2.61783355003730       -0.86917042219425
H            4.21551487851001        1.94222957994582       -2.24622453766680
H            6.48235320465416        0.95957390406224       -2.09540389900264
H            6.15495429326617        0.42485828117395       -0.44495284393907
H            4.66663744509488       -0.48357579385513       -2.94873258230474
H            5.81977943750725       -1.44752874239619       -2.02277711829220
H            3.47317169418838       -2.02316841201394       -1.43149016182120
H            4.34302631966827       -1.36677284807053       -0.04675740142858
H            1.82954698991992        1.07331828340499        1.59057809876669
H           -0.58963182254362        0.58716496402981        1.87347914185580
H           -0.19717531523151       -0.97673961829246        2.58862183664141
H            0.64568961273628        1.74453697684239        3.68510659960720
H           -0.62230986446330        0.71268768445151        4.34955868958047
H            1.50660977183629        0.45582682392671        5.61351325443012
H            1.03223935278726       -1.05573808902206        4.83292856447514
H            3.44244648686951       -0.64375141238923        4.48276120043630
H            3.08798000438577        0.93518899604309        3.77617673842602
H            2.18900166065929       -1.76069798097702        2.65684776104770
H            3.48468145244509       -0.75833690179848        2.00894225654911
H            0.44181539273776        1.79656111434126        0.14835136146950
H            0.83012564108762        1.77122628437199       -1.56966913636176

 projected vibrational frequencies (cm⁻¹)
eigval :       -0.00    -0.00    -0.00     0.00     0.00     0.00
eigval :       21.02    25.50    32.68    43.48    51.86    53.45
eigval :       58.05    67.14    69.93    79.13    81.47    83.85
eigval :       97.90   102.57   116.93   128.02   149.78   153.49
eigval :      163.23   169.01   176.17   182.18   184.50   195.62
eigval :      206.27   208.43   216.85   217.57   225.49   231.05
eigval :      242.20   245.55   255.52   259.38   282.41   287.94
eigval :      303.89   312.31   314.52   335.68   360.29   367.89
eigval :      373.07   378.78   385.67   389.92   409.30   425.54
eigval :      431.21   437.06   443.32   454.88   457.72   472.23
eigval :      482.81   489.66   518.03   524.61   543.74   571.65
eigval :      580.32   595.32   615.43   660.38   683.71   718.85
eigval :      733.13   744.81   757.23   791.87   819.23   820.91
eigval :      822.11   854.48   858.48   862.91   865.31   883.69
eigval :      893.97   894.88   907.07   918.05   924.24   925.83
eigval :      926.96   927.82   935.17   938.48   938.83   939.77
eigval :      940.34   948.27   953.10   962.19   966.48   968.21
eigval :      977.24   982.03   984.76   991.20   992.84   994.72
eigval :     1030.45  1059.26  1063.13  1067.36  1070.69  1081.74
eigval :     1087.34  1090.05  1096.90  1099.98  1100.17  1109.45
eigval :     1114.97  1115.92  1119.38  1123.73  1125.14  1137.94
eigval :     1138.70  1148.75  1150.02  1164.06  1177.17  1181.68
eigval :     1182.82  1185.07  1191.24  1192.01  1194.64  1197.67
eigval :     1209.45  1233.62  1241.43  1246.80  1247.84  1250.18
eigval :     1255.37  1256.37  1269.30  1272.98  1279.76  1282.57
eigval :     1287.29  1296.39  1305.42  1306.92  1314.47  1321.04
eigval :     1331.94  1334.03  1338.41  1338.86  1339.91  1343.29
eigval :     1344.13  1346.66  1353.40  1354.17  1355.43  1357.18
eigval :     1360.34  1386.66  1397.18  1399.39  1401.45  1413.26
eigval :     1416.01  1416.45  1419.17  1447.15  1458.45  1477.23
eigval :     1479.52  1482.80  1485.60  1487.33  1489.03  1489.28
eigval :     1490.07  1490.30  1491.13  1493.00  1494.14  1495.15
eigval :     1495.95  1497.71  1499.15  1503.02  1503.53  1504.41
eigval :     1505.52  1507.34  1508.92  1534.36  1537.09  1576.64
eigval :     2869.19  2901.62  2905.48  2907.80  2913.54  2949.06
eigval :     2951.58  2953.01  2954.19  2957.43  2958.29  2962.81
eigval :     2964.52  2965.41  2966.42  2968.05  2969.59  2970.99
eigval :     2971.86  2975.49  2976.41  2979.25  2980.03  2981.77
eigval :     2983.00  2985.27  2988.48  3011.07  3016.58  3020.41
eigval :     3020.56  3022.29  3023.56  3026.01  3027.81  3028.30
eigval :     3029.75  3031.83  3033.83  3036.84  3040.51  3044.15
eigval :     3052.55  3054.94  3064.83  3066.26  3066.86  3071.30
eigval :     3078.22  3089.29  3095.80

   temp. (K)  partition function   enthalpy   heat capacity  entropy
                                   cal/mol     cal/K/mol   cal/K/mol   J/K/mol
 298.15  VIB  0.322E+16            21774.733    135.147    135.461
         ROT  0.250E+08              888.752      2.981     36.836
         INT  0.805E+23            22663.485    138.128    172.297
         TR   0.101E+29             1481.254      4.968     44.366
         TOT                       24144.7390   143.0961   216.6623   906.5149

       T/K    H(0)-H(T)+PV         H(T)/Eh          T*S/Eh         G(T)/Eh
   ------------------------------------------------------------------------
    298.15    0.384771E-01    0.791776E+00    0.102943E+00    0.688833E+00
   ------------------------------------------------------------------------

         :::::::::::::::::::::::::::::::::::::::::::::::::::::
         ::                  THERMODYNAMIC                  ::
         :::::::::::::::::::::::::::::::::::::::::::::::::::::
         :: total free energy         -98.464711303791 Eh   ::
         ::.................................................::
         :: total energy              -99.153543862358 Eh   ::
         :: zero point energy           0.753298704950 Eh   ::
         :: G(RRHO) w/o ZPVE           -0.064466146384 Eh   ::
         :: G(RRHO) contrib.            0.688832558567 Eh   ::
         :::::::::::::::::::::::::::::::::::::::::::::::::::::

           -------------------------------------------------
          | TOTAL ENERGY              -99.153543862358 Eh   |
          | TOTAL ENTHALPY            -98.361768066694 Eh   |
          | TOTAL FREE ENERGY         -98.464711303791 Eh   |
          | GRADIENT NORM               0.000044889606 Eh/α |
           -------------------------------------------------

 * finished run on 2025/08/25 at 20:54:52.983
