   * xtb version 6.7.1 (edcfbbe) compiled by 'albert@albert-system' on 2024-07-22

   ID    Z sym.   atoms
    1    6 C      1-6, 8-13, 15-38
    2    5 B      7
    3    7 N      14
    4    1 H      39-72

          program call               : xtb data2507/gas/C3F7/C3F7_gas_S0_crest.xyz --gfn 2 --ohess vtight --parallel 40 --molden --ceasefiles --namespace data2507/gas/C3F7/C3F7_gas_S0_finalOpt
          :  Hamiltonian                  GFN2-xTB          :
 * total energy  :   -98.6297356 Eh     change       -0.2585622E-08 Eh
 * total energy  :   -98.6297367 Eh     change       -0.1185912E-05 Eh
 * total energy  :   -98.6297385 Eh     change       -0.1715242E-05 Eh
 * total energy  :   -98.6297400 Eh     change       -0.1527614E-05 Eh
 * total energy  :   -98.6297409 Eh     change       -0.8633729E-06 Eh
 * total energy  :   -98.6297415 Eh     change       -0.6927169E-06 Eh
 * total energy  :   -98.6297420 Eh     change       -0.4914643E-06 Eh
 * total energy  :   -98.6297423 Eh     change       -0.2667208E-06 Eh
 * total energy  :   -98.6297423 Eh     change       -0.2010165E-07 Eh
   *** GEOMETRY OPTIMIZATION CONVERGED AFTER 9 ITERATIONS ***

 final structure:
================
72
 xtb: 6.7.1 (edcfbbe)
C            3.07999451138442        3.51560413107560        1.51466699620096
C            1.92260934123596        2.59624586222293        1.27356174683749
C            1.76008541368256        1.44387936666506        2.02331776808353
C            0.71733606515879        0.56253169845722        1.78066528960113
C            0.56191461461705       -0.60363468898256        2.71449815721973
C           -0.20539454901871        0.81328176860854        0.75250275150764
B           -1.27468934654491       -0.24352815155014        0.30809593636784
C           -0.82869474200877       -1.72271602959322       -0.00495423606712
C           -1.75845162616983       -2.74720221124528        0.22342901836885
C           -1.44621674819043       -4.08399828642815        0.07215966883079
C           -0.17550646453504       -4.45104620850646       -0.33923618521965
C            0.76623211624803       -3.47062880591350       -0.58772641778279
C            0.45569479449632       -2.12503148658459       -0.41823547340445
N            1.49231314062304       -1.19723931939909       -0.64670872111237
C            2.66102323586736       -1.14814850727379        0.08343389350221
C            3.09759824636154       -1.97536733740408        1.10809579846708
C            4.31377313662580       -1.68717240021864        1.69697914250960
C            5.08406185651997       -0.60290737558946        1.28200457096559
C            4.65908915454861        0.21805318966069        0.25692359981043
C            3.44196747365009       -0.05354512345309       -0.35270530281834
C            2.71623053087837        0.55851288079102       -1.42740938487735
C            2.97983374435392        1.62679869154290       -2.27299556577795
C            2.07543787208526        1.91732963754941       -3.27440998299342
C            0.93140029744065        1.14322139961152       -3.45162974278370
C            0.64235932440098        0.08265574175401       -2.61487034920058
C            1.52561542309093       -0.18842136163210       -1.58188701563954
C           -2.80782396292945        0.10212921334563        0.23891158713103
C           -3.45115642047562        0.64555316762909        1.36871299656687
C           -2.69643367857239        0.88216454133966        2.64413806323617
C           -4.80395979354309        0.93615388168182        1.34250186837896
C           -5.57448681664217        0.71958697160060        0.20850443950509
C           -7.03855596189509        1.03706323224324        0.20736875544133
C           -4.94895145646708        0.18458699681564       -0.90313953816717
C           -3.59625245281181       -0.13054624515357       -0.89980085045401
C           -3.01780215244506       -0.66793216305219       -2.17725275380046
C           -0.09469179191312        2.03396017824973        0.06120724078887
C           -1.11766140901044        2.43657757553935       -0.96054647368857
C            0.96242827688753        2.89011290433386        0.31636348789660
H            3.94019901686011        2.95871493207787        1.87943044098620
H            2.81834052332170        4.26490220717736        2.26313507738275
H            3.35460177143451        4.03523400911558        0.59946560483466
H            2.47015583635380        1.21361715715664        2.80581101337231
H            1.53439151481264       -1.01265589480464        2.97959715302961
H            0.08484274953443       -0.26408335714430        3.63555933665559
H           -0.05342655772737       -1.38943731542173        2.28586789344994
H           -2.75343777242799       -2.47088456815531        0.54251505048574
H           -2.19246582447121       -4.83914424836987        0.27034134626857
H            0.07959105221522       -5.49224730739877       -0.47022272489758
H            1.75993824131499       -3.73804435200989       -0.91799764333987
H            2.50650326149586       -2.81773714069081        1.43623622940099
H            4.67607345234476       -2.31651432360198        2.49724575162087
H            6.02822721826688       -0.40974760763686        1.77010381514085
H            5.25768803599244        1.05567188678909       -0.06838762941668
H            3.88147519164118        2.20860936842944       -2.15316980556744
H            2.26211390865541        2.74347957089089       -3.94476995803017
H            0.25800552033753        1.37536470919149       -4.26426539477816
H           -0.23410484473209       -0.52679561923526       -2.76832815502136
H           -3.34856911678709        1.31278384599022        3.40086874103470
H           -1.86127635061398        1.55850035590571        2.47682672598440
H           -2.29632728075316       -0.05486269525646        3.02675547427774
H           -5.27481823384686        1.34459193045324        2.22658537696284
H           -7.58579735827287        0.28193966624120        0.77274058320138
H           -7.43253240635920        1.05672597871597       -0.80590501075241
H           -7.22280520200092        2.00189420408377        0.67651195732119
H           -5.52621708786511        0.00390770073931       -1.79993110319688
H           -3.77227520194653       -1.22409990469434       -2.73057713466080
H           -2.68381772747426        0.15535228801643       -2.81083895815356
H           -2.17271750053392       -1.32204146726358       -1.98718004767885
H           -2.07277687988297        2.63450695765561       -0.47477370389734
H           -0.80122732334957        3.33702364694123       -1.48203681764862
H           -1.27102292085858        1.65006763744619       -1.69246395242414
H            1.04854541643825        3.80520964952931       -0.25335370797701

          :  Hamiltonian                  GFN2-xTB          :
         :: gradient norm              0.000129801016 Eh/a0 ::
         :: HOMO-LUMO gap              2.200959860673 eV    ::
         :: SCC energy              -100.443001336536 Eh    ::
         :: -> dispersion             -0.110131124886 Eh    ::
         :: repulsion energy           1.813259013356 Eh    ::

    * Orbital Energies and Occupations

         #    Occupation            Energy/Eh            Energy/eV
      -------------------------------------------------------------
         1        2.0000           -0.6655186             -18.1097
       ...           ...                  ...                  ...
        81        2.0000           -0.4097609             -11.1502
        82        2.0000           -0.4094421             -11.1415
        83        2.0000           -0.4065580             -11.0630
        84        2.0000           -0.4045190             -11.0075
        85        2.0000           -0.3990061             -10.8575
        86        2.0000           -0.3967436             -10.7959
        87        2.0000           -0.3906097             -10.6290
        88        2.0000           -0.3798651             -10.3367
        89        2.0000           -0.3779296             -10.2840
        90        2.0000           -0.3716390             -10.1128
        91        2.0000           -0.3679254             -10.0118
        92        2.0000           -0.3648146              -9.9271
        93        2.0000           -0.3526217              -9.5953 (HOMO)
        94                         -0.2717383              -7.3944 (LUMO)
        95                         -0.2372996              -6.4573
        96                         -0.2284146              -6.2155
        97                         -0.2184878              -5.9454
        98                         -0.2149139              -5.8481
        99                         -0.2075459              -5.6476
       100                         -0.2056742              -5.5967
       101                         -0.1996912              -5.4339
       102                         -0.1840167              -5.0073
       103                         -0.1777770              -4.8376
       104                         -0.1672604              -4.5514
       ...                                ...                  ...
       186                          0.7576207              20.6159
      -------------------------------------------------------------
                  HL-Gap            0.0808835 Eh            2.2010 eV

     #   Z          covCN         q      C6AA      α(0)
     1   6 C        3.758    -0.105    22.562     6.772
     2   6 C        2.964     0.015    27.684     8.630
     3   6 C        2.931    -0.055    29.359     8.886
     4   6 C        2.967     0.011    27.768     8.643
     5   6 C        3.759    -0.108    22.617     6.780
     6   6 C        2.889    -0.085    30.115     8.997
     7   5 B        2.708     0.253    17.671     7.050
     8   6 C        2.881    -0.073    29.825     8.953
     9   6 C        2.927    -0.030    28.759     8.795
    10   6 C        2.915    -0.035    28.863     8.810
    11   6 C        2.919    -0.027    28.678     8.782
    12   6 C        2.923    -0.042    29.043     8.838
    13   6 C        2.914     0.064    26.556     8.450
    14   7 N        2.804    -0.047    22.149     6.990
    15   6 C        3.086     0.050    26.785     8.484
    16   6 C        2.910    -0.050    29.242     8.867
    17   6 C        2.924    -0.035    28.883     8.813
    18   6 C        2.920    -0.043    29.057     8.840
    19   6 C        2.913    -0.032    28.804     8.801
    20   6 C        3.070    -0.016    28.329     8.727
    21   6 C        3.072    -0.016    28.346     8.730
    22   6 C        2.913    -0.032    28.794     8.799
    23   6 C        2.920    -0.042    29.037     8.837
    24   6 C        2.924    -0.033    28.829     8.805
    25   6 C        2.911    -0.052    29.299     8.876
    26   6 C        3.083     0.050    26.798     8.486
    27   6 C        2.887    -0.084    30.100     8.995
    28   6 C        2.968     0.012    27.738     8.639
    29   6 C        3.759    -0.114    22.722     6.796
    30   6 C        2.930    -0.056    29.401     8.892
    31   6 C        2.963     0.013    27.711     8.635
    32   6 C        3.758    -0.107    22.595     6.777
    33   6 C        2.931    -0.056    29.401     8.892
    34   6 C        2.967     0.012    27.747     8.640
    35   6 C        3.759    -0.107    22.600     6.777
    36   6 C        2.968     0.012    27.751     8.641
    37   6 C        3.759    -0.111    22.665     6.787
    38   6 C        2.930    -0.054    29.347     8.884
    39   1 H        0.925     0.041     2.441     2.443
    40   1 H        0.924     0.043     2.413     2.429
    41   1 H        0.925     0.040     2.452     2.449
    42   1 H        0.925     0.022     2.696     2.568
    43   1 H        0.925     0.041     2.434     2.440
    44   1 H        0.924     0.040     2.444     2.445
    45   1 H        0.925     0.034     2.532     2.488
    46   1 H        0.926     0.036     2.500     2.473
    47   1 H        0.926     0.031     2.574     2.509
    48   1 H        0.926     0.033     2.550     2.497
    49   1 H        0.926     0.036     2.503     2.474
    50   1 H        0.926     0.025     2.665     2.553
    51   1 H        0.926     0.025     2.663     2.552
    52   1 H        0.926     0.024     2.670     2.555
    53   1 H        0.926     0.029     2.605     2.524
    54   1 H        0.926     0.029     2.606     2.525
    55   1 H        0.926     0.025     2.657     2.549
    56   1 H        0.926     0.025     2.662     2.551
    57   1 H        0.926     0.022     2.697     2.568
    58   1 H        0.925     0.036     2.496     2.471
    59   1 H        0.925     0.050     2.320     2.382
    60   1 H        0.925     0.040     2.447     2.446
    61   1 H        0.925     0.023     2.684     2.562
    62   1 H        0.924     0.043     2.403     2.424
    63   1 H        0.925     0.038     2.471     2.458
    64   1 H        0.925     0.041     2.432     2.439
    65   1 H        0.925     0.023     2.692     2.566
    66   1 H        0.925     0.038     2.481     2.463
    67   1 H        0.924     0.039     2.463     2.454
    68   1 H        0.925     0.039     2.467     2.456
    69   1 H        0.925     0.046     2.376     2.411
    70   1 H        0.925     0.036     2.509     2.477
    71   1 H        0.925     0.042     2.419     2.432
    72   1 H        0.925     0.023     2.692     2.566

molecular dipole:
                 x           y           z       tot (Debye)
 q only:       -0.499      -0.230       0.162
   full:       -0.547      -0.352       0.173       1.711

 projected vibrational frequencies (cm⁻¹)
eigval :       -0.00    -0.00    -0.00    -0.00     0.00     0.00
eigval :       10.88    17.72    24.59    27.74    34.44    40.73
eigval :       46.49    56.04    58.44    71.53    85.27   102.68
eigval :      117.13   119.92   128.83   133.20   142.70   145.04
eigval :      148.23   158.35   163.99   174.87   181.32   185.06
eigval :      197.70   204.55   210.23   219.29   244.74   274.55
eigval :      275.04   279.48   285.61   309.65   321.69   326.60
eigval :      332.41   359.66   398.04   408.65   419.89   427.44
eigval :      437.26   461.79   479.19   484.07   488.89   493.73
eigval :      499.16   508.96   513.51   515.37   520.04   535.87
eigval :      542.33   543.53   558.19   581.88   594.70   599.20
eigval :      601.96   604.97   608.62   628.79   672.47   678.41
eigval :      680.10   705.27   706.65   719.91   757.61   770.52
eigval :      779.46   782.45   836.79   839.62   868.05   871.42
eigval :      875.69   881.43   886.12   889.71   890.24   898.75
eigval :      900.27   904.03   920.51   922.23   926.39   927.51
eigval :      933.09   964.06   965.05   976.64   978.70  1012.57
eigval :     1020.66  1023.83  1030.07  1030.35  1031.22  1033.13
eigval :     1034.52  1035.58  1041.88  1042.35  1044.77  1044.99
eigval :     1068.58  1071.56  1073.43  1098.62  1112.66  1137.16
eigval :     1151.36  1164.07  1176.75  1180.26  1182.17  1185.44
eigval :     1195.43  1210.58  1220.82  1236.10  1237.73  1238.04
eigval :     1243.65  1252.86  1292.09  1301.79  1302.69  1306.67
eigval :     1308.09  1334.73  1337.69  1355.04  1364.00  1367.02
eigval :     1399.57  1400.73  1401.52  1403.93  1406.10  1409.52
eigval :     1411.29  1426.20  1429.66  1430.08  1434.67  1450.56
eigval :     1455.49  1461.11  1477.71  1478.49  1479.52  1482.72
eigval :     1482.97  1483.74  1486.37  1486.89  1487.56  1488.31
eigval :     1490.92  1492.66  1495.00  1501.23  1554.15  1559.95
eigval :     1560.77  1575.29  1581.87  1592.90  1600.72  1602.90
eigval :     1604.95  1619.19  2982.77  2983.14  2989.92  2995.18
eigval :     3007.17  3019.58  3023.97  3025.94  3031.61  3032.91
eigval :     3033.65  3034.62  3034.95  3037.58  3039.52  3053.08
eigval :     3059.82  3060.85  3062.18  3062.66  3064.00  3066.27
eigval :     3069.90  3071.13  3072.90  3075.47  3076.66  3079.18
eigval :     3083.39  3084.26  3089.69  3091.92  3092.52  3105.64

   temp. (K)  partition function   enthalpy   heat capacity  entropy
                                   cal/mol     cal/K/mol   cal/K/mol   J/K/mol
 298.15  VIB  0.100E+17            20766.835    126.510    129.955
         ROT  0.239E+08              888.752      2.981     36.743
         INT  0.240E+24            21655.587    129.491    166.698
         TR   0.105E+29             1481.254      4.968     44.444
         TOT                       23136.8410   134.4589   211.1423   883.4194

       T/K    H(0)-H(T)+PV         H(T)/Eh          T*S/Eh         G(T)/Eh
   ------------------------------------------------------------------------
    298.15    0.368709E-01    0.620984E+00    0.100321E+00    0.520663E+00
   ------------------------------------------------------------------------

         :::::::::::::::::::::::::::::::::::::::::::::::::::::
         ::                  THERMODYNAMIC                  ::
         :::::::::::::::::::::::::::::::::::::::::::::::::::::
         :: total free energy         -98.109079272281 Eh   ::
         ::.................................................::
         :: total energy              -98.629742323172 Eh   ::
         :: zero point energy           0.584112675300 Eh   ::
         :: G(RRHO) w/o ZPVE           -0.063449624410 Eh   ::
         :: G(RRHO) contrib.            0.520663050891 Eh   ::
         :::::::::::::::::::::::::::::::::::::::::::::::::::::

           -------------------------------------------------
          | TOTAL ENERGY              -98.629742323172 Eh   |
          | TOTAL ENTHALPY            -98.008758744844 Eh   |
          | TOTAL FREE ENERGY         -98.109079272281 Eh   |
          | GRADIENT NORM               0.000129807063 Eh/α |
          | HOMO-LUMO GAP               2.200951066390 eV   |
           -------------------------------------------------

 * finished run on 2025/09/02 at 17:12:13.476
