   * xtb version 6.7.1 (edcfbbe) compiled by 'albert@albert-system' on 2024-07-22

   ID    Z sym.   atoms
    1    6 C      1-6, 8-13, 15-38
    2    5 B      7
    3    7 N      14
    4    1 H      39-72

          program call               : xtb data2507/gas/C3F7/C3F7_gas_T1_crest.xyz --gfn 2 --spinpol --tblite --uhf 2 --ohess vtight --parallel 40 --molden --ceasefiles --namespace data2507/gas/C3F7/C3F7_gas_T1_finalOpt
 * total energy  :   -98.5410783 Eh     change        0.1115863E-07 Eh
 * total energy  :   -98.5410912 Eh     change       -0.1294674E-04 Eh
 * total energy  :   -98.5410993 Eh     change       -0.8086341E-05 Eh
 * total energy  :   -98.5411029 Eh     change       -0.3565682E-05 Eh
 * total energy  :   -98.5411079 Eh     change       -0.5044504E-05 Eh
 * total energy  :   -98.5411113 Eh     change       -0.3399907E-05 Eh
 * total energy  :   -98.5411144 Eh     change       -0.3110650E-05 Eh
 * total energy  :   -98.5411166 Eh     change       -0.2177841E-05 Eh
 * total energy  :   -98.5411177 Eh     change       -0.1096698E-05 Eh
 * total energy  :   -98.5411186 Eh     change       -0.8513757E-06 Eh
 * total energy  :   -98.5411192 Eh     change       -0.6812919E-06 Eh
 * total energy  :   -98.5411195 Eh     change       -0.3088812E-06 Eh
 * total energy  :   -98.5411198 Eh     change       -0.2340035E-06 Eh
 * total energy  :   -98.5411199 Eh     change       -0.1545937E-06 Eh
 * total energy  :   -98.5411200 Eh     change       -0.6411554E-07 Eh
   *** GEOMETRY OPTIMIZATION CONVERGED AFTER 15 ITERATIONS ***

 final structure:
================
72
 xtb: 6.7.1 (edcfbbe)
C            3.11626349826749        3.35576904048278        1.43259302217895
C            1.92923796650128        2.46891501644346        1.23649561474388
C            1.80771724538724        1.26721434388528        1.92316426002571
C            0.72121563894798        0.43316421438379        1.74010870111838
C            0.60440540123133       -0.78038205078156        2.61151100857718
C           -0.27446768725108        0.75522219416186        0.77637699044516
B           -1.29199538987008       -0.31908640647366        0.29032630105987
C           -0.85565639521523       -1.72005898664990       -0.11828979100459
C           -1.75852187341815       -2.81797891002192       -0.08553326666291
C           -1.37119755940169       -4.11525402099813       -0.26733692497493
C           -0.02784106245928       -4.42163521341855       -0.53780676203219
C            0.88607957654381       -3.39082516903422       -0.62486396997061
C            0.50591340526770       -2.06482049803354       -0.46242515193493
N            1.50290300258165       -1.09170843391496       -0.58816366461095
C            2.71226826412827       -1.10392499853056        0.07425531452595
C            3.18418732734435       -1.98671809110254        1.03754762727886
C            4.43776338151807       -1.75357703803195        1.57072058275804
C            5.21216940444608       -0.67042563905591        1.16082303767839
C            4.74947673944581        0.21246744064551        0.20152264566493
C            3.49448762091935       -0.00003814890594       -0.34533883111212
C            2.71992031185753        0.68813969200686       -1.34156962362658
C            2.95914001257714        1.79451289095657       -2.14123839862393
C            2.00189910299054        2.15818105683475       -3.07010453634684
C            0.83368869707649        1.41656622899066       -3.22326284025754
C            0.57392183567258        0.31136921069231       -2.43524884470905
C            1.50979836449731       -0.03131794800478       -1.47188883450680
C           -2.84431521738370        0.03385150167821        0.24493253232464
C           -3.46063173397824        0.56775535051912        1.38991987222670
C           -2.69300256598731        0.77739812031401        2.66086694818709
C           -4.81335533513150        0.86549283905003        1.38287573469111
C           -5.60091238632954        0.65501690783842        0.25973294134487
C           -7.06530000022687        0.97633480303743        0.28286614903822
C           -4.99114186636294        0.13194676688934       -0.86627044378016
C           -3.63585298163397       -0.17629099160785       -0.89326333346840
C           -3.07943750485197       -0.66346309938724       -2.20114028948017
C           -0.21878565967132        2.05191775355413        0.19859008464469
C           -1.32633800055702        2.53455792153827       -0.68415013348583
C            0.87678821365887        2.85940565140741        0.40611306809700
H            2.89461708527177        4.12963886018474        2.16959871703592
H            3.38006070344214        3.85081564339509        0.49990933779526
H            3.96988634660915        2.78283297317509        1.78773231360217
H            2.58170207028958        0.98055458477236        2.62267199435889
H            0.18522191841404       -1.62680212105063        2.07446461112924
H            1.57503756204079       -1.05509803584421        3.01861239689637
H           -0.05942465413923       -0.56119289545064        3.44919537026260
H           -2.79399180499472       -2.59918091150582        0.13422809726391
H           -2.09650287229009       -4.91349321421617       -0.20305347620458
H            0.27961944886438       -5.44110186907835       -0.70909082373597
H            1.91445648193289       -3.60088938031968       -0.88750137709012
H            2.59048856033078       -2.82650109377168        1.36387454181261
H            4.82605730410585       -2.42559005312948        2.32191369911270
H            6.18753811808503       -0.52238398065763        1.60041097305657
H            5.35054293416172        1.05130824481679       -0.11558603345590
H            3.87861655220635        2.35213267897855       -2.04482095569624
H            2.16788540799325        3.01861103840377       -3.70143892718392
H            0.11955509939139        1.70817993840545       -3.97924181807207
H           -0.32039783467278       -0.27379398862830       -2.56675895224740
H           -1.84133676617153        1.43491349097833        2.49582298634906
H           -2.31357167890056       -0.17601756532857        3.02576495099259
H           -3.32757487451388        1.21526747364878        3.42839968351790
H           -5.27136475642798        1.25912163252790        2.28060095795918
H           -7.23213443830206        1.97842085228325        0.67541877000391
H           -7.59530079002413        0.27396799202061        0.92697603128141
H           -7.49254530850722        0.91568782189347       -0.71520784537616
H           -5.57837571448277       -0.02900142910150       -1.76062175379334
H           -2.24145241416030       -1.33697535751150       -2.05205086737444
H           -3.84627825981683       -1.18612217365933       -2.76949472018954
H           -2.74349000760413        0.18484126487386       -2.80109409775345
H           -2.23330466397015        2.69845850880760       -0.10305530987892
H           -1.05132837193577        3.46685613497709       -1.17222026049177
H           -1.55521539809861        1.79107410773761       -1.44303969345808
H            0.93373710524219        3.81719817011835       -0.09302101654941

 projected vibrational frequencies (cm⁻¹)
eigval :       -0.00     0.00     0.00     0.00     0.00     0.00
eigval :       15.12    22.23    33.09    35.63    38.60    43.90
eigval :       48.11    55.07    65.30    72.01    76.77    88.44
eigval :      101.48   112.33   118.20   136.60   140.91   145.62
eigval :      152.08   157.47   164.17   173.38   178.26   190.08
eigval :      190.87   208.66   214.23   223.14   249.40   274.34
eigval :      276.53   278.53   291.97   298.96   308.22   323.64
eigval :      330.03   362.59   393.33   402.59   409.19   425.62
eigval :      435.41   448.57   460.83   472.55   480.40   486.54
eigval :      492.02   501.11   508.14   513.27   516.61   523.67
eigval :      536.49   538.66   548.31   560.08   581.35   591.96
eigval :      596.46   598.65   601.65   616.95   649.33   663.67
eigval :      666.04   673.38   705.37   712.23   739.88   756.12
eigval :      769.07   779.14   833.89   836.69   843.28   847.89
eigval :      865.50   866.93   871.45   874.01   875.40   889.47
eigval :      897.75   900.78   907.72   908.26   918.79   919.74
eigval :      924.96   959.38   961.48   974.18   975.50  1010.68
eigval :     1012.07  1016.08  1023.13  1024.64  1025.21  1026.49
eigval :     1029.66  1031.00  1034.24  1038.05  1041.86  1042.75
eigval :     1056.78  1066.71  1068.93  1070.34  1088.57  1109.88
eigval :     1127.10  1143.46  1156.37  1173.43  1177.18  1179.47
eigval :     1188.07  1196.56  1200.42  1227.45  1229.12  1230.92
eigval :     1237.03  1240.18  1280.50  1287.56  1292.79  1300.99
eigval :     1305.85  1319.58  1331.56  1344.02  1348.26  1366.39
eigval :     1370.92  1389.15  1397.25  1398.30  1400.80  1402.62
eigval :     1403.38  1407.45  1413.73  1415.12  1419.07  1423.17
eigval :     1428.42  1435.44  1457.60  1461.72  1466.61  1469.10
eigval :     1473.96  1474.45  1480.86  1483.06  1483.56  1484.24
eigval :     1484.47  1485.53  1488.71  1491.14  1492.35  1496.17
eigval :     1532.02  1541.85  1564.82  1568.39  1574.83  1583.75
eigval :     1584.83  1601.56  2972.33  2981.67  2985.54  2993.95
eigval :     3006.11  3007.44  3016.26  3019.28  3024.32  3027.26
eigval :     3030.96  3032.35  3033.04  3034.42  3038.36  3043.04
eigval :     3044.40  3055.68  3057.07  3057.55  3057.89  3057.99
eigval :     3062.17  3066.54  3076.29  3076.91  3078.35  3082.81
eigval :     3084.44  3091.82  3093.50  3096.15  3098.05  3127.86

   temp. (K)  partition function   enthalpy   heat capacity  entropy
                                   cal/mol     cal/K/mol   cal/K/mol   J/K/mol
 298.15  VIB  0.459E+16            20967.405    128.459    130.970
         ROT  0.237E+08              888.752      2.981     36.722
         INT  0.109E+24            21856.157    131.440    167.692
         TR   0.105E+29             1481.254      4.968     44.444
         TOT                       23337.4113   136.4084   212.1359   887.5767

       T/K    H(0)-H(T)+PV         H(T)/Eh          T*S/Eh         G(T)/Eh
   ------------------------------------------------------------------------
    298.15    0.371905E-01    0.617319E+00    0.100793E+00    0.516527E+00
   ------------------------------------------------------------------------

         :::::::::::::::::::::::::::::::::::::::::::::::::::::
         ::                  THERMODYNAMIC                  ::
         :::::::::::::::::::::::::::::::::::::::::::::::::::::
         :: total free energy         -98.024593154660 Eh   ::
         ::.................................................::
         :: total energy              -98.541120024188 Eh   ::
         :: zero point energy           0.580128964326 Eh   ::
         :: G(RRHO) w/o ZPVE           -0.063602094799 Eh   ::
         :: G(RRHO) contrib.            0.516526869527 Eh   ::
         :::::::::::::::::::::::::::::::::::::::::::::::::::::

           -------------------------------------------------
          | TOTAL ENERGY              -98.541120024188 Eh   |
          | TOTAL ENTHALPY            -97.923800527661 Eh   |
          | TOTAL FREE ENERGY         -98.024593154660 Eh   |
          | GRADIENT NORM               0.000089766924 Eh/α |
           -------------------------------------------------

 * finished run on 2025/09/02 at 17:18:38.423
