   * xtb version 6.7.1 (edcfbbe) compiled by 'albert@albert-system' on 2024-07-22

   ID    Z sym.   atoms
    1    6 C      1-6, 8-13, 15-38
    2    5 B      7
    3    7 N      14
    4    1 H      39-72

          program call               : xtb data2507/gas/C3F7/C3F7_gas_S0_finalOpt.xtbopt.xyz --gfn 2 --spinpol --tblite --uhf 2 --ohess vtight --parallel 40 --molden --ceasefiles --namespace data2507/gas/C3F7/C3F7_gas_T1_preOpt
 * total energy  :   -98.5353024 Eh     change       -0.2438465E-07 Eh
 * total energy  :   -98.5383502 Eh     change       -0.3047875E-02 Eh
 * total energy  :   -98.5396910 Eh     change       -0.1340737E-02 Eh
 * total energy  :   -98.5399403 Eh     change       -0.2493807E-03 Eh
 * total energy  :   -98.5403029 Eh     change       -0.3625069E-03 Eh
 * total energy  :   -98.5404769 Eh     change       -0.1740301E-03 Eh
 * total energy  :   -98.5406765 Eh     change       -0.1995900E-03 Eh
 * total energy  :   -98.5408405 Eh     change       -0.1640384E-03 Eh
 * total energy  :   -98.5409194 Eh     change       -0.7893661E-04 Eh
 * total energy  :   -98.5409570 Eh     change       -0.3753903E-04 Eh
 * total energy  :   -98.5411188 Eh     change       -0.4710841E-06 Eh
 * total energy  :   -98.5411192 Eh     change       -0.3956918E-06 Eh
 * total energy  :   -98.5411195 Eh     change       -0.3842342E-06 Eh
 * total energy  :   -98.5411197 Eh     change       -0.2009773E-06 Eh
 * total energy  :   -98.5411198 Eh     change       -0.9743597E-07 Eh
 * total energy  :   -98.5411200 Eh     change       -0.1628782E-06 Eh
 * total energy  :   -98.5411203 Eh     change       -0.2703123E-06 Eh
 * total energy  :   -98.5411204 Eh     change       -0.1460840E-06 Eh
 * total energy  :   -98.5411204 Eh     change       -0.4989971E-08 Eh
   *** GEOMETRY OPTIMIZATION CONVERGED AFTER 38 ITERATIONS ***

 final structure:
================
72
 xtb: 6.7.1 (edcfbbe)
C            3.15158010205384        3.38713721499649        1.29784541606530
C            1.95408274552878        2.50771620615284        1.13461870420826
C            1.81001871422719        1.34558925389670        1.88278933520245
C            0.71432213608398        0.51710165650233        1.73345462720672
C            0.57402904055828       -0.64627231161306        2.66784868741936
C           -0.26841239951666        0.80044439096225        0.74469366489836
B           -1.29728502756343       -0.28373900044091        0.30703915530498
C           -0.87843322274835       -1.71033927907647       -0.02391260728237
C           -1.79721360815525       -2.79227193310716        0.05867007566696
C           -1.42681946200359       -4.10255964832826       -0.05099840680789
C           -0.08586060858078       -4.44119358479455       -0.29317306438327
C            0.84327442713911       -3.42904517990902       -0.42668935855374
C            0.48063826104379       -2.09128423753779       -0.33797683520548
N            1.49192110138998       -1.13972883638276       -0.50688791603456
C            2.69579427481514       -1.13203512624251        0.16532798689743
C            3.14901716242773       -1.96867062431344        1.17758146452867
C            4.40136161920988       -1.72327410912143        1.70821800527601
C            5.19287636732856       -0.67318124005919        1.24812541907225
C            4.74911232250683        0.16328614270447        0.23950931597179
C            3.49551230215879       -0.06181074064947       -0.30546319751011
C            2.73770278943978        0.58228732634214       -1.34317315925867
C            2.99716444047695        1.64204450367738       -2.19773102051160
C            2.05202337562303        1.96768805932503       -3.15273673154748
C            0.87585520995636        1.23323868334163       -3.27675604104995
C            0.59573170585755        0.17460381802808       -2.43369144434644
C            1.51950830229768       -0.12799910654519       -1.44553080269343
C           -2.84392360287009        0.08843714899747        0.23107665140802
C           -3.45918927141682        0.68995172084016        1.34238708407026
C           -2.69727769828449        0.94915033887650        2.60761682020141
C           -4.80595378432996        1.01270720200648        1.30818891395331
C           -5.58802628485208        0.76075029494299        0.19012659805005
C           -7.04724835919495        1.10547560169578        0.18234967550991
C           -4.97958457739893        0.16819797897157       -0.90208457166632
C           -3.63054134277532       -0.16639165029146       -0.90142935492687
C           -3.07324990158362       -0.73125421772665       -2.17730390047171
C           -0.18980149281148        2.06390794628465        0.09965864828341
C           -1.28284925590218        2.51351878137295       -0.81782294775843
C            0.91472981461002        2.86711361372605        0.27466772048495
H            4.00770597670806        2.80975442700276        1.63996338836912
H            2.95188764981467        4.16705246374813        2.03485231463079
H            3.39987146809542        3.87348648755843        0.35658495254295
H            2.57375324963412        1.08655966424035        2.60398178050849
H            1.54148043809306       -0.92735467000378        3.07820803132046
H           -0.07202638023147       -0.36410774478994        3.50073809588330
H            0.12426542248167       -1.50661107523568        2.18012074339183
H           -2.83119050254873       -2.54798438609313        0.25772531306982
H           -2.16395524504254       -4.88617854621069        0.04889818213440
H            0.20854100893902       -5.47239491106208       -0.40781864803465
H            1.87056910809900       -3.66691201160032       -0.66904278672609
H            2.54212996178359       -2.78281849048995        1.54238364876771
H            4.77513166313078       -2.35927716996524        2.49718392199312
H            6.16668534241979       -0.51434237889839        1.68739344854220
H            5.36380244539288        0.97593339500952       -0.11730183299864
H            3.92253240489674        2.19309615190992       -2.12243288544185
H            2.23379772630364        2.79157331736411       -3.82701122437266
H            0.17158658257591        1.49313925455586       -4.05328451453497
H           -0.30484016433541       -0.40576074529343       -2.54182298402166
H           -3.33285305363367        1.42459050576104        3.35159381360105
H           -1.84003465162739        1.59308032418619        2.41905960231817
H           -2.32647150828842        0.01004750516835        3.01563390573973
H           -5.26294829981335        1.46029570351046        2.18080171033765
H           -7.60965694745323        0.37231213184665        0.76198040720132
H           -7.43987248749702        1.11132948360630       -0.83177592204996
H           -7.21436793040713        2.08356137149299        0.63021433868595
H           -5.56316670747878       -0.02750025917447       -1.79189006259601
H           -3.84525170913875       -1.26924863334119       -2.72397034263237
H           -2.71748889113317        0.07830524680428       -2.81797483414329
H           -2.24878694289081       -1.41080319337969       -1.98613842033648
H           -2.19253412206849        2.71992368534197       -0.25476111186924
H           -0.99097171690829        3.41486390842762       -1.35205743182138
H           -1.51529244907626        1.73381639848460       -1.53832641597408
H            0.98880618515589        3.79610788247608       -0.27417387647898

 projected vibrational frequencies (cm⁻¹)
eigval :       -0.00    -0.00     0.00     0.00     0.00     0.00
eigval :       16.44    22.59    32.78    36.26    37.27    44.16
eigval :       48.31    56.76    65.24    72.20    76.89    88.63
eigval :      101.57   112.10   118.31   138.47   140.97   145.30
eigval :      151.74   157.51   164.44   173.35   177.88   190.11
eigval :      191.63   208.39   214.44   222.74   249.24   274.44
eigval :      276.65   278.71   292.32   298.49   308.46   323.15
eigval :      330.00   362.52   393.50   402.30   409.24   425.73
eigval :      435.38   448.72   461.18   472.39   479.98   486.87
eigval :      491.84   501.19   508.09   513.11   516.62   523.24
eigval :      536.27   538.70   548.32   559.99   581.29   591.85
eigval :      596.51   598.53   601.64   616.61   649.23   663.60
eigval :      665.95   673.38   705.39   712.25   739.71   756.12
eigval :      768.99   779.08   833.58   836.57   843.29   847.80
eigval :      865.34   867.04   871.09   874.03   875.25   889.47
eigval :      897.57   900.61   907.44   908.31   918.71   919.63
eigval :      924.80   959.30   961.79   973.66   975.62  1010.83
eigval :     1011.81  1016.16  1022.72  1024.28  1025.21  1026.51
eigval :     1029.98  1031.16  1034.03  1038.09  1041.49  1042.48
eigval :     1056.84  1066.70  1069.05  1070.58  1088.92  1109.94
eigval :     1127.17  1143.26  1156.83  1173.11  1176.60  1179.22
eigval :     1187.56  1196.32  1199.56  1227.31  1229.00  1230.88
eigval :     1236.97  1240.48  1280.51  1287.45  1292.57  1301.74
eigval :     1305.96  1319.47  1330.70  1343.78  1348.22  1366.46
eigval :     1370.62  1388.75  1397.10  1397.94  1400.57  1402.40
eigval :     1403.18  1407.04  1413.24  1415.01  1418.98  1422.99
eigval :     1428.31  1435.41  1457.48  1461.45  1466.39  1468.79
eigval :     1473.48  1474.87  1480.74  1483.05  1483.20  1484.12
eigval :     1484.59  1485.63  1488.23  1490.80  1492.17  1495.99
eigval :     1531.88  1542.04  1564.73  1568.34  1574.56  1583.08
eigval :     1584.75  1601.54  2972.44  2980.99  2983.98  2990.58
eigval :     3006.00  3008.28  3019.01  3021.49  3026.83  3027.08
eigval :     3030.89  3032.17  3032.36  3032.99  3036.82  3043.13
eigval :     3045.70  3055.69  3056.92  3057.61  3057.95  3058.15
eigval :     3061.94  3066.37  3076.22  3076.75  3078.15  3082.61
eigval :     3084.37  3091.45  3093.49  3095.86  3097.44  3127.48

   temp. (K)  partition function   enthalpy   heat capacity  entropy
                                   cal/mol     cal/K/mol   cal/K/mol   J/K/mol
 298.15  VIB  0.408E+16            20962.762    128.496    130.847
         ROT  0.236E+08              888.752      2.981     36.722
         INT  0.965E+23            21851.515    131.477    167.569
         TR   0.105E+29             1481.254      4.968     44.444
         TOT                       23332.7688   136.4450   212.0131   887.0629

       T/K    H(0)-H(T)+PV         H(T)/Eh          T*S/Eh         G(T)/Eh
   ------------------------------------------------------------------------
    298.15    0.371831E-01    0.617284E+00    0.100734E+00    0.516549E+00
   ------------------------------------------------------------------------

         :::::::::::::::::::::::::::::::::::::::::::::::::::::
         ::                  THERMODYNAMIC                  ::
         :::::::::::::::::::::::::::::::::::::::::::::::::::::
         :: total free energy         -98.024571013988 Eh   ::
         ::.................................................::
         :: total energy              -98.541120432573 Eh   ::
         :: zero point energy           0.580100559054 Eh   ::
         :: G(RRHO) w/o ZPVE           -0.063551140470 Eh   ::
         :: G(RRHO) contrib.            0.516549418584 Eh   ::
         :::::::::::::::::::::::::::::::::::::::::::::::::::::

           -------------------------------------------------
          | TOTAL ENERGY              -98.541120432573 Eh   |
          | TOTAL ENTHALPY            -97.923836739668 Eh   |
          | TOTAL FREE ENERGY         -98.024571013988 Eh   |
          | GRADIENT NORM               0.000176888459 Eh/α |
           -------------------------------------------------

 * finished run on 2025/09/02 at 17:12:33.760
