   * xtb version 6.7.1 (edcfbbe) compiled by 'albert@albert-system' on 2024-07-22

   ID    Z sym.   atoms
    1    7 N      1, 4, 7, 10, 19, 40
    2    6 C      2, 3, 5, 6, 8, 9, 11-18, 20-39, 41-58
    3    1 H      59-90

          program call               : xtb data2507/gas/APDC-DTPA/APDC-DTPA_gas_S0_finalOpt.xtbopt.xyz --gfn 2 --spinpol --tblite --uhf 2 --ohess vtight --parallel 40 --molden --ceasefiles --namespace data2507/gas/APDC-DTPA/APDC-DTPA_gas_T1_preOpt
 * total energy  :  -145.1030218 Eh     change       -0.1187701E-07 Eh
 * total energy  :  -145.1070102 Eh     change       -0.3988356E-02 Eh
 * total energy  :  -145.1095969 Eh     change       -0.2586783E-02 Eh
 * total energy  :  -145.1095525 Eh     change        0.4448450E-04 Eh
 * total energy  :  -145.1097670 Eh     change       -0.2145571E-03 Eh
 * total energy  :  -145.1097763 Eh     change       -0.9295684E-05 Eh
 * total energy  :  -145.1097825 Eh     change       -0.6167659E-05 Eh
 * total energy  :  -145.1097758 Eh     change        0.6659504E-05 Eh
 * total energy  :  -145.1097880 Eh     change       -0.1215283E-04 Eh
 * total energy  :  -145.1097946 Eh     change       -0.6636690E-05 Eh
 * total energy  :  -145.1098326 Eh     change       -0.4055931E-06 Eh
 * total energy  :  -145.1098330 Eh     change       -0.3907601E-06 Eh
 * total energy  :  -145.1098334 Eh     change       -0.3558196E-06 Eh
 * total energy  :  -145.1098336 Eh     change       -0.2274675E-06 Eh
 * total energy  :  -145.1098336 Eh     change        0.4052515E-07 Eh
 * total energy  :  -145.1098339 Eh     change       -0.3101065E-06 Eh
 * total energy  :  -145.1098342 Eh     change       -0.3277351E-06 Eh
 * total energy  :  -145.1098344 Eh     change       -0.2477841E-06 Eh
 * total energy  :  -145.1098345 Eh     change       -0.5319123E-08 Eh
   *** GEOMETRY OPTIMIZATION CONVERGED AFTER 44 ITERATIONS ***

 final structure:
================
90
 xtb: 6.7.1 (edcfbbe)
N          -10.94310845603813       -1.92672353238985       -0.46264575902944
C           -9.94225641695926       -1.37719191855725       -0.32924116007163
C           -8.72700987252193       -0.70084784362593       -0.16473264137990
N           -7.57927029607537       -1.32852594552717       -0.32873126044372
C           -6.44424951193863       -0.72528531326111       -0.17932307563815
C           -6.44288447808726        0.73361721117386        0.19057838116613
N           -7.57675278552155        1.33712703425803        0.34742165027849
C           -8.72568759783327        0.70965743853379        0.19118907455222
C           -9.93964410497145        1.38603812653209        0.36478163521013
N          -10.93942913616968        1.93559767164158        0.50590957045307
C           -5.08859895577920        1.14460772558618        0.28628277689034
C           -4.44916324766370        2.34531285856936        0.57947119576750
C           -3.06382374751196        2.37699998650052        0.50272188726368
C           -2.27782435093701        1.27010870148173        0.18059415389274
C           -0.85241254517521        1.47804374886244       -0.08862701437207
C           -0.30716216954364        1.06015539766903       -1.30460269319178
C            1.01028912719676        1.30607134980713       -1.61762501506650
C            1.84445162672500        1.96273649188606       -0.70887663042213
N            3.18900146212848        2.19224059660386       -1.00020189702524
C            3.83799812164747        3.30930080970429       -0.45039104116584
C            3.20503844666627        4.55109731825261       -0.41966476504098
C            3.84815663147026        5.64340141370978        0.12964501481229
C            5.12629650163094        5.51599139045166        0.64949808083239
C            5.76043068704624        4.28437608064998        0.61662282216311
C            5.12464595852127        3.18514729292207        0.07289318295900
C            3.92452276188355        1.31712577579472       -1.80627777212393
C            3.67861388617587       -0.05581473995846       -1.79229383005248
C            4.42706169561872       -0.90663363356777       -2.58154428706883
C            5.43416236871991       -0.40953739166925       -3.39225225883157
C            5.68067679617501        0.95384068853104       -3.41439422368957
C            4.93362805617851        1.81346707810398       -2.63366134484318
C            1.30050842761352        2.38807011580085        0.50734017584792
C           -0.02661616295388        2.16286928909972        0.80099262126125
C           -2.89904864798508        0.00267162373623       -0.00141011374498
C           -2.27982755824877       -1.26557382371237       -0.18468866088340
C           -0.85448937912127       -1.47543197245507        0.08337495988335
C           -0.02975098878115       -2.16148387947560       -0.80624236085053
C            1.29704935621813       -2.38869319932573       -0.51251422789269
C            1.84154766537569       -1.96423930863139        0.70375521844352
N            3.18566642244949       -2.19573933068378        0.99540507995698
C            3.92171782132243       -1.32195233619909        1.80248326658436
C            4.92866140763757       -1.82005110663638        2.63141434779457
C            5.67577930105214       -0.96172720711712        3.41352669603349
C            5.43148810642065        0.40204613834401        3.39117327992577
C            4.42663213628920        0.90090872814641        2.57876287856373
C            3.67814877322008        0.05139787012403        1.78814352697893
C            3.83328772383799       -3.31388503024554        0.44630215186013
C            3.19818433357033       -4.55456758586803        0.41462217631454
C            3.84015014686197       -5.64797242814909       -0.13384049816537
C            5.11924904885269       -5.52280059150534       -0.65187470570610
C            5.75549992841262       -4.29230108187551       -0.61805689955128
C            5.12088392302574       -3.19197657434891       -0.07518651207037
C            1.00837374452647       -1.30627014256927        1.61246691419514
C           -0.30863784971603       -1.05833734037535        1.29936999419742
C           -3.06789596791145       -2.37152197366291       -0.50496718681185
C           -4.45343927359161       -2.33837015718914       -0.57739584152430
C           -5.09070178422575       -1.13710550685752       -0.28172954489011
C           -4.29811406537687        0.00343403392728        0.00063022449522
H           -5.01170278591453        3.23243603525632        0.82385643466248
H           -2.56122347055047        3.32204807241360        0.65608871644028
H           -0.94157369056910        0.56482451809896       -2.02449932144604
H            1.40136911201952        1.00473293878740       -2.57788069709016
H            2.21249953729449        4.65115376598802       -0.83382483525104
H            3.35104811791906        6.60175240512200        0.14496397271245
H            5.62554238985931        6.37199331809767        1.07683128931780
H            6.75429256664334        4.17582014362526        1.02455664604163
H            5.61347251882091        2.22200539016320        0.05720891579474
H            2.89860206490291       -0.45106372107116       -1.16171597520089
H            4.22901733760087       -1.96825733258783       -2.55524945386810
H            6.01910311186442       -1.07843309403829       -4.00458178706634
H            6.45598049168143        1.35309908156041       -4.05118478305815
H            5.12219630297874        2.87647615774610       -2.66397668712909
H            1.92955698323209        2.89320740426006        1.22560582857006
H           -0.42452482512779        2.49416804397060        1.74891083136972
H           -0.42814639208539       -2.49224452096698       -1.75414660538426
H            1.92537543886736       -2.89479233825615       -1.23074102542935
H            5.11540642945883       -2.88337700423437        2.66194324234545
H            6.44932139704197       -1.36232113187480        4.05161725514522
H            6.01640030243146        1.06989884194336        4.00466701246431
H            4.23035649813221        1.96285515488428        2.55226360101828
H            2.89984389738382        0.44796648264511        1.15628823436858
H            2.20493210868323       -4.65294678287598        0.82747277328184
H            3.34138199610797       -6.60544915116492       -0.14988025689194
H            5.61760177886658       -6.37967461496579       -1.07850049114409
H            6.75013734085306       -4.18549056064689       -1.02455703157263
H            5.61137364756812       -2.22969207869259       -0.05878601707099
H            1.39982573863420       -1.00558657025364        2.57277235038126
H           -0.94235581167923       -0.56207549198884        2.01923390390361
H           -2.56676198822155       -3.31711544741571       -0.65977442758691
H           -5.01767596144187       -3.22492618132361       -0.81991954952725

 projected vibrational frequencies (cm⁻¹)
eigval :       -0.00    -0.00    -0.00     0.00     0.00     0.00
eigval :       16.72    17.19    21.57    22.30    31.61    32.32
eigval :       45.48    45.75    51.58    55.88    60.84    67.72
eigval :       67.90    73.22    74.97    79.28    86.70    91.66
eigval :       96.73   101.58   119.96   123.78   136.53   141.80
eigval :      143.83   164.01   165.74   173.78   184.86   198.39
eigval :      220.33   234.04   234.50   242.81   242.93   276.98
eigval :      287.38   300.86   308.77   318.92   323.10   332.21
eigval :      350.02   354.36   363.61   378.92   380.10   381.20
eigval :      381.96   382.81   383.91   394.25   395.05   401.53
eigval :      411.50   421.20   423.64   427.68   458.42   464.71
eigval :      469.20   474.31   479.62   495.29   496.31   497.23
eigval :      508.51   518.90   528.73   534.80   552.66   571.79
eigval :      584.06   584.11   585.84   586.66   589.46   593.84
eigval :      594.96   605.38   609.09   609.35   625.21   626.45
eigval :      643.13   644.09   660.85   661.14   666.20   666.49
eigval :      673.26   675.60   683.81   690.20   696.18   720.60
eigval :      728.27   745.93   756.79   758.83   760.59   761.95
eigval :      769.56   808.53   809.82   822.19   822.82   833.83
eigval :      867.12   868.60   875.44   875.55   877.23   878.96
eigval :      893.24   896.19   898.05   898.32   899.00   900.17
eigval :      903.44   909.09   909.78   913.53   919.28   921.59
eigval :      927.17   927.58   928.79   929.09   930.29   931.18
eigval :      931.21   931.54   935.42   937.07   939.52   958.61
eigval :      984.00   985.86  1004.85  1005.18  1010.78  1015.82
eigval :     1049.17  1067.37  1081.85  1081.90  1085.55  1087.07
eigval :     1119.90  1121.18  1121.69  1124.20  1127.56  1128.62
eigval :     1134.37  1144.07  1145.13  1179.78  1179.91  1180.59
eigval :     1180.82  1183.34  1184.69  1187.06  1190.36  1194.87
eigval :     1195.75  1196.43  1200.54  1212.56  1216.66  1227.31
eigval :     1231.94  1266.57  1270.21  1271.11  1277.01  1277.58
eigval :     1278.01  1283.64  1287.36  1304.63  1306.30  1314.42
eigval :     1314.67  1317.36  1319.65  1324.01  1324.50  1326.77
eigval :     1327.82  1330.05  1336.35  1359.10  1360.25  1404.43
eigval :     1410.15  1413.23  1414.09  1433.04  1435.00  1435.04
eigval :     1441.45  1441.66  1465.52  1466.44  1466.63  1468.98
eigval :     1469.42  1482.62  1484.33  1495.25  1512.06  1539.20
eigval :     1543.07  1544.48  1545.02  1574.24  1574.32  1577.96
eigval :     1578.15  1582.29  1583.80  1587.92  1588.66  1589.10
eigval :     1595.90  1596.45  2320.96  2322.86  3070.83  3071.10
eigval :     3078.07  3078.09  3079.30  3079.43  3080.38  3080.54
eigval :     3081.33  3081.54  3081.75  3081.79  3082.97  3083.33
eigval :     3088.92  3089.17  3090.31  3090.42  3090.89  3091.49
eigval :     3092.95  3093.01  3094.33  3094.99  3099.68  3099.99
eigval :     3100.93  3101.44  3101.46  3101.71  3115.86  3118.23

   temp. (K)  partition function   enthalpy   heat capacity  entropy
                                   cal/mol     cal/K/mol   cal/K/mol   J/K/mol
 298.15  VIB  0.470E+21            27423.934    172.117    170.894
         ROT  0.658E+08              888.752      2.981     38.756
         INT  0.310E+29            28312.687    175.098    209.649
         TR   0.195E+29             1481.254      4.968     45.667
         TOT                       29793.9406   180.0663   255.3161  1068.2427

       T/K    H(0)-H(T)+PV         H(T)/Eh          T*S/Eh         G(T)/Eh
   ------------------------------------------------------------------------
    298.15    0.474797E-01    0.719680E+00    0.121309E+00    0.598371E+00
   ------------------------------------------------------------------------

         :::::::::::::::::::::::::::::::::::::::::::::::::::::
         ::                  THERMODYNAMIC                  ::
         :::::::::::::::::::::::::::::::::::::::::::::::::::::
         :: total free energy        -144.511463073835 Eh   ::
         ::.................................................::
         :: total energy             -145.109834385086 Eh   ::
         :: zero point energy           0.672200574899 Eh   ::
         :: G(RRHO) w/o ZPVE           -0.073829263648 Eh   ::
         :: G(RRHO) contrib.            0.598371311251 Eh   ::
         :::::::::::::::::::::::::::::::::::::::::::::::::::::

           -------------------------------------------------
          | TOTAL ENERGY             -145.109834385086 Eh   |
          | TOTAL ENTHALPY           -144.390154143595 Eh   |
          | TOTAL FREE ENERGY        -144.511463073835 Eh   |
          | GRADIENT NORM               0.000141875637 Eh/α |
           -------------------------------------------------

 * finished run on 2025/07/16 at 21:19:31.928
