   * xtb version 6.7.1 (edcfbbe) compiled by 'albert@albert-system' on 2024-07-22

   ID    Z sym.   atoms
    1    7 N      1, 4, 7, 10, 19, 40
    2    6 C      2, 3, 5, 6, 8, 9, 11-18, 20-39, 41-58
    3    1 H      59-90

          program call               : xtb data2507/gas/APDC-DTPA/APDC-DTPA_gas_S0_crest.xyz --gfn 2 --ohess vtight --parallel 40 --molden --ceasefiles --namespace data2507/gas/APDC-DTPA/APDC-DTPA_gas_S0_finalOpt
          :  Hamiltonian                  GFN2-xTB          :
 * total energy  :  -145.1569181 Eh     change       -0.3532108E-08 Eh
 * total energy  :  -145.1569190 Eh     change       -0.9598456E-06 Eh
 * total energy  :  -145.1569189 Eh     change        0.1818736E-06 Eh
 * total energy  :  -145.1569225 Eh     change       -0.3670592E-05 Eh
 * total energy  :  -145.1569242 Eh     change       -0.1656995E-05 Eh
 * total energy  :  -145.1569238 Eh     change        0.4206854E-06 Eh
 * total energy  :  -145.1569253 Eh     change       -0.1491493E-05 Eh
 * total energy  :  -145.1569258 Eh     change       -0.5275031E-06 Eh
 * total energy  :  -145.1569249 Eh     change        0.8709698E-06 Eh
 * total energy  :  -145.1569266 Eh     change       -0.1717222E-05 Eh
 * total energy  :  -145.1569287 Eh     change       -0.3290495E-06 Eh
 * total energy  :  -145.1569291 Eh     change       -0.3405755E-06 Eh
 * total energy  :  -145.1569294 Eh     change       -0.2892660E-06 Eh
 * total energy  :  -145.1569296 Eh     change       -0.2416222E-06 Eh
 * total energy  :  -145.1569298 Eh     change       -0.2089471E-06 Eh
 * total energy  :  -145.1569300 Eh     change       -0.1685658E-06 Eh
 * total energy  :  -145.1569301 Eh     change       -0.1070082E-06 Eh
 * total energy  :  -145.1569301 Eh     change        0.3806889E-08 Eh
 * total energy  :  -145.1569301 Eh     change       -0.2842560E-07 Eh
   *** GEOMETRY OPTIMIZATION CONVERGED AFTER 23 ITERATIONS ***

 final structure:
================
90
 xtb: 6.7.1 (edcfbbe)
N          -10.95307145655157       -1.88003165300278       -0.48952411889341
C           -9.94420360340821       -1.35477526331528       -0.35100749634006
C           -8.71269820269399       -0.67750171807702       -0.17312497896882
N           -7.58133988141960       -1.36947751329607       -0.34853902236412
C           -6.46726696336889       -0.69414686832119       -0.17207542417316
C           -6.46600322020918        0.70345043108806        0.17996693184460
N           -7.57882420915694        1.38082208981589        0.35648736820043
C           -8.71145379067614        0.69092883121978        0.18108190950159
C           -9.94164997274272        1.37056046075701        0.35903563197501
N          -10.94937532812805        1.89808920847177        0.49722958709821
C           -5.09363381115077        1.14211220451887        0.28479734098847
C           -4.46601173236760        2.33190002254339        0.57585904627791
C           -3.07097656820603        2.37259096993273        0.49894410523164
C           -2.28412142462922        1.27349409335836        0.18082189366085
C           -0.85893767590150        1.48483109211465       -0.08933504666157
C           -0.31516848625446        1.05877794801739       -1.30155136074029
C            1.00225181221703        1.30376312388060       -1.61476929021959
C            1.83910027514672        1.96252694159982       -0.70913510736054
N            3.18076781794792        2.18200455679981       -0.99968633389384
C            3.85320292007216        3.27814179995573       -0.43066720414506
C            3.25119064318239        4.53403925277787       -0.38886082149110
C            3.91818846689825        5.60444129483642        0.17571812994144
C            5.19107390340850        5.44055808089385        0.69735971226100
C            5.79556454734944        4.19485786637371        0.65083094410691
C            5.13439471647616        3.11733912990358        0.09340309853054
C            3.90567892835825        1.31275833379002       -1.82719794781289
C            3.66816410083526       -0.06053331636576       -1.81465136360442
C            4.40436649861460       -0.90320582308942       -2.62466127094234
C            5.39289992370996       -0.39615550443476       -3.45131358274657
C            5.63340977518614        0.96798197319369       -3.46844024601140
C            4.89621090099735        1.81919855852069       -2.66853558871262
C            1.29210063710104        2.39640816754941        0.50310452359428
C           -0.03622336089547        2.17706626333652        0.79540121995636
C           -2.90340679839903        0.00167838346435        0.00318687051729
C           -2.28622635320885       -1.27108019359605       -0.17503693023879
C           -0.86103993904242       -1.48452669549037        0.09359427623156
C           -0.04023419760976       -2.17743286368949       -0.79239448020005
C            1.28824570706313       -2.39825886688441       -0.50191865374647
C            1.83731304878590       -1.96533244103452        0.70972135690956
N            3.17925222311782       -2.18619666032431        0.99824611114896
C            3.90654141405938       -1.31750516871810        1.82420977162650
C            4.89916926405628       -1.82451454101376        2.66275920131483
C            5.63890239383767       -0.97380226243711        3.46084800816910
C            5.39883139403056        0.39042557266937        3.44483288355898
C            4.40814659146545        0.89803458511563        2.62111401197002
C            3.66946464989820        0.05588311049891        1.81281944885119
C            3.84935970537836       -3.28333786486161        0.42838265894722
C            3.24557872221652       -4.53842794557559        0.38785332464656
C            3.91024543121990       -5.60991562428171       -0.17741828473477
C            5.18256413077686       -5.44794895612333       -0.70103143736988
C            5.78878726533723       -4.20303949391818       -0.65587692000007
C            5.12992707003440       -3.12443772753548       -0.09780801437191
C            1.00231383330770       -1.30612458850774        1.61672564647468
C           -0.31524860370825       -1.05955477748091        1.30527705081455
C           -3.07506343073708       -2.36887171394964       -0.49273334603595
C           -4.47009085526772       -2.32591931491282       -0.56883508772258
C           -5.09566257826837       -1.13517824745391       -0.27726120257033
C           -4.30127515804472        0.00279504011509        0.00364435334493
H           -5.02956561170901        3.22018835186150        0.81554684560542
H           -2.57570413073016        3.32205935398980        0.64546624831801
H           -0.94885357082839        0.55956869384473       -2.01980168421033
H            1.39297219274462        0.99450179372907       -2.57237679637549
H            2.26213265401773        4.66295102644915       -0.80388370506104
H            3.44382054022383        6.57426082391712        0.20107635355898
H            5.70939232301724        6.27944364307927        1.13609890934921
H            6.78599085085203        4.05784377397458        1.05876910537913
H            5.60115468357545        2.14364232575800        0.06497241589560
H            2.90313712202646       -0.46353316235009       -1.17037364065170
H            4.21224020608298       -1.96601456009750       -2.60042435876050
H            5.96954680170863       -1.05854476289715       -4.07861485883797
H            6.39639643893995        1.37485460982017       -4.11543132492368
H            5.08190203305012        2.88301664085159       -2.69154461306185
H            1.91931971683320        2.90593315685493        1.21940996665833
H           -0.43413472978353        2.51257003399776        1.74198845062378
H           -0.43971806742176       -2.51217969636743       -1.73858663158677
H            1.91399203223885       -2.90816822597609       -1.21924088191440
H            5.08457302152903       -2.88839617184004        2.68501576212631
H            6.40357229620598       -1.38115448240260        4.10554827254151
H            5.97745691216303        1.05242261738034        4.07072323126802
H            4.21625171354887        1.96090510921245        2.59780470806564
H            2.90285012938617        0.45944572278227        1.17077586851099
H            2.25698225581449       -4.66587319209960        0.80442478857272
H            3.43449361191446       -6.57908232306565       -0.20176858777982
H            5.69908749896206       -6.28768705811828       -1.14025547112264
H            6.77877914766976       -4.06749702908395       -1.06536287530330
H            5.59808071785017       -2.15137898977825       -0.07042937878569
H            1.39458069322737       -0.99771629421970        2.57397813232028
H           -0.94745567169880       -0.55990499406499        2.02452534489129
H           -2.58141700563092       -3.31910717475279       -0.63977572336149
H           -5.03518251681972       -3.21326859920785       -0.80838739257219

          :  Hamiltonian                  GFN2-xTB          :
         :: gradient norm              0.000034178565 Eh/a0 ::
         :: HOMO-LUMO gap              1.104273619846 eV    ::
         :: SCC energy              -147.925745955910 Eh    ::
         :: -> dispersion             -0.147891115674 Eh    ::
         :: repulsion energy           2.768815844909 Eh    ::

    * Orbital Energies and Occupations

         #    Occupation            Energy/Eh            Energy/eV
      -------------------------------------------------------------
         1        2.0000           -0.7006301             -19.0651
       ...           ...                  ...                  ...
       123        2.0000           -0.4214221             -11.4675
       124        2.0000           -0.4195943             -11.4177
       125        2.0000           -0.4188464             -11.3974
       126        2.0000           -0.4183208             -11.3831
       127        2.0000           -0.4169550             -11.3459
       128        2.0000           -0.4157868             -11.3141
       129        2.0000           -0.4151574             -11.2970
       130        2.0000           -0.4150330             -11.2936
       131        2.0000           -0.4059694             -11.0470
       132        2.0000           -0.4008568             -10.9079
       133        2.0000           -0.3717316             -10.1153
       134        2.0000           -0.3638864              -9.9019
       135        2.0000           -0.3610844              -9.8256 (HOMO)
       136                         -0.3205031              -8.7213 (LUMO)
       137                         -0.3024861              -8.2311
       138                         -0.2819281              -7.6717
       139                         -0.2512650              -6.8373
       140                         -0.2493022              -6.7839
       141                         -0.2441784              -6.6444
       142                         -0.2430576              -6.6139
       143                         -0.2425234              -6.5994
       144                         -0.2407763              -6.5519
       145                         -0.2382357              -6.4827
       146                         -0.2362438              -6.4285
       ...                                ...                  ...
       264                          1.1742952              31.9542
      -------------------------------------------------------------
                  HL-Gap            0.0405813 Eh            1.1043 eV

     #   Z          covCN         q      C6AA      α(0)
     1   7 N        0.911    -0.199    25.323     7.278
     2   6 C        1.910     0.113    28.318     8.594
     3   6 C        2.979     0.096    25.872     8.344
     4   7 N        1.843    -0.219    26.611     7.645
     5   6 C        3.071     0.087    25.994     8.360
     6   6 C        3.071     0.087    25.994     8.360
     7   7 N        1.843    -0.219    26.611     7.645
     8   6 C        2.979     0.096    25.872     8.344
     9   6 C        1.910     0.113    28.318     8.594
    10   7 N        0.911    -0.199    25.322     7.278
    11   6 C        3.037    -0.011    28.251     8.718
    12   6 C        2.910    -0.015    28.387     8.736
    13   6 C        2.927    -0.036    28.899     8.816
    14   6 C        2.976     0.020    27.562     8.612
    15   6 C        2.978     0.002    27.976     8.676
    16   6 C        2.925    -0.029    28.734     8.791
    17   6 C        2.921    -0.050    29.253     8.869
    18   6 C        2.920     0.066    26.516     8.444
    19   7 N        2.752    -0.071    22.625     7.064
    20   6 C        2.927     0.065    26.547     8.450
    21   6 C        2.922    -0.045    29.120     8.849
    22   6 C        2.920    -0.029    28.717     8.788
    23   6 C        2.919    -0.036    28.885     8.813
    24   6 C        2.920    -0.028    28.705     8.786
    25   6 C        2.922    -0.043    29.073     8.842
    26   6 C        2.924     0.064    26.565     8.452
    27   6 C        2.922    -0.048    29.201     8.862
    28   6 C        2.920    -0.028    28.694     8.784
    29   6 C        2.919    -0.037    28.923     8.819
    30   6 C        2.920    -0.029    28.715     8.787
    31   6 C        2.923    -0.047    29.164     8.856
    32   6 C        2.921    -0.051    29.254     8.870
    33   6 C        2.922    -0.033    28.827     8.805
    34   6 C        2.977     0.007    27.858     8.658
    35   6 C        2.976     0.020    27.562     8.612
    36   6 C        2.978     0.002    27.975     8.676
    37   6 C        2.922    -0.033    28.827     8.805
    38   6 C        2.922    -0.051    29.254     8.870
    39   6 C        2.920     0.066    26.517     8.444
    40   7 N        2.752    -0.071    22.625     7.065
    41   6 C        2.924     0.064    26.565     8.452
    42   6 C        2.923    -0.047    29.165     8.856
    43   6 C        2.920    -0.029    28.715     8.788
    44   6 C        2.919    -0.037    28.923     8.819
    45   6 C        2.920    -0.028    28.693     8.784
    46   6 C        2.922    -0.048    29.202     8.862
    47   6 C        2.927     0.065    26.547     8.450
    48   6 C        2.922    -0.045    29.120     8.849
    49   6 C        2.920    -0.029    28.717     8.788
    50   6 C        2.919    -0.036    28.885     8.813
    51   6 C        2.920    -0.028    28.705     8.786
    52   6 C        2.922    -0.043    29.073     8.842
    53   6 C        2.921    -0.050    29.253     8.869
    54   6 C        2.925    -0.029    28.734     8.791
    55   6 C        2.927    -0.036    28.899     8.816
    56   6 C        2.910    -0.015    28.387     8.736
    57   6 C        3.037    -0.011    28.250     8.718
    58   6 C        3.141    -0.008    27.969     8.654
    59   1 H        0.926     0.055     2.263     2.352
    60   1 H        0.926     0.043     2.407     2.426
    61   1 H        0.926     0.032     2.554     2.499
    62   1 H        0.926     0.036     2.498     2.472
    63   1 H        0.926     0.034     2.529     2.487
    64   1 H        0.926     0.035     2.511     2.478
    65   1 H        0.926     0.035     2.523     2.484
    66   1 H        0.926     0.035     2.518     2.481
    67   1 H        0.926     0.033     2.538     2.491
    68   1 H        0.926     0.034     2.529     2.487
    69   1 H        0.926     0.030     2.584     2.514
    70   1 H        0.926     0.032     2.553     2.498
    71   1 H        0.926     0.034     2.529     2.487
    72   1 H        0.926     0.032     2.553     2.498
    73   1 H        0.926     0.035     2.512     2.479
    74   1 H        0.926     0.035     2.518     2.482
    75   1 H        0.926     0.035     2.518     2.482
    76   1 H        0.926     0.035     2.512     2.479
    77   1 H        0.926     0.032     2.553     2.498
    78   1 H        0.926     0.034     2.529     2.487
    79   1 H        0.926     0.032     2.553     2.498
    80   1 H        0.926     0.030     2.585     2.514
    81   1 H        0.926     0.034     2.529     2.487
    82   1 H        0.926     0.034     2.529     2.487
    83   1 H        0.926     0.035     2.511     2.478
    84   1 H        0.926     0.035     2.523     2.484
    85   1 H        0.926     0.035     2.518     2.481
    86   1 H        0.926     0.033     2.538     2.491
    87   1 H        0.926     0.036     2.498     2.472
    88   1 H        0.926     0.032     2.554     2.499
    89   1 H        0.926     0.043     2.407     2.426
    90   1 H        0.926     0.055     2.263     2.352

molecular dipole:
                 x           y           z       tot (Debye)
 q only:        5.257      -0.004      -0.002
   full:        6.021      -0.005      -0.002      15.305

 projected vibrational frequencies (cm⁻¹)
eigval :       -0.00    -0.00    -0.00     0.00     0.00     0.00
eigval :       16.26    17.14    21.72    22.05    31.18    32.41
eigval :       40.85    45.60    51.17    54.37    60.75    67.51
eigval :       67.66    72.04    73.95    77.75    86.92    91.19
eigval :       96.79   100.27   119.32   124.22   135.28   141.69
eigval :      143.23   160.55   164.90   172.80   184.83   196.92
eigval :      222.10   234.44   234.86   242.84   243.10   280.83
eigval :      282.00   295.94   308.35   314.28   324.49   329.34
eigval :      350.55   354.64   361.82   379.56   380.87   383.07
eigval :      383.47   390.05   390.82   394.42   396.28   397.03
eigval :      420.17   424.30   424.95   425.43   459.39   470.67
eigval :      480.67   482.48   493.99   496.20   505.19   515.01
eigval :      522.10   529.05   541.15   544.51   557.13   577.37
eigval :      584.87   586.70   587.14   588.85   594.40   596.17
eigval :      604.05   608.92   613.45   630.15   635.17   648.37
eigval :      660.00   662.02   665.37   667.46   669.81   679.05
eigval :      685.18   685.67   700.07   702.38   724.50   742.99
eigval :      746.58   751.61   757.66   760.79   761.10   762.48
eigval :      778.88   815.10   818.82   833.38   842.01   842.94
eigval :      868.63   869.93   877.20   878.02   878.41   879.57
eigval :      894.69   896.87   897.33   898.31   903.34   909.42
eigval :      909.95   912.96   915.24   915.40   920.08   921.38
eigval :      927.08   927.29   928.92   929.33   930.29   931.09
eigval :      931.55   931.71   936.40   939.42   944.05   975.74
eigval :      987.55   997.21  1005.86  1006.33  1018.17  1031.80
eigval :     1072.87  1082.39  1082.43  1086.04  1087.47  1112.78
eigval :     1121.12  1121.52  1123.91  1127.26  1129.15  1136.06
eigval :     1145.74  1146.56  1167.21  1180.19  1180.33  1180.96
eigval :     1181.16  1187.79  1188.36  1189.70  1196.20  1196.91
eigval :     1198.17  1201.82  1213.58  1217.89  1227.49  1236.13
eigval :     1267.88  1271.55  1272.17  1277.94  1278.94  1280.59
eigval :     1284.94  1290.17  1306.69  1310.15  1313.12  1315.06
eigval :     1316.93  1323.08  1325.10  1326.30  1326.54  1328.40
eigval :     1331.52  1331.72  1342.15  1360.32  1371.58  1383.77
eigval :     1414.77  1415.52  1422.13  1435.62  1436.47  1440.37
eigval :     1442.27  1442.65  1467.95  1470.64  1470.88  1474.71
eigval :     1475.40  1495.34  1496.16  1524.03  1527.56  1549.72
eigval :     1549.89  1564.13  1578.21  1578.37  1581.78  1582.35
eigval :     1583.36  1591.77  1593.44  1594.44  1595.09  1597.29
eigval :     1600.82  1602.24  2366.36  2368.11  3077.18  3077.29
eigval :     3077.86  3078.11  3078.76  3078.88  3079.25  3079.49
eigval :     3080.04  3080.38  3080.51  3080.89  3081.23  3081.91
eigval :     3087.64  3087.78  3089.27  3089.41  3091.61  3091.75
eigval :     3092.84  3093.60  3095.85  3096.36  3098.27  3098.50
eigval :     3100.06  3100.19  3101.53  3101.84  3113.92  3116.07

   temp. (K)  partition function   enthalpy   heat capacity  entropy
                                   cal/mol     cal/K/mol   cal/K/mol   J/K/mol
 298.15  VIB  0.537E+21            27269.973    170.594    170.268
         ROT  0.656E+08              888.752      2.981     38.750
         INT  0.352E+29            28158.726    173.575    209.019
         TR   0.195E+29             1481.254      4.968     45.667
         TOT                       29639.9796   178.5430   254.6853  1065.6033

       T/K    H(0)-H(T)+PV         H(T)/Eh          T*S/Eh         G(T)/Eh
   ------------------------------------------------------------------------
    298.15    0.472343E-01    0.722211E+00    0.121009E+00    0.601202E+00
   ------------------------------------------------------------------------

         :::::::::::::::::::::::::::::::::::::::::::::::::::::
         ::                  THERMODYNAMIC                  ::
         :::::::::::::::::::::::::::::::::::::::::::::::::::::
         :: total free energy        -144.555727968854 Eh   ::
         ::.................................................::
         :: total energy             -145.156930110999 Eh   ::
         :: zero point energy           0.674977037593 Eh   ::
         :: G(RRHO) w/o ZPVE           -0.073774895448 Eh   ::
         :: G(RRHO) contrib.            0.601202142145 Eh   ::
         :::::::::::::::::::::::::::::::::::::::::::::::::::::

           -------------------------------------------------
          | TOTAL ENERGY             -145.156930110999 Eh   |
          | TOTAL ENTHALPY           -144.434718759393 Eh   |
          | TOTAL FREE ENERGY        -144.555727968854 Eh   |
          | GRADIENT NORM               0.000034181008 Eh/α |
          | HOMO-LUMO GAP               1.104272726717 eV   |
           -------------------------------------------------

 * finished run on 2025/07/16 at 21:19:14.356
