   * xtb version 6.7.1 (edcfbbe) compiled by 'albert@albert-system' on 2024-07-22

   ID    Z sym.   atoms
    1    7 N      1, 4, 7, 10, 19, 40
    2    6 C      2, 3, 5, 6, 8, 9, 11-18, 20-39, 41-58
    3    1 H      59-90

          program call               : xtb data2507/gas/APDC-DTPA/APDC-DTPA_gas_T1_crest.xyz --gfn 2 --spinpol --tblite --uhf 2 --ohess vtight --parallel 40 --molden --ceasefiles --namespace data2507/gas/APDC-DTPA/APDC-DTPA_gas_T1_finalOpt
 * total energy  :  -145.1098096 Eh     change        0.7485227E-08 Eh
 * total energy  :  -145.1098207 Eh     change       -0.1113637E-04 Eh
 * total energy  :  -145.1098292 Eh     change       -0.8494226E-05 Eh
 * total energy  :  -145.1098129 Eh     change        0.1630289E-04 Eh
 * total energy  :  -145.1098296 Eh     change       -0.1670660E-04 Eh
 * total energy  :  -145.1098278 Eh     change        0.1873173E-05 Eh
 * total energy  :  -145.1098271 Eh     change        0.6559163E-06 Eh
 * total energy  :  -145.1098318 Eh     change       -0.4671424E-05 Eh
 * total energy  :  -145.1098328 Eh     change       -0.1012679E-05 Eh
 * total energy  :  -145.1098332 Eh     change       -0.3741231E-06 Eh
 * total energy  :  -145.1098360 Eh     change       -0.3257750E-07 Eh
 * total energy  :  -145.1098360 Eh     change        0.8049366E-07 Eh
 * total energy  :  -145.1098362 Eh     change       -0.2846592E-06 Eh
 * total energy  :  -145.1098368 Eh     change       -0.5465433E-06 Eh
 * total energy  :  -145.1098368 Eh     change       -0.2104261E-07 Eh
 * total energy  :  -145.1098367 Eh     change        0.9657055E-07 Eh
 * total energy  :  -145.1098369 Eh     change       -0.1574950E-06 Eh
 * total energy  :  -145.1098369 Eh     change       -0.3273954E-07 Eh
 * total energy  :  -145.1098370 Eh     change       -0.9336270E-07 Eh
   *** GEOMETRY OPTIMIZATION CONVERGED AFTER 23 ITERATIONS ***

 final structure:
================
90
 xtb: 6.7.1 (edcfbbe)
N          -10.94164173789839       -1.91905436329409       -0.48706066466338
C           -9.94104740603144       -1.37080243105350       -0.34672372901298
C           -8.72594711464016       -0.69617517842139       -0.17411158843648
N           -7.57809716795170       -1.32354996933903       -0.33845440138619
C           -6.44319192472018       -0.72179775461744       -0.18220673686364
C           -6.44204927562710        0.73483472293487        0.19642365204297
N           -7.57604854157120        1.33804577091843        0.35361851891556
C           -8.72485768530904        0.71216766983723        0.19020024550322
C           -9.93902933844789        1.38821877521961        0.36373362168836
N          -10.93916502772137        1.93727371718174        0.50420361813157
C           -5.08778752405570        1.14476278426991        0.29718925978160
C           -4.44849100258462        2.34356206750343        0.59838643616845
C           -3.06307491361829        2.37554050097371        0.52316653566947
C           -2.27692902000428        1.27059109219476        0.19478828109124
C           -0.85153538521325        1.48035927901301       -0.07320080670032
C           -0.30679270362551        1.07040838907420       -1.29209776782157
C            1.01029156649185        1.31914025068504       -1.60437135300152
C            1.84451669200476        1.97066742778414       -0.69202128521453
N            3.18840876089590        2.20422407544972       -0.98335948805401
C            3.83483292702361        3.32085726747530       -0.42976491267041
C            3.19743046739684        4.56020118850328       -0.39147635188409
C            3.83774412756053        5.65216270014483        0.16175326433279
C            5.11750851989419        5.52692012670343        0.67811649812067
C            5.75612806291765        4.29785078570872        0.63757097772797
C            5.12321589022532        3.19895694272293        0.08979310454814
C            3.92414057688261        1.33521008121528       -1.79569485281761
C            3.68009663082130       -0.03817206185875       -1.78985706348374
C            4.42827894552988       -0.88299176844847       -2.58576284081770
C            5.43318866264626       -0.37947435447570       -3.39524864600343
C            5.67784076975868        0.98434343954999       -3.40928082615506
C            4.93109734916933        1.83803769549644       -2.62178900508218
C            1.30135409052837        2.38729401265981        0.52751398427144
C           -0.02549676696365        2.15953237609234        0.82051604256852
C           -2.89804701427255        0.00428579017784        0.00475530952600
C           -2.27879314668269       -1.26276930605988       -0.18638430585974
C           -0.85322938612661       -1.47458624551197        0.07877827349856
C           -0.03077273776713       -2.15660890448754       -0.81610088214624
C            1.29610701733767       -2.38720567928077       -0.52569597005848
C            1.84297356810166       -1.97021154015026        0.69204249727444
N            3.18705969983656       -2.20778985864732        0.97989384455233
C            3.93023125542766       -1.33883567967784        1.78495237525583
C            4.94443382260460       -1.84147292432709        2.60239973637304
C            5.69900293055676       -0.98758636628885        3.38214580889432
C            5.45496870392961        0.37635036478588        3.36951057038072
C            4.44264996212974        0.87967139639031        2.56921260270571
C            3.68690341177088        0.03475330473357        1.78062033334292
C            3.82466125252083       -3.33074456150049        0.42839875175939
C            3.18101702677571       -4.56717222775386        0.40337746987758
C            3.81167822013147       -5.66586582624817       -0.14755905758774
C            5.08781335828753       -5.55004461348959       -0.67499191457588
C            5.73242491185125       -4.32373134240511       -0.64805439851539
C            5.10917700334230       -3.21817702415375       -0.10250611475172
C            1.01252312012288       -1.31555093875349        1.60549312830407
C           -0.30479612852957       -1.06440945965314        1.29595295663340
C           -3.06683879098162       -2.36675217182974       -0.51356859857280
C           -4.45229671776648       -2.33306814674131       -0.58670267765630
C           -5.08961051840183       -1.13345786156681       -0.28455318606362
C           -4.29713423182907        0.00514426159044        0.00581910784627
H           -5.01116367369285        3.22928649908755        0.84749254627734
H           -2.56049767949109        3.31958607239947        0.68267248287941
H           -0.94137923947078        0.57934950495669       -2.01475848585164
H            1.40092467485295        1.02434163305688       -2.56683711975919
H            2.20360563396965        4.65871876542266       -0.80291534481349
H            3.33711876355529        6.60857184518968        0.18292584419921
H            5.61453420240519        6.38262171831265        1.10862819061945
H            6.75136210151928        4.19101618134383        1.04260751488776
H            5.61566573181913        2.23777949843349        0.06801764861758
H            2.90165125360758       -0.43861097551520       -1.16059589966563
H            4.23148454097649       -1.94499798904462       -2.56588545030292
H            6.01780110907833       -1.04367813809010       -4.01297911836692
H            6.45134318204437        1.38866237672941       -4.04506800752333
H            5.11808915358111        2.90148289030377       -2.64598026610417
H            1.93074752799966        2.88790253599558        1.24865289443601
H           -0.42302530719203        2.48443078499226        1.77080954718871
H           -0.43117372968089       -2.48165522441800       -1.76512816658324
H            1.92275960895372       -2.89052106620832       -1.24734998073113
H            5.13103905681336       -2.90498548448867        2.62609548781818
H            6.47828670823057       -1.39190175167589        4.01084385480720
H            6.04569242038073        1.04074268673038        3.98118516473292
H            4.24600508517872        1.94172115129142        2.55067061077094
H            2.90314182494677        0.43544528944658        1.15815765968844
H            2.18995068068029       -4.65794362064932        0.82318315463773
H            3.30644418891446       -6.62001981736717       -0.15823646702849
H            5.57738441397379       -6.41096534419251       -1.10363711088147
H            6.72477563229399       -4.22437667884910       -1.06197437819173
H            5.60619510119356       -2.25916260030914       -0.09103994661175
H            1.40608991749340       -1.02053183816102        2.56670077756220
H           -0.93671875919962       -0.57132378708496        2.01956191641535
H           -2.56569415186327       -3.31141967901753       -0.67388054118443
H           -5.01645518930557       -3.21806311827534       -0.83503666516846

 projected vibrational frequencies (cm⁻¹)
eigval :       -0.00    -0.00    -0.00    -0.00     0.00     0.00
eigval :       16.55    17.25    21.56    22.21    31.43    32.26
eigval :       45.43    45.73    51.62    55.92    60.70    67.66
eigval :       68.00    72.96    74.99    79.38    86.86    91.88
eigval :       96.76   101.67   120.28   123.71   136.62   142.11
eigval :      143.86   164.09   165.56   173.92   184.99   198.38
eigval :      220.29   234.03   234.49   242.90   242.99   277.16
eigval :      287.64   300.95   308.70   318.93   323.00   332.22
eigval :      350.17   354.40   363.62   378.87   380.23   381.37
eigval :      382.06   382.95   383.86   394.44   395.13   401.63
eigval :      411.52   421.22   423.66   427.95   458.49   464.62
eigval :      469.30   474.35   479.62   495.59   496.35   497.14
eigval :      508.66   518.89   528.74   534.76   553.26   572.12
eigval :      584.07   584.13   585.85   586.75   589.63   593.85
eigval :      595.09   605.34   609.11   609.34   625.15   626.65
eigval :      642.66   644.08   660.79   660.83   666.04   666.28
eigval :      673.39   674.37   683.92   691.43   696.13   720.53
eigval :      728.28   746.31   756.74   758.91   760.73   761.97
eigval :      769.60   808.55   809.81   822.20   822.82   833.88
eigval :      867.12   868.71   875.43   875.53   877.38   879.30
eigval :      893.26   896.13   898.15   898.34   899.06   900.21
eigval :      903.46   909.14   909.81   913.58   919.23   921.56
eigval :      927.19   927.61   928.76   929.09   930.34   931.13
eigval :      931.40   931.60   935.59   937.14   939.93   959.62
eigval :      983.90   985.82  1004.82  1005.14  1010.38  1015.83
eigval :     1049.13  1067.34  1081.83  1081.91  1085.60  1087.12
eigval :     1119.95  1121.19  1121.69  1124.34  1127.74  1128.67
eigval :     1134.31  1144.01  1145.09  1179.78  1179.93  1180.62
eigval :     1180.85  1183.71  1184.36  1186.98  1190.39  1194.80
eigval :     1195.62  1196.43  1200.49  1212.00  1216.71  1226.04
eigval :     1231.65  1266.35  1270.20  1271.03  1277.03  1277.54
eigval :     1278.01  1283.60  1287.31  1304.79  1306.36  1314.47
eigval :     1314.71  1317.40  1319.63  1324.04  1324.46  1326.79
eigval :     1327.77  1330.07  1337.59  1359.42  1360.37  1403.38
eigval :     1410.04  1413.22  1414.11  1433.20  1434.94  1435.03
eigval :     1441.37  1441.60  1465.64  1466.40  1466.62  1468.98
eigval :     1469.43  1482.58  1484.28  1495.62  1512.86  1539.64
eigval :     1542.94  1544.60  1544.96  1574.22  1574.31  1577.96
eigval :     1578.13  1582.01  1583.87  1588.01  1588.71  1589.14
eigval :     1595.96  1596.61  2321.05  2323.26  3070.96  3071.21
eigval :     3078.04  3078.10  3079.30  3079.45  3080.40  3080.58
eigval :     3081.38  3081.57  3081.79  3081.83  3083.02  3083.35
eigval :     3088.96  3089.20  3090.33  3090.46  3090.97  3091.54
eigval :     3092.97  3093.04  3094.40  3095.04  3099.71  3100.03
eigval :     3100.85  3101.49  3101.50  3101.74  3115.53  3117.99

   temp. (K)  partition function   enthalpy   heat capacity  entropy
                                   cal/mol     cal/K/mol   cal/K/mol   J/K/mol
 298.15  VIB  0.475E+21            27421.281    172.101    170.876
         ROT  0.659E+08              888.752      2.981     38.759
         INT  0.313E+29            28310.034    175.082    209.635
         TR   0.195E+29             1481.254      4.968     45.667
         TOT                       29791.2876   180.0504   255.3017  1068.1825

       T/K    H(0)-H(T)+PV         H(T)/Eh          T*S/Eh         G(T)/Eh
   ------------------------------------------------------------------------
    298.15    0.474754E-01    0.719692E+00    0.121302E+00    0.598390E+00
   ------------------------------------------------------------------------

         :::::::::::::::::::::::::::::::::::::::::::::::::::::
         ::                  THERMODYNAMIC                  ::
         :::::::::::::::::::::::::::::::::::::::::::::::::::::
         :: total free energy        -144.511446738121 Eh   ::
         ::.................................................::
         :: total energy             -145.109836966551 Eh   ::
         :: zero point energy           0.672216887609 Eh   ::
         :: G(RRHO) w/o ZPVE           -0.073826659179 Eh   ::
         :: G(RRHO) contrib.            0.598390228430 Eh   ::
         :::::::::::::::::::::::::::::::::::::::::::::::::::::

           -------------------------------------------------
          | TOTAL ENERGY             -145.109836966551 Eh   |
          | TOTAL ENTHALPY           -144.390144640251 Eh   |
          | TOTAL FREE ENERGY        -144.511446738121 Eh   |
          | GRADIENT NORM               0.000084655646 Eh/α |
           -------------------------------------------------

 * finished run on 2025/07/16 at 21:30:19.888
