   * xtb version 6.7.1 (edcfbbe) compiled by 'albert@albert-system' on 2024-07-22

   ID    Z sym.   atoms
    1    7 N      1, 4, 7, 10, 19, 40
    2    6 C      2, 3, 5, 6, 8, 9, 11-18, 20-39, 41-58
    3    1 H      59-90

          program call               : xtb data2507/gas/APDC-DTPA/APDC-DTPA.xyz --gfn 2 --ohess vtight --parallel 40 --molden --ceasefiles --namespace data2507/gas/APDC-DTPA/APDC-DTPA_gas_S0_preOpt
          :  Hamiltonian                  GFN2-xTB          :
 * total energy  :  -145.1091043 Eh     change       -0.3992852E-08 Eh
 * total energy  :  -145.1304758 Eh     change       -0.2137143E-01 Eh
 * total energy  :  -145.1387896 Eh     change       -0.8313813E-02 Eh
 * total energy  :  -145.1415163 Eh     change       -0.2726733E-02 Eh
 * total energy  :  -145.1427005 Eh     change       -0.1184177E-02 Eh
 * total energy  :  -145.1429258 Eh     change       -0.2253444E-03 Eh
 * total energy  :  -145.1435743 Eh     change       -0.6485047E-03 Eh
 * total energy  :  -145.1430772 Eh     change        0.4971488E-03 Eh
 * total energy  :  -145.1441418 Eh     change       -0.1064564E-02 Eh
 * total energy  :  -145.1444360 Eh     change       -0.2942703E-03 Eh
 * total energy  :  -145.1490377 Eh     change       -0.3388643E-06 Eh
 * total energy  :  -145.1490380 Eh     change       -0.2496366E-06 Eh
 * total energy  :  -145.1490381 Eh     change       -0.1469474E-06 Eh
 * total energy  :  -145.1490381 Eh     change        0.1079499E-07 Eh
 * total energy  :  -145.1490381 Eh     change        0.3496925E-07 Eh
 * total energy  :  -145.1490380 Eh     change        0.2113509E-07 Eh
 * total energy  :  -145.1490381 Eh     change       -0.7519077E-07 Eh
 * total energy  :  -145.1490383 Eh     change       -0.1902771E-06 Eh
 * total energy  :  -145.1490384 Eh     change       -0.4614486E-07 Eh
   *** GEOMETRY OPTIMIZATION CONVERGED AFTER 98 ITERATIONS ***

 final structure:
================
90
 xtb: 6.7.1 (edcfbbe)
N          -11.81167233801499       -2.21827729240264       -0.67531717473132
C          -10.80670047718623       -1.68565715987084       -0.53666590273344
C           -9.58009215751208       -0.99925531585908       -0.35941612978144
N           -8.44492488836599       -1.69945125910925       -0.46286112472057
C           -7.33673425649629       -1.01329138050453       -0.29003535716935
C           -7.34450834915563        0.39778203410376       -0.01067592876862
N           -8.46042843459923        1.08543659762853        0.09286646416323
C           -9.58782374579046        0.38681854666108       -0.08158564118766
C          -10.82210125599098        1.07510785476093        0.01837205471548
N          -11.83273061823945        1.60967204180667        0.09382594513356
C           -5.97505793166631        0.83717945904050        0.11792971449114
C           -5.36792461798134        2.04251401704518        0.37611089558380
C           -3.97314236579542        2.07173653918632        0.39390499875106
C           -3.15889241557208        0.96387924449924        0.17824818296511
C           -1.71636264122509        1.25121315450097        0.17036029799045
C           -0.88521549446914        0.95024609186113       -0.90708480374338
C            0.41273786817239        1.41760716874607       -0.95499739158299
C            0.92237574086070        2.21124584027968        0.07578849487437
N            2.17141149674844        2.81320747677468       -0.00868313370647
C            2.37224091164541        4.08892573958760        0.54365942268841
C            1.38089865971280        5.06633241772586        0.47104464199102
C            1.59937432102007        6.31882649108664        1.01119444967281
C            2.80634633095729        6.61963184355807        1.62092908714770
C            3.79749542542741        5.65435444092165        1.68775545073485
C            3.58551379041858        4.39655630533186        1.15730178882862
C            3.24050085805884        2.23140434668939       -0.70865039865380
C            3.58094945675218        0.89508721364697       -0.51632303777324
C            4.68603069771785        0.36900753495927       -1.15992818684871
C            5.44537212394153        1.15174511674536       -2.01255413844460
C            5.09793723274481        2.47642779557544       -2.21993028861736
C            4.00618661692237        3.01665632443511       -1.57008589619586
C            0.11721419123279        2.44341259399806        1.19468261653974
C           -1.17863320605873        1.98609064865266        1.22953327041903
C           -3.76400002318183       -0.31096313819175       -0.03861774262591
C           -3.15624012615809       -1.59034889829968       -0.21485525196889
C           -1.71322676811255       -1.83281637394585       -0.11441755922283
C           -1.07239666492563       -2.56255863296102       -1.11502977035403
C            0.27091347992833       -2.84944991499045       -1.03507099252282
C            1.02355302307205       -2.41010275740902        0.05568158002083
N            2.38687214482703       -2.68209923055016        0.13403239203742
C            2.97153558433914       -2.92854587340401        1.38830884472254
C            2.30375674156761       -3.70644982417181        2.33292585316859
C            2.87770914183304       -3.94841363672837        3.56591861600445
C            4.12409356464697       -3.42751766856068        3.87313921395900
C            4.79272003626239       -2.65679287074282        2.93659150183448
C            4.22306844860415       -2.40373414003136        1.70337678260639
C            3.16090823518604       -2.78364619115685       -1.02799733138323
C            4.22596967921633       -3.68161601746306       -1.09145006369835
C            4.99899722369182       -3.76627635374160       -2.23374842630142
C            4.71976788898312       -2.97081416114802       -3.33256631477568
C            3.65877932713066       -2.08172328482249       -3.27789040522424
C            2.88721353723754       -1.98154627402142       -2.13729772185632
C            0.37898933947892       -1.70035757410256        1.07210235354091
C           -0.96835785993150       -1.42448738190581        0.98956544542798
C           -3.95260393548598       -2.69907168080770       -0.47637144462014
C           -5.34582588117762       -2.66444400392249       -0.54654729935892
C           -5.96254470586379       -1.45524792064660       -0.33237479248088
C           -5.16727345890950       -0.30912602571100       -0.08293358597284
H           -5.94238368296309        2.94047506088324        0.54154586246700
H           -3.48801146461282        3.02411519861384        0.55455394098717
H           -1.27757325730314        0.38729491106649       -1.74109389532270
H            1.02945810903678        1.21278572443160       -1.81808447731715
H            0.44401895042361        4.83896173762853       -0.01626664090168
H            0.82481436343452        7.06861340295015        0.94600215819916
H            2.97391638404386        7.60043165852228        2.03886061993694
H            4.74086021105116        5.87956313487740        2.16269120053092
H            4.35717790747879        3.64279633930712        1.21393656342169
H            2.98774677497740        0.28686531392886        0.15145363749412
H            4.96861442977701       -0.65906305685925       -0.99522422891748
H            6.30489793272248        0.72933385441872       -2.51002935863291
H            5.68041090703130        3.09240871890396       -2.88880831970263
H            3.73801842153930        4.05244691797169       -1.71928859736908
H            0.51297531036051        3.01136251303252        2.02351479303204
H           -1.78986218289109        2.18890374941022        2.09731779493857
H           -1.63599669876040       -2.89571410984293       -1.97450556009277
H            0.74580807006706       -3.42608287703414       -1.81454510745869
H            1.33614140880976       -4.12113263595936        2.09034138271119
H            2.35197101813614       -4.55567335266629        4.28776277310231
H            4.57151521067538       -3.62190844277942        4.83586094492689
H            5.76267704063033       -2.24275714762186        3.16901474283498
H            4.74523107765013       -1.79622525216332        0.97987270548593
H            4.44182978651582       -4.31343352543066       -0.24240558045001
H            5.82079412333757       -4.46623269422444       -2.26708943256981
H            5.32380389418625       -3.04305481113857       -4.22392775971932
H            3.43726558355111       -1.44998691958171       -4.12521978290203
H            2.07549360522468       -1.27106471895529       -2.09340626871502
H            0.94327488541590       -1.36738401060205        1.93066083781377
H           -1.45446943632238       -0.89761314677091        1.79667063882289
H           -3.45912229196907       -3.65250932809240       -0.60023197733811
H           -5.91331089172237       -3.56054984882497       -0.74312273231115

          :  Hamiltonian                  GFN2-xTB          :
         :: gradient norm              0.000116033046 Eh/a0 ::
         :: HOMO-LUMO gap              1.057324970709 eV    ::
         :: SCC energy              -147.916714961969 Eh    ::
         :: -> dispersion             -0.142736346383 Eh    ::
         :: repulsion energy           2.767676601602 Eh    ::

    * Orbital Energies and Occupations

         #    Occupation            Energy/Eh            Energy/eV
      -------------------------------------------------------------
         1        2.0000           -0.7017885             -19.0966
       ...           ...                  ...                  ...
       123        2.0000           -0.4204736             -11.4417
       124        2.0000           -0.4202879             -11.4366
       125        2.0000           -0.4189182             -11.3993
       126        2.0000           -0.4178066             -11.3691
       127        2.0000           -0.4166344             -11.3372
       128        2.0000           -0.4162987             -11.3281
       129        2.0000           -0.4151555             -11.2970
       130        2.0000           -0.4124877             -11.2244
       131        2.0000           -0.4058318             -11.0432
       132        2.0000           -0.4013195             -10.9205
       133        2.0000           -0.3727080             -10.1419
       134        2.0000           -0.3629718              -9.8770
       135        2.0000           -0.3603546              -9.8057 (HOMO)
       136                         -0.3214987              -8.7484 (LUMO)
       137                         -0.3036237              -8.2620
       138                         -0.2827685              -7.6945
       139                         -0.2512279              -6.8363
       140                         -0.2498360              -6.7984
       141                         -0.2434605              -6.6249
       142                         -0.2423741              -6.5953
       143                         -0.2414446              -6.5700
       144                         -0.2389312              -6.5016
       145                         -0.2384167              -6.4876
       146                         -0.2352330              -6.4010
       ...                                ...                  ...
       264                          1.1734106              31.9301
      -------------------------------------------------------------
                  HL-Gap            0.0388560 Eh            1.0573 eV

     #   Z          covCN         q      C6AA      α(0)
     1   7 N        0.911    -0.198    25.306     7.276
     2   6 C        1.910     0.113    28.317     8.594
     3   6 C        2.980     0.096    25.866     8.343
     4   7 N        1.843    -0.218    26.602     7.644
     5   6 C        3.069     0.087    25.998     8.361
     6   6 C        3.069     0.087    25.999     8.361
     7   7 N        1.843    -0.218    26.603     7.644
     8   6 C        2.980     0.096    25.866     8.343
     9   6 C        1.910     0.113    28.316     8.594
    10   7 N        0.911    -0.198    25.305     7.276
    11   6 C        3.044    -0.010    28.220     8.713
    12   6 C        2.909    -0.015    28.389     8.737
    13   6 C        2.936    -0.036    28.891     8.815
    14   6 C        2.974     0.020    27.566     8.612
    15   6 C        2.981     0.002    27.977     8.676
    16   6 C        2.921    -0.029    28.723     8.789
    17   6 C        2.920    -0.049    29.229     8.866
    18   6 C        2.921     0.067    26.499     8.442
    19   7 N        2.753    -0.075    22.689     7.075
    20   6 C        2.929     0.065    26.554     8.451
    21   6 C        2.922    -0.046    29.149     8.854
    22   6 C        2.920    -0.029    28.715     8.787
    23   6 C        2.919    -0.036    28.903     8.816
    24   6 C        2.920    -0.028    28.706     8.786
    25   6 C        2.923    -0.046    29.142     8.853
    26   6 C        2.926     0.065    26.554     8.451
    27   6 C        2.921    -0.044    29.090     8.845
    28   6 C        2.921    -0.027    28.680     8.782
    29   6 C        2.919    -0.036    28.893     8.815
    30   6 C        2.919    -0.028    28.701     8.785
    31   6 C        2.923    -0.045    29.122     8.850
    32   6 C        2.922    -0.049    29.225     8.865
    33   6 C        2.926    -0.034    28.843     8.807
    34   6 C        2.972     0.008    27.832     8.654
    35   6 C        2.976     0.020    27.565     8.612
    36   6 C        2.981     0.003    27.959     8.674
    37   6 C        2.926    -0.034    28.841     8.807
    38   6 C        2.921    -0.049    29.223     8.865
    39   6 C        2.925     0.067    26.504     8.443
    40   7 N        2.752    -0.072    22.646     7.068
    41   6 C        2.925     0.064    26.559     8.451
    42   6 C        2.923    -0.045    29.128     8.851
    43   6 C        2.920    -0.028    28.708     8.786
    44   6 C        2.919    -0.036    28.887     8.814
    45   6 C        2.920    -0.029    28.714     8.787
    46   6 C        2.922    -0.046    29.134     8.851
    47   6 C        2.923     0.065    26.547     8.449
    48   6 C        2.922    -0.049    29.210     8.863
    49   6 C        2.920    -0.029    28.723     8.789
    50   6 C        2.919    -0.037    28.930     8.820
    51   6 C        2.919    -0.028    28.699     8.785
    52   6 C        2.922    -0.046    29.132     8.851
    53   6 C        2.921    -0.049    29.216     8.864
    54   6 C        2.922    -0.029    28.714     8.787
    55   6 C        2.933    -0.036    28.894     8.816
    56   6 C        2.909    -0.015    28.386     8.736
    57   6 C        3.044    -0.010    28.219     8.713
    58   6 C        3.130    -0.008    28.014     8.665
    59   1 H        0.926     0.055     2.258     2.350
    60   1 H        0.926     0.043     2.406     2.426
    61   1 H        0.926     0.032     2.554     2.499
    62   1 H        0.926     0.031     2.567     2.506
    63   1 H        0.926     0.032     2.560     2.502
    64   1 H        0.926     0.035     2.523     2.484
    65   1 H        0.926     0.034     2.531     2.488
    66   1 H        0.926     0.034     2.523     2.484
    67   1 H        0.926     0.032     2.555     2.499
    68   1 H        0.926     0.032     2.556     2.500
    69   1 H        0.926     0.031     2.569     2.506
    70   1 H        0.926     0.033     2.542     2.493
    71   1 H        0.926     0.035     2.513     2.479
    72   1 H        0.926     0.034     2.536     2.490
    73   1 H        0.926     0.036     2.498     2.472
    74   1 H        0.926     0.034     2.528     2.486
    75   1 H        0.926     0.035     2.513     2.479
    76   1 H        0.926     0.038     2.479     2.462
    77   1 H        0.926     0.033     2.550     2.497
    78   1 H        0.926     0.035     2.519     2.482
    79   1 H        0.926     0.034     2.530     2.487
    80   1 H        0.926     0.035     2.521     2.483
    81   1 H        0.926     0.035     2.514     2.480
    82   1 H        0.926     0.032     2.565     2.504
    83   1 H        0.926     0.033     2.542     2.493
    84   1 H        0.926     0.032     2.557     2.501
    85   1 H        0.926     0.031     2.566     2.505
    86   1 H        0.926     0.031     2.570     2.507
    87   1 H        0.926     0.032     2.553     2.498
    88   1 H        0.926     0.034     2.529     2.487
    89   1 H        0.926     0.044     2.397     2.421
    90   1 H        0.926     0.055     2.256     2.349

molecular dipole:
                 x           y           z       tot (Debye)
 q only:        5.058       0.131       0.201
   full:        5.810       0.114       0.212      14.781

 projected vibrational frequencies (cm⁻¹)
eigval :       -0.00    -0.00     0.00     0.00     0.00     0.00
eigval :        9.37    13.77    16.58    18.34    22.13    33.63
eigval :       37.90    41.47    49.06    51.23    54.87    60.41
eigval :       61.57    66.59    70.75    77.77    80.50    96.72
eigval :       98.94   106.82   117.29   123.38   134.11   140.22
eigval :      148.16   161.51   162.73   176.59   184.42   194.62
eigval :      212.81   224.86   236.17   237.45   245.03   281.80
eigval :      284.90   296.97   305.03   313.88   324.71   332.48
eigval :      338.90   347.37   367.78   377.23   378.36   381.20
eigval :      381.49   386.66   392.58   394.28   396.29   401.73
eigval :      420.54   422.74   428.84   429.21   463.22   469.76
eigval :      480.03   482.23   492.13   495.99   502.78   515.16
eigval :      523.04   531.95   542.52   545.95   555.09   578.02
eigval :      585.33   586.40   587.54   589.23   593.66   595.98
eigval :      604.79   610.63   613.66   633.39   635.38   642.72
eigval :      659.84   660.80   663.86   666.61   667.67   679.34
eigval :      688.53   690.16   700.16   702.32   723.95   744.80
eigval :      747.64   751.62   757.14   758.61   760.23   762.46
eigval :      779.40   814.36   818.60   830.55   844.67   845.99
eigval :      867.19   872.27   873.19   875.10   877.07   878.46
eigval :      892.98   894.04   894.71   895.98   903.59   909.03
eigval :      909.80   913.39   916.19   917.19   920.85   923.81
eigval :      927.51   928.08   928.27   929.06   929.42   929.66
eigval :      930.49   931.86   933.99   937.57   945.39   976.51
eigval :      987.18   996.75  1004.71  1005.61  1019.30  1032.11
eigval :     1074.05  1082.34  1083.63  1085.13  1085.99  1111.55
eigval :     1117.34  1122.50  1123.28  1125.44  1128.65  1140.49
eigval :     1144.35  1145.65  1167.76  1179.41  1180.53  1180.68
eigval :     1181.68  1185.40  1187.15  1190.40  1193.58  1196.97
eigval :     1197.87  1199.69  1212.97  1217.58  1227.68  1240.35
eigval :     1266.09  1270.64  1271.23  1277.40  1278.05  1280.86
eigval :     1281.88  1289.00  1305.54  1309.45  1312.57  1316.42
eigval :     1318.20  1323.19  1323.73  1325.75  1326.00  1328.51
eigval :     1328.89  1332.87  1338.57  1361.76  1371.43  1383.27
eigval :     1412.23  1416.05  1420.63  1435.36  1436.02  1439.29
eigval :     1441.94  1442.50  1469.92  1470.94  1472.36  1474.09
eigval :     1475.32  1493.78  1496.43  1526.11  1528.85  1547.56
eigval :     1552.45  1557.48  1577.42  1578.52  1581.40  1582.50
eigval :     1584.96  1592.36  1593.92  1594.42  1595.70  1600.14
eigval :     1601.14  1603.91  2366.44  2368.21  3074.73  3077.47
eigval :     3077.81  3078.18  3078.47  3078.65  3078.77  3079.36
eigval :     3080.09  3080.68  3080.80  3081.37  3082.41  3083.60
eigval :     3087.36  3087.93  3088.89  3089.41  3090.00  3090.67
eigval :     3092.03  3092.54  3094.43  3095.17  3096.05  3096.77
eigval :     3099.96  3100.48  3101.57  3103.25  3103.67  3104.57

   temp. (K)  partition function   enthalpy   heat capacity  entropy
                                   cal/mol     cal/K/mol   cal/K/mol   J/K/mol
 298.15  VIB  0.435E+22            27377.327    169.971    172.060
         ROT  0.145E+09              888.752      2.981     40.325
         INT  0.631E+30            28266.079    172.952    212.385
         TR   0.195E+29             1481.254      4.968     45.667
         TOT                       29747.3331   177.9198   258.0520  1079.6896

       T/K    H(0)-H(T)+PV         H(T)/Eh          T*S/Eh         G(T)/Eh
   ------------------------------------------------------------------------
    298.15    0.474054E-01    0.722030E+00    0.122609E+00    0.599421E+00
   ------------------------------------------------------------------------

         :::::::::::::::::::::::::::::::::::::::::::::::::::::
         ::                  THERMODYNAMIC                  ::
         :::::::::::::::::::::::::::::::::::::::::::::::::::::
         :: total free energy        -144.549617475398 Eh   ::
         ::.................................................::
         :: total energy             -145.149038360371 Eh   ::
         :: zero point energy           0.674624329235 Eh   ::
         :: G(RRHO) w/o ZPVE           -0.075203444263 Eh   ::
         :: G(RRHO) contrib.            0.599420884972 Eh   ::
         :::::::::::::::::::::::::::::::::::::::::::::::::::::

           -------------------------------------------------
          | TOTAL ENERGY             -145.149038360371 Eh   |
          | TOTAL ENTHALPY           -144.427008638436 Eh   |
          | TOTAL FREE ENERGY        -144.549617475398 Eh   |
          | GRADIENT NORM               0.000116214910 Eh/α |
          | HOMO-LUMO GAP               1.057324931045 eV   |
           -------------------------------------------------

 * finished run on 2025/07/16 at 21:12:08.010
