   * xtb version 6.7.1 (edcfbbe) compiled by 'albert@albert-system' on 2024-07-22

   ID    Z sym.   atoms
    1    7 N      1, 7, 15, 23, 27, 34, 41
    2    6 C      2-6, 8-14, 16-22, 24-26, 28-33, 35-40, 42
    3    1 H      43-63

          program call               : xtb data2507/gas/BzITz/BzITz_gas_T1_crest.xyz --gfn 2 --spinpol --tblite --uhf 2 --ohess vtight --parallel 40 --molden --ceasefiles --namespace data2507/gas/BzITz/BzITz_gas_T1_finalOpt
 * total energy  :  -106.0806539 Eh     change       -0.5939232E-07 Eh
 * total energy  :  -106.0807134 Eh     change       -0.5947582E-04 Eh
 * total energy  :  -106.0807385 Eh     change       -0.2509161E-04 Eh
 * total energy  :  -106.0807395 Eh     change       -0.1034085E-05 Eh
 * total energy  :  -106.0807418 Eh     change       -0.2248041E-05 Eh
 * total energy  :  -106.0807424 Eh     change       -0.6071033E-06 Eh
 * total energy  :  -106.0807430 Eh     change       -0.6493314E-06 Eh
 * total energy  :  -106.0807437 Eh     change       -0.6300677E-06 Eh
 * total energy  :  -106.0807444 Eh     change       -0.7503301E-06 Eh
 * total energy  :  -106.0807453 Eh     change       -0.8546105E-06 Eh
 * total energy  :  -106.0807459 Eh     change       -0.6575279E-06 Eh
 * total energy  :  -106.0807463 Eh     change       -0.3957142E-06 Eh
 * total energy  :  -106.0807463 Eh     change        0.5764015E-07 Eh
 * total energy  :  -106.0807467 Eh     change       -0.4455892E-06 Eh
 * total energy  :  -106.0807471 Eh     change       -0.3720352E-06 Eh
 * total energy  :  -106.0807477 Eh     change       -0.6449234E-06 Eh
 * total energy  :  -106.0807480 Eh     change       -0.2959762E-06 Eh
 * total energy  :  -106.0807482 Eh     change       -0.1938980E-06 Eh
 * total energy  :  -106.0807483 Eh     change       -0.9131026E-07 Eh
   *** GEOMETRY OPTIMIZATION CONVERGED AFTER 19 ITERATIONS ***

 final structure:
================
63
 xtb: 6.7.1 (edcfbbe)
N            2.09389579609466        3.58351409015619       -0.76685381895111
C            1.62291338712670        2.58996712511076       -0.43811548772395
C            1.02120623619454        1.36494345401720       -0.07614439979166
C           -0.35546138403566        1.25400371693873       -0.14346336301944
C           -0.99194990630099        0.02588415994975        0.10673400971478
C           -2.40433147137438       -0.07840877467627        0.04952844897621
N           -3.15791137233996        1.01039474547998       -0.24915076500371
C           -4.45641754887570        0.89657342190750       -0.28918769730790
C           -5.27071159486265        2.06273976796807       -0.60103609856322
C           -6.66171617213221        1.95828497726325       -0.63508977798554
C           -7.43205846055899        3.06514347150409       -0.93074790812516
C           -6.82733196344401        4.28439697617580       -1.19526028842944
C           -5.44477727385354        4.39431874447743       -1.16300119690352
C           -4.66771288773554        3.29285352376653       -0.86802802106763
N           -5.08177995509277       -0.27555029721195       -0.05284609835291
C           -4.31130706666289       -1.34573947101592        0.23470046046610
C           -4.96707882443241       -2.62040721988852        0.48828989857637
C           -6.35761629359109       -2.71892573140893        0.42676835706083
C           -6.97733719853438       -3.92882091021621        0.66767162756177
C           -6.22135418605522       -5.05061897526269        0.97147942332632
C           -4.83843257417166       -4.95889080353572        1.03354267975338
C           -4.21133199906132       -3.75338048945001        0.79404840262077
N           -3.01100203880643       -1.26618640641970        0.29590600018420
C           -0.18539710954353       -1.10160614141320        0.39438760733141
C            1.17802602335199       -0.99068882744296        0.47053152080656
C            1.80558507197724        0.24117147262776        0.26851258993493
N            3.20069519088325        0.33774616751765        0.36614677094820
C            3.94569954741600        1.31387739622194        1.01513633414423
C            3.54904919223534        2.37360589796590        1.81436040146694
C            4.53882781557654        3.17799582009708        2.35008571318362
C            5.88755806650074        2.93274115510772        2.11339238964580
C            6.30100398334780        1.85461990066831        1.34853574303499
C            5.32046306537866        1.04431722616132        0.81006298033797
N            5.37256622286473       -0.10551758268275        0.05678852176648
C            6.20203513425855       -1.02373691738598       -0.54990861816007
C            7.57098624639659       -1.14617018197403       -0.65770883173501
C            8.05345896794123       -2.23635453419568       -1.36539717483908
C            7.19440445686260       -3.16908646248486       -1.94322104113631
C            5.82205868112889       -3.05526797943718       -1.84058001307286
C            5.31038444991786       -1.97074730074425       -1.13688741994638
N            4.00131156794182       -1.63527123848386       -0.89276726155130
C            4.08223489493498       -0.53322109044971       -0.19324741587870
H           -0.95492690231006        2.11121940503422       -0.40897592417938
H           -7.11787801425447        1.00266793092064       -0.42706188641743
H           -8.50862538743872        2.98038934038702       -0.95616174500570
H           -7.43238283904234        5.14855730903547       -1.42665821988045
H           -4.97461626736981        5.34447532014467       -1.36965760713077
H           -3.59135436845671        3.36319933439008       -0.84018146316225
H           -6.93247849483435       -1.83721527357375        0.18875027266646
H           -8.05401174792957       -4.00118448649268        0.61919077097677
H           -6.70878807544523       -5.99584759076378        1.15956263103414
H           -4.25070745903291       -5.83383166222946        1.26975366013691
H           -3.13675467796022       -3.66617311952326        0.83825695190016
H           -0.67215327240858       -2.04964644570741        0.55680588970614
H            1.79289292595771       -1.85057126248365        0.68647988425545
H            2.50827337884133        2.56410154336899        2.01966513872606
H            4.25574492606798        4.01473669078381        2.96914320287496
H            6.62811350131086        3.58805055241425        2.54486609644610
H            7.34643907101716        1.65001841896422        1.18313018519592
H            8.24023306466647       -0.42590349499620       -0.21325593715329
H            9.12012380130871       -2.36427883635970       -1.47095100351330
H            7.61724090121424       -4.00145553775306       -2.48561684823597
H            5.15542961313328       -3.77438660606318       -2.28751088693721

 projected vibrational frequencies (cm⁻¹)
eigval :       -0.00    -0.00    -0.00     0.00     0.00     0.00
eigval :       10.62    15.41    21.42    25.28    28.14    39.07
eigval :       43.72    51.62    55.01    78.38    85.25    95.63
eigval :       99.50   115.83   122.78   133.01   152.06   160.76
eigval :      171.78   186.89   194.05   219.51   223.25   245.43
eigval :      250.62   294.64   299.42   314.91   319.13   358.06
eigval :      363.39   365.88   366.58   372.80   378.53   391.59
eigval :      406.66   408.63   408.95   419.74   431.64   449.95
eigval :      488.93   526.66   530.14   535.44   538.38   539.84
eigval :      544.19   557.33   581.78   587.99   588.18   596.08
eigval :      600.60   601.73   616.89   636.52   650.61   652.73
eigval :      655.01   661.53   671.96   674.18   678.35   699.50
eigval :      727.90   729.84   761.59   763.33   767.94   770.85
eigval :      772.70   795.99   799.32   809.63   852.82   859.15
eigval :      865.23   869.02   871.24   872.95   893.83   896.57
eigval :      897.44   899.06   901.23   902.63   910.05   918.45
eigval :      918.68   926.09   927.03   929.91   930.24   952.65
eigval :      959.91   983.11   989.73  1052.67  1060.02  1066.62
eigval :     1073.75  1075.15  1078.40  1092.81  1108.94  1109.57
eigval :     1124.20  1131.30  1145.91  1155.90  1162.85  1173.96
eigval :     1179.71  1180.15  1181.87  1183.69  1188.70  1191.59
eigval :     1212.53  1218.08  1240.91  1250.53  1261.81  1265.82
eigval :     1267.34  1276.30  1281.39  1287.31  1330.46  1331.51
eigval :     1332.65  1338.08  1348.51  1358.36  1380.99  1391.81
eigval :     1400.97  1406.12  1417.58  1429.04  1431.31  1438.38
eigval :     1443.18  1462.51  1466.45  1474.40  1484.42  1487.04
eigval :     1490.30  1533.92  1544.15  1573.40  1574.03  1581.41
eigval :     1586.30  1590.90  1594.92  1603.11  1634.98  2361.23
eigval :     3075.97  3076.35  3080.68  3081.37  3083.68  3088.98
eigval :     3090.59  3091.06  3094.88  3098.69  3099.11  3099.21
eigval :     3099.83  3100.12  3101.46  3102.18  3102.45  3109.95
eigval :     3111.76  3114.08  3114.39

   temp. (K)  partition function   enthalpy   heat capacity  entropy
                                   cal/mol     cal/K/mol   cal/K/mol   J/K/mol
 298.15  VIB  0.138E+16            19165.336    119.374    119.429
         ROT  0.719E+08              888.752      2.981     38.931
         INT  0.992E+23            20054.089    122.355    158.360
         TR   0.121E+29             1481.254      4.968     44.722
         TOT                       21535.3426   127.3228   203.0821   849.6954

       T/K    H(0)-H(T)+PV         H(T)/Eh          T*S/Eh         G(T)/Eh
   ------------------------------------------------------------------------
    298.15    0.343188E-01    0.492994E+00    0.964909E-01    0.396503E+00
   ------------------------------------------------------------------------

         :::::::::::::::::::::::::::::::::::::::::::::::::::::
         ::                  THERMODYNAMIC                  ::
         :::::::::::::::::::::::::::::::::::::::::::::::::::::
         :: total free energy        -105.684245100296 Eh   ::
         ::.................................................::
         :: total energy             -106.080748276026 Eh   ::
         :: zero point energy           0.458675273457 Eh   ::
         :: G(RRHO) w/o ZPVE           -0.062172097727 Eh   ::
         :: G(RRHO) contrib.            0.396503175730 Eh   ::
         :::::::::::::::::::::::::::::::::::::::::::::::::::::

           -------------------------------------------------
          | TOTAL ENERGY             -106.080748276026 Eh   |
          | TOTAL ENTHALPY           -105.587754249643 Eh   |
          | TOTAL FREE ENERGY        -105.684245100296 Eh   |
          | GRADIENT NORM               0.000092122830 Eh/α |
           -------------------------------------------------

 * finished run on 2025/09/04 at 17:50:21.191
