   * xtb version 6.7.1 (edcfbbe) compiled by 'albert@albert-system' on 2024-07-22

   ID    Z sym.   atoms
    1    7 N      1, 7, 15, 23, 27, 34, 41
    2    6 C      2-6, 8-14, 16-22, 24-26, 28-33, 35-40, 42
    3    1 H      43-63

          program call               : xtb data2507/gas/BzITz/BzITz.xyz --gfn 2 --ohess vtight --parallel 40 --molden --ceasefiles --namespace data2507/gas/BzITz/BzITz_gas_S0_preOpt
          :  Hamiltonian                  GFN2-xTB          :
 * total energy  :  -106.1361489 Eh     change       -0.2182915E-08 Eh
 * total energy  :  -106.1465000 Eh     change       -0.1035105E-01 Eh
 * total energy  :  -106.1499896 Eh     change       -0.3489571E-02 Eh
 * total energy  :  -106.1514192 Eh     change       -0.1429679E-02 Eh
 * total energy  :  -106.1523925 Eh     change       -0.9733067E-03 Eh
 * total energy  :  -106.1528254 Eh     change       -0.4328586E-03 Eh
 * total energy  :  -106.1530714 Eh     change       -0.2459470E-03 Eh
 * total energy  :  -106.1531574 Eh     change       -0.8604988E-04 Eh
 * total energy  :  -106.1532160 Eh     change       -0.5859230E-04 Eh
 * total energy  :  -106.1532447 Eh     change       -0.2873361E-04 Eh
 * total energy  :  -106.1534523 Eh     change       -0.1325669E-06 Eh
 * total energy  :  -106.1534525 Eh     change       -0.1380045E-06 Eh
 * total energy  :  -106.1534526 Eh     change       -0.1504611E-06 Eh
 * total energy  :  -106.1534528 Eh     change       -0.1851691E-06 Eh
 * total energy  :  -106.1534530 Eh     change       -0.2438882E-06 Eh
 * total energy  :  -106.1534534 Eh     change       -0.3357182E-06 Eh
 * total energy  :  -106.1534538 Eh     change       -0.4370560E-06 Eh
 * total energy  :  -106.1534543 Eh     change       -0.5027753E-06 Eh
 * total energy  :  -106.1534543 Eh     change       -0.8976002E-09 Eh
   *** GEOMETRY OPTIMIZATION CONVERGED AFTER 68 ITERATIONS ***

 final structure:
================
63
 xtb: 6.7.1 (edcfbbe)
N            2.62031720468001        2.87694381828382        1.29390947296886
C            2.06682682878742        1.95720068759572        0.89279390533487
C            1.31873178045348        0.81779303629914        0.51063330347164
C           -0.06451598693951        0.92197744182550        0.41852703996816
C           -0.83686264472674       -0.20202453291332        0.15184356568769
C           -2.29360337749196       -0.08676443058549        0.05593073541668
N           -2.83589861001745        1.10654390161424        0.26806852854982
C           -4.16279261294939        1.16711509674130        0.17510323339148
C           -4.80976870552929        2.45677647197425        0.40838167473297
C           -6.19579872622376        2.57174360191340        0.31508736302820
C           -6.80461801925314        3.79131153415471        0.53720627080340
C           -6.03919753867681        4.90332985683554        0.85324327353796
C           -4.66031237156210        4.79439376686582        0.94697931554411
C           -4.04474090453456        3.57787031850905        0.72609801412947
N           -4.93211030870746        0.12239251418162       -0.11707963852804
C           -4.30484962855755       -1.03206495546637       -0.31777625415457
C           -5.11209577708914       -2.20602323917281       -0.64742436600578
C           -6.50029207113326       -2.10391208721265       -0.71676742671184
C           -7.26039036371373       -3.21373935724955       -1.03012920638625
C           -6.64488621304387       -4.43122758693671       -1.27680550883225
C           -5.26432400971581       -4.53810051014948       -1.20942949284036
C           -4.49835365630510       -3.43231421161157       -0.89620292253757
N           -2.98423708104109       -1.18359378002608       -0.23627983891556
C           -0.21562846081076       -1.43958719037055       -0.01950599902255
C            1.15636186693823       -1.55092729178708        0.06017636131583
C            1.93941408402662       -0.42914064136121        0.31962031815510
N            3.32850045391533       -0.52604581577135        0.36545805949116
C            4.10947651101057       -1.49308389711334        0.99531121048114
C            3.75210742038532       -2.56286831279656        1.79426414860906
C            4.77083269791939       -3.34611498082390        2.31538314616348
C            6.10634460284948       -3.06743183616376        2.05813074047940
C            6.47862064698226       -1.98226675460004        1.28038839142641
C            5.47114170767622       -1.19625546143823        0.75570863124461
N            5.48820090786379       -0.05983005786439       -0.01945413847277
C            6.28402963707407        0.82571743648595       -0.71223433680473
C            7.65020606590466        0.95429144240927       -0.87164749875002
C            8.09584450278933        1.99578787227943       -1.66479503961463
C            7.20613149861493        2.87748510529751       -2.27554234007957
C            5.83899480110838        2.75542850329556       -2.12233198159731
C            5.36549118312369        1.71776672945485       -1.33318243576697
N            4.06165621166327        1.37597336865068       -1.02949387815609
C            4.18560717207879        0.34425682088740       -0.25331282308844
H           -0.54825225694732        1.87517459802212        0.56368567357454
H           -6.77480039262990        1.69599085874932        0.06778164232154
H           -7.87876086783912        3.87898062774893        0.46452316855401
H           -6.51803828073054        5.85598105069856        1.02658474687872
H           -4.06590678952948        5.66187690983372        1.19309248256275
H           -2.97328920851647        3.47577467019770        0.79512947336363
H           -6.96140679112661       -1.14861431581827       -0.52188833521040
H           -8.33616050448262       -3.13299318546914       -1.08342445702598
H           -7.24160852242417       -5.29760408543227       -1.52215169601123
H           -4.78707996307699       -5.48768958603447       -1.40272280150741
H           -3.42311833835749       -3.49670175498755       -0.84081683412179
H           -0.82843240821678       -2.30195148045158       -0.22811664328943
H            1.63737342015444       -2.50315769310144       -0.10454355728331
H            2.71887300760838       -2.77662771516622        2.01773330370139
H            4.51650061242733       -4.18957302174296        2.93854530970371
H            6.87084726366377       -3.70153850795297        2.47954924156132
H            7.51555717054129       -1.75423832054918        1.09432554186957
H            8.34057709787654        0.27345609128131       -0.39756987950114
H            9.15705460884346        2.12923700526318       -1.81257930349398
H            7.60072133691711        3.67751916350741       -2.88431187448696
H            5.14978708802189        3.43792029727191       -2.59167777982754

          :  Hamiltonian                  GFN2-xTB          :
         :: gradient norm              0.000081346791 Eh/a0 ::
         :: HOMO-LUMO gap              1.963499413741 eV    ::
         :: SCC energy              -108.073930462361 Eh    ::
         :: -> dispersion             -0.085510463276 Eh    ::
         :: repulsion energy           1.920476148342 Eh    ::

    * Orbital Energies and Occupations

         #    Occupation            Energy/Eh            Energy/eV
      -------------------------------------------------------------
         1        2.0000           -0.7143822             -19.4393
       ...           ...                  ...                  ...
        86        2.0000           -0.4258920             -11.5891
        87        2.0000           -0.4203647             -11.4387
        88        2.0000           -0.4186700             -11.3926
        89        2.0000           -0.4154644             -11.3054
        90        2.0000           -0.4131680             -11.2429
        91        2.0000           -0.4116058             -11.2004
        92        2.0000           -0.4095813             -11.1453
        93        2.0000           -0.4050331             -11.0215
        94        2.0000           -0.3844010             -10.4601
        95        2.0000           -0.3818728             -10.3913
        96        2.0000           -0.3769859             -10.2583
        97        2.0000           -0.3756811             -10.2228
        98        2.0000           -0.3689356             -10.0392 (HOMO)
        99                         -0.2967783              -8.0757 (LUMO)
       100                         -0.2905944              -7.9075
       101                         -0.2748093              -7.4779
       102                         -0.2543261              -6.9206
       103                         -0.2481276              -6.7519
       104                         -0.2356373              -6.4120
       105                         -0.2325075              -6.3268
       106                         -0.2301290              -6.2621
       107                         -0.2250724              -6.1245
       108                         -0.2112875              -5.7494
       109                         -0.2041288              -5.5546
       ...                                ...                  ...
       189                          1.1698585              31.8335
      -------------------------------------------------------------
                  HL-Gap            0.0721573 Eh            1.9635 eV

     #   Z          covCN         q      C6AA      α(0)
     1   7 N        0.911    -0.220    25.802     7.347
     2   6 C        1.911     0.122    28.096     8.560
     3   6 C        2.973     0.014    27.706     8.634
     4   6 C        2.934    -0.014    28.365     8.734
     5   6 C        2.982     0.001    28.008     8.681
     6   6 C        2.985     0.202    23.708     7.987
     7   7 N        1.844    -0.294    28.462     7.907
     8   6 C        2.982     0.203    23.685     7.983
     9   6 C        2.984    -0.000    28.028     8.684
    10   6 C        2.924    -0.023    28.578     8.767
    11   6 C        2.918    -0.027    28.676     8.781
    12   6 C        2.920    -0.022    28.560     8.764
    13   6 C        2.918    -0.026    28.662     8.779
    14   6 C        2.924    -0.022    28.562     8.764
    15   7 N        1.844    -0.291    28.390     7.897
    16   6 C        2.982     0.203    23.697     7.985
    17   6 C        2.984    -0.000    28.022     8.683
    18   6 C        2.924    -0.023    28.575     8.766
    19   6 C        2.918    -0.027    28.671     8.781
    20   6 C        2.920    -0.023    28.571     8.765
    21   6 C        2.918    -0.027    28.680     8.782
    22   6 C        2.924    -0.023    28.584     8.768
    23   7 N        1.844    -0.296    28.511     7.913
    24   6 C        2.923    -0.019    28.488     8.753
    25   6 C        2.919    -0.041    29.030     8.836
    26   6 C        2.918     0.080    26.218     8.397
    27   7 N        2.795    -0.059    22.371     7.025
    28   6 C        3.079     0.041    26.989     8.517
    29   6 C        2.911    -0.047    29.168     8.856
    30   6 C        2.924    -0.036    28.885     8.814
    31   6 C        2.924    -0.036    28.886     8.814
    32   6 C        2.910    -0.043    29.077     8.842
    33   6 C        3.033     0.046    26.938     8.513
    34   7 N        2.894    -0.055    22.293     7.013
    35   6 C        3.071     0.031    27.244     8.558
    36   6 C        2.907    -0.047    29.160     8.854
    37   6 C        2.926    -0.038    28.950     8.824
    38   6 C        2.923    -0.037    28.915     8.818
    39   6 C        2.910    -0.040    29.001     8.830
    40   6 C        3.246     0.072    25.450     8.172
    41   7 N        1.862    -0.324    29.250     8.016
    42   6 C        3.367     0.201    21.078     7.188
    43   1 H        0.926     0.074     2.042     2.235
    44   1 H        0.926     0.055     2.254     2.348
    45   1 H        0.926     0.038     2.475     2.460
    46   1 H        0.926     0.039     2.467     2.456
    47   1 H        0.926     0.040     2.448     2.446
    48   1 H        0.926     0.056     2.245     2.343
    49   1 H        0.926     0.056     2.243     2.342
    50   1 H        0.926     0.038     2.470     2.458
    51   1 H        0.926     0.038     2.475     2.460
    52   1 H        0.926     0.037     2.482     2.464
    53   1 H        0.926     0.054     2.275     2.359
    54   1 H        0.926     0.069     2.095     2.264
    55   1 H        0.926     0.052     2.296     2.369
    56   1 H        0.926     0.040     2.443     2.444
    57   1 H        0.926     0.042     2.423     2.434
    58   1 H        0.926     0.043     2.413     2.429
    59   1 H        0.926     0.045     2.385     2.415
    60   1 H        0.926     0.029     2.601     2.522
    61   1 H        0.926     0.034     2.536     2.490
    62   1 H        0.926     0.035     2.510     2.478
    63   1 H        0.926     0.049     2.334     2.389

molecular dipole:
                 x           y           z       tot (Debye)
 q only:       -0.781      -1.469       0.199
   full:       -0.709      -2.057       0.192       5.552

 projected vibrational frequencies (cm⁻¹)
eigval :       -0.00    -0.00    -0.00     0.00     0.00     0.00
eigval :        5.65    14.72    16.60    22.02    23.36    41.27
eigval :       43.69    49.84    57.37    77.12    83.14    90.52
eigval :      106.52   116.18   120.12   137.18   148.48   160.37
eigval :      174.93   182.00   191.33   208.62   225.09   260.19
eigval :      262.06   301.72   308.45   314.98   322.21   356.03
eigval :      363.77   364.56   368.17   390.21   401.58   405.57
eigval :      408.09   415.70   425.58   432.01   442.16   471.38
eigval :      501.08   527.55   535.41   544.14   545.93   556.81
eigval :      582.26   587.27   588.05   597.69   603.23   613.27
eigval :      626.88   634.20   644.60   651.94   655.66   671.50
eigval :      673.67   675.27   676.76   697.21   700.03   729.05
eigval :      752.24   768.11   770.91   773.90   775.56   795.42
eigval :      806.37   843.67   847.53   863.26   867.75   874.62
eigval :      875.76   876.78   888.78   895.13   897.70   902.81
eigval :      909.54   911.26   918.53   920.50   926.76   929.36
eigval :      930.46   931.38   933.84   934.20   958.27   984.67
eigval :      990.57  1048.26  1056.15  1068.18  1074.92  1075.49
eigval :     1084.30  1088.47  1094.53  1108.29  1112.21  1126.08
eigval :     1137.04  1153.03  1166.09  1167.49  1176.63  1180.17
eigval :     1180.96  1184.97  1187.85  1202.16  1202.81  1209.03
eigval :     1221.94  1230.10  1247.17  1258.75  1268.47  1270.11
eigval :     1271.53  1285.35  1323.96  1328.19  1329.90  1338.79
eigval :     1351.14  1358.69  1372.66  1373.06  1386.89  1392.31
eigval :     1410.45  1420.55  1432.28  1433.87  1456.41  1467.71
eigval :     1475.26  1476.02  1481.90  1500.06  1508.69  1518.93
eigval :     1553.51  1576.54  1581.32  1583.52  1585.77  1592.59
eigval :     1594.69  1595.51  1604.77  1609.45  1659.88  2373.26
eigval :     3075.52  3076.13  3079.24  3081.71  3082.89  3084.48
eigval :     3090.92  3091.13  3091.65  3094.72  3095.45  3098.50
eigval :     3106.05  3107.68  3107.82  3109.13  3110.04  3112.49
eigval :     3112.72  3114.50  3114.88

   temp. (K)  partition function   enthalpy   heat capacity  entropy
                                   cal/mol     cal/K/mol   cal/K/mol   J/K/mol
 298.15  VIB  0.334E+16            18831.934    116.671    118.734
         ROT  0.705E+08              888.752      2.981     38.893
         INT  0.235E+24            19720.686    119.652    157.627
         TR   0.121E+29             1481.254      4.968     44.722
         TOT                       21201.9402   124.6201   202.3489   846.6279

       T/K    H(0)-H(T)+PV         H(T)/Eh          T*S/Eh         G(T)/Eh
   ------------------------------------------------------------------------
    298.15    0.337874E-01    0.497646E+00    0.961425E-01    0.401504E+00
   ------------------------------------------------------------------------

         :::::::::::::::::::::::::::::::::::::::::::::::::::::
         ::                  THERMODYNAMIC                  ::
         :::::::::::::::::::::::::::::::::::::::::::::::::::::
         :: total free energy        -105.751950801840 Eh   ::
         ::.................................................::
         :: total energy             -106.153454314018 Eh   ::
         :: zero point energy           0.463858568258 Eh   ::
         :: G(RRHO) w/o ZPVE           -0.062355056080 Eh   ::
         :: G(RRHO) contrib.            0.401503512178 Eh   ::
         :::::::::::::::::::::::::::::::::::::::::::::::::::::

           -------------------------------------------------
          | TOTAL ENERGY             -106.153454314018 Eh   |
          | TOTAL ENTHALPY           -105.655808303460 Eh   |
          | TOTAL FREE ENERGY        -105.751950801840 Eh   |
          | GRADIENT NORM               0.000081453246 Eh/α |
          | HOMO-LUMO GAP               1.963499577413 eV   |
           -------------------------------------------------

 * finished run on 2025/09/04 at 17:43:01.329
