   * xtb version 6.7.1 (edcfbbe) compiled by 'albert@albert-system' on 2024-07-22

   ID    Z sym.   atoms
    1    7 N      1, 7, 15, 23, 27, 34, 41
    2    6 C      2-6, 8-14, 16-22, 24-26, 28-33, 35-40, 42
    3    1 H      43-63

          program call               : xtb data2507/gas/BzITz/BzITz_gas_S0_finalOpt.xtbopt.xyz --gfn 2 --spinpol --tblite --uhf 2 --ohess vtight --parallel 40 --molden --ceasefiles --namespace data2507/gas/BzITz/BzITz_gas_T1_preOpt
 * total energy  :  -106.0749834 Eh     change        0.6449213E-08 Eh
 * total energy  :  -106.0784138 Eh     change       -0.3430447E-02 Eh
 * total energy  :  -106.0803303 Eh     change       -0.1916423E-02 Eh
 * total energy  :  -106.0804923 Eh     change       -0.1620334E-03 Eh
 * total energy  :  -106.0805752 Eh     change       -0.8285751E-04 Eh
 * total energy  :  -106.0806182 Eh     change       -0.4304956E-04 Eh
 * total energy  :  -106.0806329 Eh     change       -0.1465780E-04 Eh
 * total energy  :  -106.0806468 Eh     change       -0.1391446E-04 Eh
 * total energy  :  -106.0806573 Eh     change       -0.1052502E-04 Eh
 * total energy  :  -106.0806685 Eh     change       -0.1121373E-04 Eh
 * total energy  :  -106.0807343 Eh     change       -0.2044887E-05 Eh
 * total energy  :  -106.0807362 Eh     change       -0.1886712E-05 Eh
 * total energy  :  -106.0807378 Eh     change       -0.1628201E-05 Eh
 * total energy  :  -106.0807385 Eh     change       -0.6633854E-06 Eh
 * total energy  :  -106.0807389 Eh     change       -0.4631960E-06 Eh
 * total energy  :  -106.0807392 Eh     change       -0.2780290E-06 Eh
 * total energy  :  -106.0807395 Eh     change       -0.3018950E-06 Eh
 * total energy  :  -106.0807395 Eh     change        0.3209026E-07 Eh
 * total energy  :  -106.0807395 Eh     change       -0.3237437E-07 Eh
   *** GEOMETRY OPTIMIZATION CONVERGED AFTER 45 ITERATIONS ***

 final structure:
================
63
 xtb: 6.7.1 (edcfbbe)
N            2.07890285351512        3.56903577385343       -0.89512121202854
C            1.61473811291225        2.58280969401396       -0.53606652379462
C            1.01985463793791        1.36526750572397       -0.13920339038002
C           -0.35690998334934        1.24897356419969       -0.19588174335258
C           -0.98833933815059        0.02441053342023        0.08276940143288
C           -2.40086309861816       -0.08432963239124        0.03908453607660
N           -3.16059980085083        1.00147582594999       -0.25479506417714
C           -4.45926587352388        0.88469584680802       -0.27734507292676
C           -5.28031730752678        2.04985625760372       -0.57494818747740
C           -6.67159005651545        1.94379894592022       -0.58485564286184
C           -7.44830134047114        3.05051269101879       -0.86391403922688
C           -6.84977311662572        4.27117367039394       -1.13592200690786
C           -5.46698360756877        4.38260850643257       -1.12802091166828
C           -4.68357765397286        3.28135859921158       -0.84953361003589
N           -5.07882960529154       -0.28901055436140       -0.03362323429785
C           -4.30220250046085       -1.35678230502585        0.24628056532468
C           -4.95115605323305       -2.63405138768895        0.50422556191510
C           -6.34171799168446       -2.73801929415309        0.45308331419249
C           -6.95472892285596       -3.95091547446310        0.69607606081229
C           -6.19198141810463       -5.07029043307890        0.99181985857984
C           -4.80901613727040       -4.97309338134276        1.04374095781073
C           -4.18859133352511       -3.76459695817700        0.80197321242482
N           -3.00164919479371       -1.27287615712191        0.29572454228382
C           -0.17642364380071       -1.09528585297980        0.38550427925422
C            1.18679838471622       -0.97816261272266        0.45454637770872
C            1.80950702079568        0.25190800041650        0.22699186949782
N            3.20391584868421        0.35570822682931        0.32265086085761
C            3.94533389085112        1.35368478964860        0.94233136817612
C            3.54500761928773        2.43695724074530        1.70751250107830
C            4.53190142777627        3.26013378565762        2.21949499689143
C            5.88163668165477        3.01080608398829        1.99321149641058
C            6.29890941216861        1.90939603409649        1.26449834912186
C            5.32120685361370        1.08014933671686        0.75026563568112
N            5.37773229582738       -0.09419435251329        0.03622289381795
C            6.21104136205130       -1.03347158621656       -0.53163079027828
C            7.58066787309496       -1.15887457826749       -0.62698939602165
C            8.06771974317635       -2.27516920271829       -1.28933797478714
C            7.21243405675479       -3.23004912623994       -1.83572976226988
C            5.83946204247784       -3.11313557062878       -1.74573954300401
C            5.32324352874970       -2.00275217695156       -1.08714178857863
N            4.01266017039652       -1.65990491087801       -0.86196594270926
C            4.08900519043481       -0.53263193707985       -0.20321586356514
H           -0.96031260966528        2.09863981420576       -0.47634652359055
H           -7.12295386165493        0.98721749686827       -0.37086144299883
H           -8.52506146913572        2.96460655400405       -0.87023429048769
H           -7.45981950856625        5.13527943411032       -1.35401936351103
H           -5.00164137800888        5.33387360886138       -1.34042816746975
H           -3.60698370422220        3.35300515409659       -0.84013358040789
H           -6.92190316902390       -1.85823836342832        0.22093619495613
H           -8.03142224997868       -4.02757367754836        0.65531346169332
H           -6.67417126980991       -6.01791525483589        1.18134732889978
H           -4.21599549328899       -5.84613050816354        1.27365026152635
H           -3.11405588856183       -3.67322612152443        0.83795311062798
H           -0.65907435040725       -2.04187439311748        0.56746895277718
H            1.80549889203788       -1.83159319317035        0.68455000471877
H            2.50363845089633        2.63129649111500        1.90589746007042
H            4.24555890192322        4.11509245633857        2.81156605007016
H            6.61986069136481        3.68127267107430        2.40493268825357
H            7.34511499487447        1.70149559539542        1.10836290023161
H            8.24699575344705       -0.42168287399282       -0.20655678781844
H            9.13504279092849       -2.40649154514038       -1.38347901841436
H            7.63880015581655       -4.08266771763859       -2.34275905627071
H            5.17580584873690       -3.84955846192624       -2.16825112982253

 projected vibrational frequencies (cm⁻¹)
eigval :       -0.00    -0.00    -0.00    -0.00     0.00     0.00
eigval :       10.72    15.59    21.66    25.46    28.25    39.30
eigval :       44.01    51.79    55.25    78.39    85.32    95.64
eigval :       99.59   116.65   122.86   133.45   152.29   161.08
eigval :      171.85   187.03   194.17   219.71   223.19   245.29
eigval :      250.66   295.06   299.52   315.06   318.87   358.07
eigval :      363.79   365.89   366.60   372.52   377.64   391.99
eigval :      406.42   408.58   408.89   419.93   431.65   450.07
eigval :      489.03   526.80   530.38   535.30   538.39   539.83
eigval :      544.37   556.99   581.76   587.99   588.24   596.03
eigval :      600.53   601.68   616.78   636.79   650.58   652.76
eigval :      655.03   661.54   671.94   674.12   678.35   699.50
eigval :      727.87   729.99   761.66   763.35   767.95   770.90
eigval :      772.15   796.04   799.14   809.61   852.73   859.20
eigval :      865.31   869.08   871.29   872.95   893.87   896.64
eigval :      897.55   899.02   901.29   902.69   909.79   918.50
eigval :      918.76   926.13   927.08   929.95   930.29   952.66
eigval :      960.00   983.00   988.60  1052.89  1060.00  1066.65
eigval :     1073.63  1075.16  1078.63  1093.15  1108.58  1109.57
eigval :     1124.92  1131.57  1146.61  1155.95  1163.09  1174.04
eigval :     1179.84  1180.27  1182.01  1183.90  1188.89  1191.81
eigval :     1212.51  1218.34  1241.02  1250.47  1261.94  1266.12
eigval :     1267.39  1276.11  1281.37  1287.40  1330.45  1331.51
eigval :     1332.80  1338.17  1348.61  1358.52  1381.45  1391.90
eigval :     1401.24  1406.32  1417.73  1429.02  1431.43  1438.39
eigval :     1443.05  1462.86  1466.47  1474.88  1484.47  1487.02
eigval :     1489.80  1533.27  1544.09  1573.48  1574.10  1581.43
eigval :     1586.38  1590.93  1594.78  1603.07  1634.99  2361.37
eigval :     3076.32  3076.66  3081.08  3081.69  3083.90  3089.32
eigval :     3091.09  3091.54  3095.21  3099.02  3099.35  3099.72
eigval :     3100.26  3100.59  3101.81  3102.56  3102.93  3110.53
eigval :     3112.33  3114.35  3114.61

   temp. (K)  partition function   enthalpy   heat capacity  entropy
                                   cal/mol     cal/K/mol   cal/K/mol   J/K/mol
 298.15  VIB  0.128E+16            19160.000    119.393    119.355
         ROT  0.719E+08              888.752      2.981     38.931
         INT  0.922E+23            20048.752    122.374    158.286
         TR   0.121E+29             1481.254      4.968     44.722
         TOT                       21530.0064   127.3421   203.0083   849.3867

       T/K    H(0)-H(T)+PV         H(T)/Eh          T*S/Eh         G(T)/Eh
   ------------------------------------------------------------------------
    298.15    0.343102E-01    0.493024E+00    0.964558E-01    0.396568E+00
   ------------------------------------------------------------------------

         :::::::::::::::::::::::::::::::::::::::::::::::::::::
         ::                  THERMODYNAMIC                  ::
         :::::::::::::::::::::::::::::::::::::::::::::::::::::
         :: total free energy        -105.684171027507 Eh   ::
         ::.................................................::
         :: total energy             -106.080739511394 Eh   ::
         :: zero point energy           0.458714024710 Eh   ::
         :: G(RRHO) w/o ZPVE           -0.062145540823 Eh   ::
         :: G(RRHO) contrib.            0.396568483887 Eh   ::
         :::::::::::::::::::::::::::::::::::::::::::::::::::::

           -------------------------------------------------
          | TOTAL ENERGY             -106.080739511394 Eh   |
          | TOTAL ENTHALPY           -105.587715237586 Eh   |
          | TOTAL FREE ENERGY        -105.684171027507 Eh   |
          | GRADIENT NORM               0.000105110175 Eh/α |
           -------------------------------------------------

 * finished run on 2025/09/04 at 17:45:48.804
