   * xtb version 6.7.1 (edcfbbe) compiled by 'albert@albert-system' on 2024-07-22

   ID    Z sym.   atoms
    1    7 N      1, 7, 15, 23, 27, 34, 41
    2    6 C      2-6, 8-14, 16-22, 24-26, 28-33, 35-40, 42
    3    1 H      43-63

          program call               : xtb data2507/gas/BzITz/BzITz_gas_S0_crest.xyz --gfn 2 --ohess vtight --parallel 40 --molden --ceasefiles --namespace data2507/gas/BzITz/BzITz_gas_S0_finalOpt
          :  Hamiltonian                  GFN2-xTB          :
 * total energy  :  -106.1549474 Eh     change       -0.1230731E-08 Eh
 * total energy  :  -106.1549473 Eh     change        0.1949973E-06 Eh
 * total energy  :  -106.1549484 Eh     change       -0.1193500E-05 Eh
 * total energy  :  -106.1549489 Eh     change       -0.4492391E-06 Eh
 * total energy  :  -106.1549494 Eh     change       -0.5233439E-06 Eh
 * total energy  :  -106.1549503 Eh     change       -0.8965180E-06 Eh
 * total energy  :  -106.1549511 Eh     change       -0.8360760E-06 Eh
 * total energy  :  -106.1549518 Eh     change       -0.6304353E-06 Eh
 * total energy  :  -106.1549522 Eh     change       -0.4277614E-06 Eh
 * total energy  :  -106.1549526 Eh     change       -0.4141818E-06 Eh
 * total energy  :  -106.1549553 Eh     change       -0.5228037E-06 Eh
 * total energy  :  -106.1549559 Eh     change       -0.5794792E-06 Eh
 * total energy  :  -106.1549566 Eh     change       -0.7905818E-06 Eh
 * total energy  :  -106.1549574 Eh     change       -0.7911809E-06 Eh
 * total energy  :  -106.1549579 Eh     change       -0.4822556E-06 Eh
 * total energy  :  -106.1549582 Eh     change       -0.2776717E-06 Eh
 * total energy  :  -106.1549584 Eh     change       -0.2372919E-06 Eh
 * total energy  :  -106.1549587 Eh     change       -0.2779116E-06 Eh
 * total energy  :  -106.1549587 Eh     change       -0.5120654E-08 Eh
   *** GEOMETRY OPTIMIZATION CONVERGED AFTER 22 ITERATIONS ***

 final structure:
================
63
 xtb: 6.7.1 (edcfbbe)
N            2.00041056401023        3.64440732099700       -0.83725678063053
C            1.57768095888540        2.64370454074717       -0.46961746626174
C            1.00857251330210        1.40781647563508       -0.08593383349264
C           -0.37656161460365        1.27915885183871       -0.14260521258001
C           -0.97927327705192        0.05201987062058        0.09798510694669
C           -2.43718148842344       -0.07184436012920        0.04658775960721
N           -3.14420003522993        1.02327340156368       -0.20934549261925
C           -4.46579527387313        0.86515733932441       -0.24838109978528
C           -5.29005337757313        2.03891190786837       -0.53154982298158
C           -6.67813282893084        1.92354198454855       -0.58320161997664
C           -7.45455276562186        3.03382082338669       -0.85138198167289
C           -6.85565010454630        4.26499997350952       -1.06981618117125
C           -5.47543871288961        4.38513987976432       -1.01982349489924
C           -4.69296858284444        3.27892162358817       -0.75213619306762
N           -5.07859418489116       -0.29700707642227       -0.04390788193892
C           -4.29329852713703       -1.33940312969017        0.20942441032230
C           -4.92423436385195       -2.63721064157014        0.44452028075646
C           -6.31252429779390       -2.75675447039625        0.41582422204082
C           -6.90535084013940       -3.98400078061168        0.63951505425524
C           -6.12156512036065       -5.09920938960142        0.89268067244670
C           -4.74018322346866       -4.98571992369184        0.92174718125278
C           -4.14077861166134       -3.76151092595776        0.69909322264669
N           -2.96452303221495       -1.27153479619069        0.26278639784819
C           -0.18234397010138       -1.06323277000110        0.36540173270924
C            1.18810311149754       -0.94396287782155        0.43606746555591
C            1.80099398507545        0.29326992343243        0.24494219247188
N            3.18595913247630        0.38870567244859        0.34477937574312
C            3.95638680373471        1.41326313248241        0.89988674725939
C            3.59017973863244        2.52114335243178        1.64115111325920
C            4.60027262855564        3.35041831327964        2.10264491093240
C            5.93814757022597        3.07714831646865        1.85311209857946
C            6.32153877961020        1.94257654970216        1.15636399501051
C            5.32105043734388        1.11055171177617        0.69374762467606
N            5.35358392189116       -0.09945606378045        0.03712956616426
C            6.16775948537954       -1.07179787009141       -0.49861899719683
C            7.53727175691354       -1.20701636446188       -0.62128500351257
C            8.00414766768814       -2.35639215006054       -1.23199130510296
C            7.13201554038556       -3.33589622715343       -1.70344155369740
C            5.76198320747348       -3.20879882436251       -1.58535456489628
C            5.26719158624083       -2.06430509131394       -0.97690844305619
N            3.95636078758097       -1.70097841221984       -0.73325181806887
C            4.05873927321774       -0.54726432533952       -0.14415862679846
H           -0.98926917364243        2.13183715088231       -0.39116411238445
H           -7.12622393952153        0.95766358269924       -0.41120948142035
H           -8.53011791335819        2.94280768361041       -0.89128066313256
H           -7.46526241116243        5.13176122663797       -1.27952569326143
H           -5.01083790746941        5.34508060517057       -1.19076391095860
H           -3.61790886158435        3.35482363300663       -0.71005193556022
H           -6.90597809753855       -1.87834809171410        0.21710427039753
H           -7.98139364640738       -4.07521736356489        0.61695160123914
H           -6.58782665363594       -6.05786916266052        1.06725713349169
H           -4.13161383736947       -5.85609920338055        1.11868109711773
H           -3.06768588845709       -3.65484753752900        0.71744316947610
H           -0.66220600731574       -2.01567324005819        0.52261622953570
H            1.81059417910155       -1.80250604129471        0.63132527593345
H            2.55839912125857        2.73632686685880        1.86707332206139
H            4.33591544950184        4.22668883560935        2.67342473390577
H            6.69555057256971        3.75033298112142        2.22349438605274
H            7.36053674502873        1.70962053248297        0.98839791648640
H            8.21374894385556       -0.44893752177678       -0.25771836567256
H            9.06835876383468       -2.49787578786657       -1.34626287649920
H            7.54267714971521       -4.21685778684030       -2.17415305587357
H            5.08719459668484       -3.96546704754162       -1.95116594411239

          :  Hamiltonian                  GFN2-xTB          :
         :: gradient norm              0.000075277518 Eh/a0 ::
         :: HOMO-LUMO gap              2.040175447287 eV    ::
         :: SCC energy              -108.074501847258 Eh    ::
         :: -> dispersion             -0.085546789947 Eh    ::
         :: repulsion energy           1.919543125838 Eh    ::

    * Orbital Energies and Occupations

         #    Occupation            Energy/Eh            Energy/eV
      -------------------------------------------------------------
         1        2.0000           -0.7157537             -19.4767
       ...           ...                  ...                  ...
        86        2.0000           -0.4263747             -11.6022
        87        2.0000           -0.4261397             -11.5959
        88        2.0000           -0.4191022             -11.4044
        89        2.0000           -0.4143346             -11.2746
        90        2.0000           -0.4138303             -11.2609
        91        2.0000           -0.4109431             -11.1823
        92        2.0000           -0.4098657             -11.1530
        93        2.0000           -0.4063056             -11.0561
        94        2.0000           -0.3892356             -10.5916
        95        2.0000           -0.3842896             -10.4571
        96        2.0000           -0.3766563             -10.2493
        97        2.0000           -0.3754615             -10.2168
        98        2.0000           -0.3715730             -10.1110 (HOMO)
        99                         -0.2965980              -8.0708 (LUMO)
       100                         -0.2903252              -7.9002
       101                         -0.2775197              -7.5517
       102                         -0.2541218              -6.9150
       103                         -0.2470915              -6.7237
       104                         -0.2364895              -6.4352
       105                         -0.2313688              -6.2959
       106                         -0.2308594              -6.2820
       107                         -0.2262395              -6.1563
       108                         -0.2147353              -5.8432
       109                         -0.2084551              -5.6724
       ...                                ...                  ...
       189                          1.1608719              31.5889
      -------------------------------------------------------------
                  HL-Gap            0.0749751 Eh            2.0402 eV

     #   Z          covCN         q      C6AA      α(0)
     1   7 N        0.911    -0.233    26.110     7.390
     2   6 C        1.912     0.116    28.240     8.582
     3   6 C        2.971     0.005    27.919     8.667
     4   6 C        2.936    -0.016    28.419     8.743
     5   6 C        2.982    -0.000    28.024     8.684
     6   6 C        2.985     0.202    23.710     7.987
     7   7 N        1.844    -0.296    28.509     7.913
     8   6 C        2.982     0.203    23.690     7.984
     9   6 C        2.984    -0.000    28.027     8.684
    10   6 C        2.924    -0.023    28.578     8.767
    11   6 C        2.918    -0.027    28.675     8.781
    12   6 C        2.920    -0.022    28.565     8.764
    13   6 C        2.918    -0.027    28.669     8.780
    14   6 C        2.924    -0.023    28.569     8.765
    15   7 N        1.844    -0.291    28.396     7.897
    16   6 C        2.982     0.203    23.694     7.985
    17   6 C        2.984    -0.000    28.024     8.684
    18   6 C        2.924    -0.023    28.576     8.766
    19   6 C        2.918    -0.027    28.674     8.781
    20   6 C        2.920    -0.023    28.568     8.765
    21   6 C        2.918    -0.027    28.674     8.781
    22   6 C        2.924    -0.023    28.579     8.767
    23   7 N        1.844    -0.294    28.475     7.908
    24   6 C        2.922    -0.016    28.406     8.740
    25   6 C        2.920    -0.038    28.951     8.824
    26   6 C        2.917     0.080    26.219     8.397
    27   7 N        2.794    -0.056    22.326     7.018
    28   6 C        3.077     0.042    26.967     8.514
    29   6 C        2.911    -0.040    28.987     8.828
    30   6 C        2.924    -0.032    28.793     8.800
    31   6 C        2.925    -0.033    28.834     8.806
    32   6 C        2.911    -0.043    29.069     8.841
    33   6 C        3.034     0.045    26.949     8.515
    34   7 N        2.895    -0.053    22.260     7.007
    35   6 C        3.070     0.030    27.257     8.560
    36   6 C        2.907    -0.047    29.159     8.854
    37   6 C        2.926    -0.038    28.950     8.824
    38   6 C        2.923    -0.037    28.932     8.821
    39   6 C        2.910    -0.043    29.058     8.839
    40   6 C        3.242     0.069    25.565     8.196
    41   7 N        1.862    -0.328    29.348     8.030
    42   6 C        3.362     0.197    21.247     7.232
    43   1 H        0.926     0.071     2.079     2.255
    44   1 H        0.926     0.056     2.250     2.346
    45   1 H        0.926     0.038     2.474     2.460
    46   1 H        0.926     0.038     2.470     2.458
    47   1 H        0.926     0.039     2.460     2.452
    48   1 H        0.926     0.055     2.261     2.351
    49   1 H        0.926     0.056     2.249     2.345
    50   1 H        0.926     0.038     2.474     2.460
    51   1 H        0.926     0.038     2.474     2.459
    52   1 H        0.926     0.038     2.470     2.458
    53   1 H        0.926     0.055     2.257     2.349
    54   1 H        0.926     0.072     2.061     2.245
    55   1 H        0.926     0.070     2.089     2.260
    56   1 H        0.926     0.041     2.439     2.442
    57   1 H        0.926     0.047     2.362     2.403
    58   1 H        0.926     0.045     2.384     2.414
    59   1 H        0.926     0.045     2.381     2.413
    60   1 H        0.926     0.030     2.588     2.516
    61   1 H        0.926     0.034     2.533     2.489
    62   1 H        0.926     0.035     2.521     2.483
    63   1 H        0.926     0.046     2.369     2.407

molecular dipole:
                 x           y           z       tot (Debye)
 q only:       -0.603      -0.210       0.842
   full:       -0.487      -0.346       1.045       3.060

 projected vibrational frequencies (cm⁻¹)
eigval :       -0.00    -0.00     0.00     0.00     0.00     0.00
eigval :        5.83    15.64    16.57    22.18    23.77    40.03
eigval :       44.54    53.04    57.87    79.31    85.99    90.41
eigval :       97.76   111.33   125.48   137.46   158.83   161.63
eigval :      173.69   181.91   192.16   208.64   227.57   257.20
eigval :      261.48   301.06   307.67   317.00   325.75   354.62
eigval :      363.78   364.57   370.36   385.13   401.57   404.49
eigval :      409.27   418.35   427.88   432.15   443.08   470.21
eigval :      497.32   532.67   535.84   544.77   545.90   555.80
eigval :      584.32   587.35   588.60   598.11   604.71   613.35
eigval :      626.87   635.38   644.33   651.14   656.28   663.56
eigval :      673.68   675.31   677.75   697.86   700.22   729.18
eigval :      752.13   766.57   770.86   773.95   775.57   795.28
eigval :      803.74   839.08   847.52   863.29   867.66   874.60
eigval :      874.75   876.71   884.63   895.46   898.25   907.21
eigval :      909.51   911.20   919.73   920.78   921.00   929.42
eigval :      929.73   930.55   933.88   934.13   959.09   984.79
eigval :      990.57  1048.37  1056.11  1069.19  1074.93  1075.55
eigval :     1078.84  1089.12  1095.61  1108.33  1112.21  1130.83
eigval :     1138.12  1156.04  1166.71  1167.45  1176.98  1180.18
eigval :     1180.97  1184.51  1188.38  1202.75  1206.45  1209.73
eigval :     1222.93  1230.06  1245.52  1254.75  1268.47  1270.09
eigval :     1271.72  1287.12  1326.52  1328.32  1329.98  1339.10
eigval :     1349.68  1358.71  1372.43  1372.96  1387.11  1393.09
eigval :     1411.14  1417.77  1432.28  1433.86  1455.71  1467.73
eigval :     1474.67  1475.88  1481.27  1499.06  1508.56  1518.08
eigval :     1550.28  1575.26  1580.13  1583.61  1585.76  1592.50
eigval :     1594.73  1595.49  1604.06  1610.18  1654.90  2367.57
eigval :     3075.68  3075.98  3080.41  3082.01  3082.49  3086.08
eigval :     3090.96  3091.41  3094.34  3096.79  3101.42  3107.71
eigval :     3107.90  3108.54  3109.54  3109.71  3110.00  3111.29
eigval :     3111.41  3113.45  3120.15

   temp. (K)  partition function   enthalpy   heat capacity  entropy
                                   cal/mol     cal/K/mol   cal/K/mol   J/K/mol
 298.15  VIB  0.273E+16            18815.619    116.745    118.518
         ROT  0.715E+08              888.752      2.981     38.920
         INT  0.195E+24            19704.371    119.726    157.438
         TR   0.121E+29             1481.254      4.968     44.722
         TOT                       21185.6249   124.6943   202.1601   845.8377

       T/K    H(0)-H(T)+PV         H(T)/Eh          T*S/Eh         G(T)/Eh
   ------------------------------------------------------------------------
    298.15    0.337614E-01    0.497671E+00    0.960528E-01    0.401618E+00
   ------------------------------------------------------------------------

         :::::::::::::::::::::::::::::::::::::::::::::::::::::
         ::                  THERMODYNAMIC                  ::
         :::::::::::::::::::::::::::::::::::::::::::::::::::::
         :: total free energy        -105.753340304271 Eh   ::
         ::.................................................::
         :: total energy             -106.154958721419 Eh   ::
         :: zero point energy           0.463909741992 Eh   ::
         :: G(RRHO) w/o ZPVE           -0.062291324844 Eh   ::
         :: G(RRHO) contrib.            0.401618417148 Eh   ::
         :::::::::::::::::::::::::::::::::::::::::::::::::::::

           -------------------------------------------------
          | TOTAL ENERGY             -106.154958721419 Eh   |
          | TOTAL ENTHALPY           -105.657287537101 Eh   |
          | TOTAL FREE ENERGY        -105.753340304271 Eh   |
          | GRADIENT NORM               0.000075361891 Eh/α |
          | HOMO-LUMO GAP               2.040175560756 eV   |
           -------------------------------------------------

 * finished run on 2025/09/04 at 17:45:39.872
