   * xtb version 6.7.1 (edcfbbe) compiled by 'albert@albert-system' on 2024-07-22

   ID    Z sym.   atoms
    1    6 C      1-20, 22-29, 31-58
    2    7 N      21, 30
    3    1 H      59-114

          program call               : xtb data2507/gas/PLQYs/PLQYs_gas_T1_crest.xyz --gfn 2 --spinpol --tblite --uhf 2 --ohess vtight --parallel 40 --molden --ceasefiles --namespace data2507/gas/PLQYs/PLQYs_gas_T1_finalOpt
 * total energy  :  -154.4402451 Eh     change       -0.7177050E-09 Eh
 * total energy  :  -154.4402795 Eh     change       -0.3442457E-04 Eh
 * total energy  :  -154.4402897 Eh     change       -0.1018393E-04 Eh
 * total energy  :  -154.4402911 Eh     change       -0.1400321E-05 Eh
 * total energy  :  -154.4402927 Eh     change       -0.1562742E-05 Eh
 * total energy  :  -154.4402935 Eh     change       -0.8176044E-06 Eh
 * total energy  :  -154.4402944 Eh     change       -0.9651175E-06 Eh
 * total energy  :  -154.4402952 Eh     change       -0.8102761E-06 Eh
 * total energy  :  -154.4402957 Eh     change       -0.4056443E-06 Eh
 * total energy  :  -154.4402960 Eh     change       -0.3740488E-06 Eh
 * total energy  :  -154.4402963 Eh     change       -0.2401119E-06 Eh
 * total energy  :  -154.4402965 Eh     change       -0.2673824E-06 Eh
 * total energy  :  -154.4402969 Eh     change       -0.4110019E-06 Eh
 * total energy  :  -154.4402974 Eh     change       -0.4219803E-06 Eh
 * total energy  :  -154.4402977 Eh     change       -0.2939138E-06 Eh
 * total energy  :  -154.4402978 Eh     change       -0.1669118E-06 Eh
 * total energy  :  -154.4402980 Eh     change       -0.1255837E-06 Eh
 * total energy  :  -154.4402980 Eh     change       -0.7846685E-07 Eh
   *** GEOMETRY OPTIMIZATION CONVERGED AFTER 18 ITERATIONS ***

 final structure:
================
114
 xtb: 6.7.1 (edcfbbe)
C            8.67838976291093        4.89137061754755       -1.51968324728019
C            8.83263024779287        4.10687164662935       -0.20890480403111
C            8.64206404840503        5.05017490851584        0.98745486235155
C           10.25881141394302        3.55237681158651       -0.15250367219592
C            7.77676830788480        3.01276748779171       -0.15471379390737
C            6.42365559036823        3.37682636503124       -0.19052263577960
C            5.39755823251646        2.45595796743584       -0.14061167922217
C            5.73227666571146        1.11340335723422       -0.04234992920500
C            7.08742820347375        0.71790154833535       -0.02981022421867
C            8.09911213492357        1.66611242899329       -0.08179395617292
C            7.08952639539638       -0.71892637589506        0.02768010683114
C            8.10405911805002       -1.66400242517102        0.08076947597496
C            7.78580566310038       -3.01161188328281        0.15395429914440
C            8.84507278169064       -4.10232035475081        0.21023319877026
C            8.69124751843296       -4.88660934735963        1.52119925152488
C           10.26957307383021       -3.54330088960046        0.15586998185395
C            8.65949607000198       -5.04687605139014       -0.98590112192796
C            6.43378211906649       -3.37981705094459        0.18844719501721
C            5.40488562295343       -2.46211051086267        0.13743340423491
C            5.73553973057590       -1.11853520937061        0.03944936404040
N            4.92589741300762       -0.00376494265612       -0.00165327830004
C            3.52191305057476       -0.00509650431946       -0.00041070500793
C            2.83862136027040        0.80655549714217        0.89316462076862
C            1.41445852997495        0.82936377341210        0.90622792489434
C            0.69718272351465        1.63688741161267        1.78931867209435
C           -0.69405615841877        1.63565565973494        1.79128038459446
C           -1.41236498140893        0.82811409864904        0.90905042480782
C           -2.83653215563722        0.80357054102808        0.89933636133950
C           -3.52132188384532       -0.00256586337991        0.00179017778449
N           -4.92504112698458       -0.00055825873404        0.00142463705566
C           -5.73527216158382       -1.11578270705052        0.02188416591551
C           -5.40595806913889       -2.46129149064851        0.09561864505419
C           -6.43551856236668       -3.37921192008349        0.12563927615560
C           -7.78722818358841       -3.00973882141754        0.09415123819216
C           -8.84724837249919       -4.10078808297050        0.12157801683201
C           -8.65751768073836       -5.01684917215939       -1.09592543382888
C           -8.69887649056843       -4.91598112784632        1.41413773798428
C          -10.27121098345009       -3.53970617214205        0.07495432107942
C           -8.10437035710317       -1.66067525019732        0.04868806273559
C           -7.08906960079158       -0.71550763633014        0.01675694092511
C           -7.08654631806740        0.72211041890529       -0.01251257576524
C           -8.09847609606196        1.67092209489442       -0.04390284117186
C           -7.77651758744341        3.01882360642752       -0.09003662303343
C           -8.83258077703366        4.11370149904119       -0.11738358001837
C           -8.68249986265571        4.92696716387033       -1.41096900279315
C          -10.25851530498195        3.55783701996376       -0.06869881579262
C           -8.63828567426397        5.03036298115360        1.09894299383347
C           -6.42351538166159        3.38343195053078       -0.12268709403632
C           -5.39724932883060        2.46183138711943       -0.09304140802280
C           -5.73135121472970        1.11753704998330       -0.01861569867761
C           -2.83776861213070       -0.81020084443620       -0.89537003785716
C           -1.41360755412013       -0.83686742617597       -0.90500406713335
C           -0.69632399403076       -1.64534420513078       -1.78723423971358
C            0.69493794393990       -1.64763749454324       -1.78607094712793
C            1.41342672536594       -0.84029127933774       -0.90380223438200
C            2.83767341231347       -0.81740404521426       -0.89258631334127
C            0.70582111546086       -0.00527947271275        0.00146278924599
C           -0.70474330079589       -0.00473358371021        0.00186707016712
H            9.44004366070732        5.66569148371178       -1.58494208876462
H            7.70388786371340        5.36690395799682       -1.58592621530731
H            8.79003319571967        4.22400993986488       -2.37180220035926
H            7.66660948245287        5.52781600004139        0.96570127158479
H            8.72947144170121        4.49611444585646        1.91985052436267
H            9.40211061154939        5.82871741751741        0.97571200454843
H           10.96929782861789        4.37600838036124       -0.18670157531642
H           10.42807579385940        3.00129742089151        0.76972443274102
H           10.45968580489203        2.90151878748054       -1.00031401996232
H            6.15884527292416        4.42053440448231       -0.26459834813325
H            4.36709852439522        2.77461164069841       -0.18821710351143
H            9.12257691820139        1.33032142604367       -0.06868668333007
H            9.12648775473282       -1.32504618410511        0.06846439446112
H            9.45614260024046       -5.65752785791190        1.58879249790035
H            8.79796516692135       -4.21816823394691        2.37310206874381
H            7.71869801305352       -5.36638587392408        1.58549655596206
H           10.98264014949059       -4.36464683288660        0.19138998399939
H           10.43852542573681       -2.99193986475393       -0.76624732513718
H           10.46703861012947       -2.89156613947401        1.00381149542450
H            7.68521456389397       -5.52698400483243       -0.96593700384335
H            9.42151055683975       -5.82346169372224       -0.97201097663228
H            8.74749703494297       -4.49319202998931       -1.91846276435180
H            6.17212566431475       -4.42432723366771        0.26245068737493
H            4.37537387766293       -2.78394097259329        0.18411922244707
H            3.38162781366215        1.40941257244727        1.60448790149529
H            1.23422889129746        2.27135420540304        2.47944417077701
H           -1.23025128278305        2.26886083899677        2.48322851799098
H           -3.37808832073950        1.40128271019544        1.61602574574869
H           -4.37699474332052       -2.78514207390098        0.13967359803393
H           -6.17454130486249       -4.42511930534164        0.17968222588662
H           -7.68360818541046       -5.49797850677522       -1.08342055680191
H           -8.74134862986394       -4.44108320272149       -2.01541585140952
H           -9.42010012543551       -5.79295950268617       -1.10360486532538
H           -7.72676883936496       -5.39758536705980        1.47094638494896
H           -8.80886387035440       -4.26794406065390        2.28124854993890
H           -9.46426279787987       -5.68799467799832        1.46027117883436
H          -10.98487093010529       -4.36118781552950        0.08862729663944
H          -10.43640931559213       -2.96689713622667       -0.83468505358664
H          -10.47146702178864       -2.90777912952111        0.93711759194589
H           -9.12651236679075       -1.32072100527459        0.04130970472328
H           -9.12183192850730        1.33465791563411       -0.03563046612559
H           -7.70880759765323        5.40521388692039       -1.46905997980855
H           -8.79534821320112        4.27834854948126       -2.27727658005051
H           -9.44531027790717        5.70150634300609       -1.45735349705710
H          -10.46195902025078        2.92568493400921       -0.92994435221741
H          -10.96920196962199        4.38188723155271       -0.08257887143653
H          -10.42484001084793        2.98664780367320        0.84175462162196
H           -8.72310100501821        4.45588470001824        2.01914518421145
H           -9.39815737661961        5.80912640968577        1.10663032345956
H           -7.66274366352625        5.50812122043409        1.08485375380105
H           -6.15881936749724        4.42836611149087       -0.17741900524307
H           -4.36715871813365        2.78195964791283       -0.13798177872147
H           -3.38019260899321       -1.40703912768073       -1.61213222749464
H           -1.23334384746963       -2.27827003596397       -2.47880322571722
H            1.23103469137166       -2.28262625898880       -2.47646008508785
H            3.37979126419750       -1.42026074752717       -1.60458757833016

 projected vibrational frequencies (cm⁻¹)
eigval :       -0.00    -0.00    -0.00     0.00     0.00     0.00
eigval :        8.14     8.64    13.36    21.65    24.96    30.75
eigval :       30.89    31.81    33.53    35.46    58.82    58.91
eigval :       61.11    67.68    77.74    84.11    84.39   107.57
eigval :      117.21   126.11   148.12   149.06   158.58   158.85
eigval :      162.96   171.98   172.90   186.87   190.77   192.70
eigval :      199.78   201.85   204.83   215.53   218.50   220.02
eigval :      220.55   222.64   228.03   229.75   232.55   258.35
eigval :      258.45   260.19   277.98   286.68   303.98   311.62
eigval :      315.42   317.61   317.99   322.17   322.53   335.43
eigval :      341.12   344.85   345.90   358.59   359.18   359.90
eigval :      362.07   370.83   374.41   382.86   396.27   398.53
eigval :      409.15   409.45   417.63   423.39   438.19   441.43
eigval :      441.92   442.41   444.96   454.48   461.31   465.73
eigval :      465.75   466.31   466.72   489.04   496.94   497.75
eigval :      501.25   502.92   514.46   528.88   532.50   551.36
eigval :      582.04   583.04   586.89   587.00   587.48   590.60
eigval :      612.81   631.48   635.67   640.25   640.26   645.30
eigval :      664.29   687.10   689.15   689.37   706.27   708.47
eigval :      710.55   712.43   718.14   741.40   751.49   754.06
eigval :      762.17   765.22   766.83   800.05   800.36   809.55
eigval :      812.59   818.44   823.39   824.24   827.55   828.45
eigval :      836.67   838.16   866.37   867.19   870.78   870.90
eigval :      872.34   872.60   873.14   873.69   915.24   915.46
eigval :      915.62   915.84   924.95   926.06   932.25   932.37
eigval :      957.25   960.06   960.07   960.13   960.14   962.64
eigval :      962.67   962.82   962.83   962.86   962.86   963.04
eigval :      963.05  1015.76  1022.20  1030.56  1031.98  1032.58
eigval :     1035.23  1035.23  1035.27  1035.27  1036.23  1039.67
eigval :     1041.32  1042.89  1113.40  1116.04  1128.81  1129.08
eigval :     1133.08  1138.33  1142.57  1149.31  1160.92  1171.04
eigval :     1172.07  1174.50  1182.46  1185.83  1202.05  1207.05
eigval :     1220.01  1226.81  1227.29  1227.31  1227.38  1227.40
eigval :     1231.23  1231.57  1231.59  1232.62  1236.35  1236.43
eigval :     1243.79  1250.16  1258.55  1264.42  1264.62  1282.79
eigval :     1284.34  1298.60  1299.76  1302.07  1305.99  1311.05
eigval :     1332.27  1339.39  1345.40  1348.38  1353.07  1356.31
eigval :     1356.99  1375.28  1390.39  1400.81  1401.73  1402.18
eigval :     1404.12  1404.19  1405.25  1405.35  1405.37  1405.40
eigval :     1405.71  1412.49  1413.72  1427.94  1427.98  1428.04
eigval :     1428.07  1439.74  1441.71  1442.20  1469.93  1473.69
eigval :     1473.80  1482.20  1483.25  1483.39  1491.55  1491.56
eigval :     1491.57  1491.58  1494.35  1494.36  1494.39  1494.41
eigval :     1495.61  1500.66  1500.72  1500.73  1500.74  1500.99
eigval :     1504.79  1504.81  1504.81  1504.82  1511.33  1514.41
eigval :     1514.43  1514.62  1514.63  1519.46  1519.47  1520.22
eigval :     1520.27  1548.02  1564.91  1565.00  1578.93  1579.16
eigval :     1592.24  1592.33  1606.92  1609.95  3020.82  3020.84
eigval :     3020.94  3020.96  3022.25  3022.28  3022.32  3022.35
eigval :     3026.70  3026.70  3026.72  3026.73  3029.08  3029.11
eigval :     3029.17  3029.63  3030.49  3030.50  3030.53  3030.56
eigval :     3035.23  3035.25  3035.48  3035.50  3037.35  3037.35
eigval :     3037.50  3037.70  3046.96  3046.96  3046.97  3046.98
eigval :     3050.38  3050.41  3050.48  3050.50  3071.00  3071.17
eigval :     3080.54  3080.72  3080.74  3080.92  3082.49  3082.54
eigval :     3092.84  3093.02  3093.09  3093.27  3094.49  3094.94
eigval :     3095.44  3096.47  3114.96  3114.99  3118.38  3118.59

   temp. (K)  partition function   enthalpy   heat capacity  entropy
                                   cal/mol     cal/K/mol   cal/K/mol   J/K/mol
 298.15  VIB  0.164E+25            32191.731    201.961    197.371
         ROT  0.121E+09              888.752      2.981     39.970
         INT  0.198E+33            33080.483    204.942    237.341
         TR   0.202E+29             1481.254      4.968     45.731
         TOT                       34561.7370   209.9103   283.0723  1184.3746

       T/K    H(0)-H(T)+PV         H(T)/Eh          T*S/Eh         G(T)/Eh
   ------------------------------------------------------------------------
    298.15    0.550776E-01    0.999739E+00    0.134497E+00    0.865243E+00
   ------------------------------------------------------------------------

         :::::::::::::::::::::::::::::::::::::::::::::::::::::
         ::                  THERMODYNAMIC                  ::
         :::::::::::::::::::::::::::::::::::::::::::::::::::::
         :: total free energy        -153.575055481111 Eh   ::
         ::.................................................::
         :: total energy             -154.440298077752 Eh   ::
         :: zero point energy           0.944661758251 Eh   ::
         :: G(RRHO) w/o ZPVE           -0.079419161611 Eh   ::
         :: G(RRHO) contrib.            0.865242596641 Eh   ::
         :::::::::::::::::::::::::::::::::::::::::::::::::::::

           -------------------------------------------------
          | TOTAL ENERGY             -154.440298077752 Eh   |
          | TOTAL ENTHALPY           -153.440558685783 Eh   |
          | TOTAL FREE ENERGY        -153.575055481111 Eh   |
          | GRADIENT NORM               0.000105272068 Eh/α |
           -------------------------------------------------

 * finished run on 2025/09/07 at 21:22:48.946
