   * xtb version 6.7.1 (edcfbbe) compiled by 'albert@albert-system' on 2024-07-22

   ID    Z sym.   atoms
    1    6 C      1-20, 22-29, 31-58
    2    7 N      21, 30
    3    1 H      59-114

          program call               : xtb data2507/gas/PLQYs/PLQYs_gas_S0_crest.xyz --gfn 2 --ohess vtight --parallel 40 --molden --ceasefiles --namespace data2507/gas/PLQYs/PLQYs_gas_S0_finalOpt
          :  Hamiltonian                  GFN2-xTB          :
 * total energy  :  -154.5135338 Eh     change       -0.4592835E-08 Eh
 * total energy  :  -154.5135349 Eh     change       -0.1027083E-05 Eh
 * total energy  :  -154.5135349 Eh     change       -0.2942775E-07 Eh
 * total energy  :  -154.5135363 Eh     change       -0.1368426E-05 Eh
 * total energy  :  -154.5135383 Eh     change       -0.2079720E-05 Eh
 * total energy  :  -154.5135403 Eh     change       -0.1953377E-05 Eh
 * total energy  :  -154.5135427 Eh     change       -0.2408318E-05 Eh
 * total energy  :  -154.5135451 Eh     change       -0.2431432E-05 Eh
 * total energy  :  -154.5135470 Eh     change       -0.1905034E-05 Eh
 * total energy  :  -154.5135489 Eh     change       -0.1848405E-05 Eh
 * total energy  :  -154.5135729 Eh     change       -0.7983165E-06 Eh
 * total energy  :  -154.5135735 Eh     change       -0.6130541E-06 Eh
 * total energy  :  -154.5135739 Eh     change       -0.3820448E-06 Eh
 * total energy  :  -154.5135742 Eh     change       -0.2931839E-06 Eh
 * total energy  :  -154.5135745 Eh     change       -0.3010636E-06 Eh
 * total energy  :  -154.5135747 Eh     change       -0.2584534E-06 Eh
 * total energy  :  -154.5135749 Eh     change       -0.2090282E-06 Eh
 * total energy  :  -154.5135751 Eh     change       -0.1825328E-06 Eh
 * total energy  :  -154.5135752 Eh     change       -0.7482376E-07 Eh
   *** GEOMETRY OPTIMIZATION CONVERGED AFTER 39 ITERATIONS ***

 final structure:
================
114
 xtb: 6.7.1 (edcfbbe)
C            8.68172346220338        4.87992374810359       -1.52537654734826
C            8.83256817460657        4.09673394163042       -0.21356100812952
C            8.64837637883827        5.04297177510227        0.98133020303681
C           10.25587824357787        3.53488993644171       -0.15779071693429
C            7.77125666817864        3.00739925142635       -0.15603686378028
C            6.42012130068627        3.37782806440133       -0.19459653669524
C            5.38916869225146        2.46227895130592       -0.14190760202217
C            5.71627211382141        1.11921724689081       -0.03773379121244
C            7.06824846713012        0.71725420237386       -0.02279931288646
C            8.08568959309467        1.66099725292482       -0.07749902117631
C            7.06576151227711       -0.71826196889477        0.03812044383818
C            8.07981186877565       -1.66538784119074        0.09740488070335
C            7.76053883265674       -3.01069749515502        0.17514412590285
C            8.81785566977838       -4.10356176880423        0.23872187602024
C            8.65880368556611       -4.88361948320721        1.55145845363233
C           10.24330312636939       -3.54671489424422        0.18767421941643
C            8.63538978328649       -5.05149165994906       -0.95506875896608
C            6.40803198988251       -3.37659756197477        0.20814424269746
C            5.38038802927128       -2.45763136410658        0.15087201620605
C            5.71241810773292       -1.11571735528730        0.04764523472030
N            4.90341616256319        0.00310104304013        0.00322103470921
C            3.50372779238107        0.00493600692267        0.00213193884830
C            2.81105062541644        0.82661142803478        0.88479602837072
C            1.41860847106765        0.84555691102964        0.89465672018384
C            0.67748307807989        1.67620019457835        1.78767678728364
C           -0.67510248143103        1.67376676586728        1.79023887625215
C           -1.41660354995669        0.84218314893578        0.89835941340469
C           -2.80897697811415        0.82072178609845        0.89152794585195
C           -3.50277829515417        0.00532844388052        0.00363445515419
N           -4.90210580337595        0.00557421070340        0.00445760992522
C           -5.71385896075438       -1.11246177464429        0.02111537461378
C           -5.38616281254013       -2.45767794191573        0.09121011870702
C           -6.41639403122394       -3.37514426016788        0.12015917145370
C           -7.76782501587620       -3.00514614021666        0.09171134619776
C           -8.82820551807557       -4.09659210330277        0.11605950337098
C           -8.64332647379442       -5.00453393576645       -1.10812835320963
C           -8.67648422452985       -4.92059700989996        1.40248716393311
C          -10.25194738484554       -3.53437327864277        0.07813966932106
C           -8.08310022663603       -1.65726948495299        0.05171967284079
C           -7.06627719326900       -0.71180514068775        0.02096298405324
C           -7.06572374505727        0.72478145195163       -0.00156024948407
C           -8.08181666695896        1.67118427779324       -0.02685717715955
C           -7.76543606192467        3.01873582444796       -0.06878635111657
C           -8.82481533509784        4.11125109638056       -0.08653879121118
C           -8.68225899608606        4.93318024359445       -1.37531357188409
C          -10.24881035098418        3.55063945242492       -0.03643938282275
C           -8.62933002551081        5.02075805805809        1.13485421656991
C           -6.41384908010019        3.38746820754952       -0.10547886006929
C           -5.38434290851269        2.46907942953121       -0.08150669137415
C           -5.71300173937823        1.12426923952503       -0.00857733912685
C           -2.80956155948166       -0.80973911157337       -0.88494703748060
C           -1.41714950851292       -0.83068367650984       -0.89293942725252
C           -0.67614505001128       -1.66174345213936       -1.78566969609467
C            0.67644625055783       -1.66397692347646       -1.78405191177106
C            1.41807505785588       -0.83340190403753       -0.89136569007285
C            2.81052333507202       -0.81559598684574       -0.88118883540083
C            0.70727792832912        0.00619944768497        0.00172356480389
C           -0.70563016980348        0.00578121514143        0.00248044172632
H            9.44733317737171        5.65024859122552       -1.59286500156067
H            7.70963988550157        5.36046800649040       -1.59173424573821
H            8.78904739158808        4.21041435398102       -2.37639216074870
H            7.67471698580264        5.52444852074406        0.96024235043728
H            8.73479700644577        4.48994424606139        1.91446336281653
H            9.41158512452929        5.81847926167472        0.96739956354457
H           10.97096887370096        4.35447086198872       -0.19519533976339
H           10.42334442305670        2.98507499086580        0.76551272938701
H           10.45158914535488        2.88051481833041       -1.00410777377615
H            6.16007183714609        4.42255565943443       -0.27328105888074
H            4.36112155192045        2.78886780371544       -0.19394982190924
H            9.10693312236900        1.31854562316511       -0.06255956754999
H            9.10225720511975       -1.32637296409594        0.08670151849538
H            9.42199002660946       -5.65586302701789        1.62422000135645
H            8.76389012659207       -4.21257656997775        2.40154626709493
H            7.68509248972479       -5.36135139489436        1.61420827313826
H           10.95538203409305       -4.36876686872205        0.22819345555052
H           10.41597505186729       -2.99813530139136       -0.73540673200621
H           10.43826731660522       -2.89242879987684        1.03423128522386
H            7.65935651203526       -5.52828817425570       -0.93818021018498
H            9.39477913192869       -5.83061073386317       -0.93532742880731
H            8.72947502231781       -4.50097034666542       -1.88894219796923
H            6.14414717678384       -4.42038974088228        0.28641038095888
H            4.35107717638928       -2.78080191540500        0.19900985576476
H            3.35993632789422        1.44373897565875        1.58086770953395
H            1.22949979487345        2.31046786759383        2.46672774309495
H           -1.22678599224772        2.30605097062807        2.47142083535333
H           -3.35671000513084        1.43202875225258        1.59351922627815
H           -4.35824282931202       -2.78562017749381        0.13530704144127
H           -6.15534232562641       -4.42135555734720        0.17080298200978
H           -7.66889192092471       -5.48490113814735       -1.10270422451753
H           -8.73110358008687       -4.42256309163260       -2.02337183534628
H           -9.40538222890756       -5.78122961964595       -1.11820722667163
H           -7.70485924353733       -5.40401965428152        1.45252411953954
H           -8.78212664339401       -4.27801884461509        2.27421147825752
H           -9.44276022419496       -5.69193843549725        1.44670324477640
H          -10.96640595372075       -4.35526907843332        0.09002521820665
H          -10.42005302723001       -2.95615325843919       -0.82752453042659
H          -10.44793625984924       -2.90687448496777        0.94451138281959
H           -9.10453025044953       -1.31507885537936        0.04805090679029
H           -9.10354465327790        1.32999617608879       -0.01745252942515
H           -7.71000916350677        5.41436048921714       -1.43420444742775
H           -8.79664721468204        4.28964880466333       -2.24522942788761
H           -9.44722142759922        5.70611787825538       -1.41410580731203
H          -10.45266205162756        2.92260427861078       -0.90059805454706
H          -10.96246847421786        4.37228880082722       -0.04315388142185
H          -10.40998067076085        2.97336490378600        0.87109029479390
H           -8.70923352295761        4.43993312889255        2.05154499054685
H           -9.39121061464230        5.79752411859950        1.15053617098157
H           -7.65497770744801        5.50109192993641        1.12043801876876
H           -6.15212376630924        4.43337733445557       -0.15868555466819
H           -4.35634417815104        2.79592772417802       -0.13160356065594
H           -3.35769292654360       -1.42102539596216       -1.58663193238737
H           -1.22822434031768       -2.29395268386749       -2.46659271141713
H            1.22808064063519       -2.29819156678320       -2.46346083628807
H            3.35904629158556       -1.43322016747997       -1.57709997482762

          :  Hamiltonian                  GFN2-xTB          :
         :: gradient norm              0.000102458605 Eh/a0 ::
         :: HOMO-LUMO gap              1.844110715351 eV    ::
         :: SCC energy              -157.267863477404 Eh    ::
         :: -> dispersion             -0.147253630150 Eh    ::
         :: repulsion energy           2.754288289844 Eh    ::

    * Orbital Energies and Occupations

         #    Occupation            Energy/Eh            Energy/eV
      -------------------------------------------------------------
         1        2.0000           -0.6688300             -18.1998
       ...           ...                  ...                  ...
       133        2.0000           -0.4101044             -11.1595
       134        2.0000           -0.4049070             -11.0181
       135        2.0000           -0.4045543             -11.0085
       136        2.0000           -0.4025840             -10.9549
       137        2.0000           -0.4023803             -10.9493
       138        2.0000           -0.3957850             -10.7699
       139        2.0000           -0.3918586             -10.6630
       140        2.0000           -0.3916943             -10.6585
       141        2.0000           -0.3724066             -10.1337
       142        2.0000           -0.3683708             -10.0239
       143        2.0000           -0.3681911             -10.0190
       144        2.0000           -0.3545294              -9.6472
       145        2.0000           -0.3505108              -9.5379 (HOMO)
       146                         -0.2827409              -7.6938 (LUMO)
       147                         -0.2501394              -6.8066
       148                         -0.2360737              -6.4239
       149                         -0.2342724              -6.3749
       150                         -0.2257076              -6.1418
       151                         -0.2126287              -5.7859
       152                         -0.2124271              -5.7804
       153                         -0.2073189              -5.6414
       154                         -0.2022440              -5.5033
       155                         -0.1844062              -5.0179
       156                         -0.1785878              -4.8596
       ...                                ...                  ...
       288                          0.7487537              20.3746
      -------------------------------------------------------------
                  HL-Gap            0.0677698 Eh            1.8441 eV

     #   Z          covCN         q      C6AA      α(0)
     1   6 C        3.761    -0.105    22.548     6.769
     2   6 C        3.903     0.026    20.088     6.371
     3   6 C        3.762    -0.105    22.547     6.769
     4   6 C        3.761    -0.106    22.581     6.774
     5   6 C        2.973    -0.003    28.088     8.693
     6   6 C        2.931    -0.040    28.986     8.829
     7   6 C        2.908    -0.054    29.335     8.881
     8   6 C        3.080     0.043    26.957     8.512
     9   6 C        3.068    -0.020    28.446     8.746
    10   6 C        2.918    -0.044    29.091     8.845
    11   6 C        3.068    -0.020    28.446     8.746
    12   6 C        2.918    -0.044    29.091     8.845
    13   6 C        2.973    -0.003    28.088     8.693
    14   6 C        3.903     0.026    20.088     6.371
    15   6 C        3.761    -0.105    22.547     6.769
    16   6 C        3.761    -0.106    22.581     6.774
    17   6 C        3.762    -0.105    22.547     6.769
    18   6 C        2.931    -0.040    28.986     8.829
    19   6 C        2.908    -0.054    29.335     8.881
    20   6 C        3.080     0.043    26.957     8.512
    21   7 N        2.803    -0.046    22.135     6.988
    22   6 C        2.907     0.064    26.561     8.451
    23   6 C        2.924    -0.052    29.283     8.874
    24   6 C        2.981     0.012    27.743     8.640
    25   6 C        2.913    -0.035    28.870     8.811
    26   6 C        2.913    -0.035    28.870     8.811
    27   6 C        2.981     0.012    27.743     8.640
    28   6 C        2.924    -0.052    29.290     8.875
    29   6 C        2.907     0.064    26.561     8.451
    30   7 N        2.803    -0.046    22.129     6.987
    31   6 C        3.079     0.043    26.959     8.512
    32   6 C        2.908    -0.054    29.335     8.881
    33   6 C        2.931    -0.040    28.986     8.829
    34   6 C        2.973    -0.003    28.086     8.693
    35   6 C        3.903     0.026    20.088     6.371
    36   6 C        3.762    -0.105    22.547     6.769
    37   6 C        3.761    -0.105    22.548     6.769
    38   6 C        3.761    -0.106    22.581     6.774
    39   6 C        2.918    -0.044    29.091     8.845
    40   6 C        3.068    -0.020    28.444     8.745
    41   6 C        3.068    -0.020    28.444     8.745
    42   6 C        2.918    -0.044    29.091     8.845
    43   6 C        2.973    -0.003    28.086     8.693
    44   6 C        3.903     0.026    20.088     6.371
    45   6 C        3.761    -0.105    22.548     6.769
    46   6 C        3.761    -0.106    22.581     6.774
    47   6 C        3.762    -0.105    22.547     6.769
    48   6 C        2.931    -0.040    28.986     8.830
    49   6 C        2.908    -0.054    29.335     8.881
    50   6 C        3.080     0.043    26.959     8.512
    51   6 C        2.924    -0.052    29.290     8.875
    52   6 C        2.981     0.012    27.743     8.640
    53   6 C        2.913    -0.035    28.870     8.811
    54   6 C        2.913    -0.035    28.870     8.811
    55   6 C        2.981     0.012    27.743     8.640
    56   6 C        2.924    -0.052    29.284     8.874
    57   6 C        2.998     0.000    28.012     8.682
    58   6 C        2.998     0.000    28.013     8.682
    59   1 H        0.925     0.035     2.515     2.480
    60   1 H        0.925     0.035     2.515     2.480
    61   1 H        0.925     0.033     2.546     2.495
    62   1 H        0.925     0.035     2.515     2.480
    63   1 H        0.925     0.033     2.547     2.496
    64   1 H        0.925     0.035     2.517     2.481
    65   1 H        0.925     0.034     2.528     2.486
    66   1 H        0.925     0.035     2.514     2.479
    67   1 H        0.925     0.035     2.515     2.480
    68   1 H        0.926     0.027     2.622     2.532
    69   1 H        0.926     0.024     2.674     2.557
    70   1 H        0.926     0.036     2.501     2.473
    71   1 H        0.926     0.036     2.501     2.473
    72   1 H        0.925     0.035     2.515     2.480
    73   1 H        0.925     0.033     2.546     2.495
    74   1 H        0.925     0.035     2.515     2.480
    75   1 H        0.925     0.034     2.528     2.486
    76   1 H        0.925     0.035     2.514     2.479
    77   1 H        0.925     0.035     2.515     2.480
    78   1 H        0.925     0.035     2.515     2.480
    79   1 H        0.925     0.035     2.517     2.481
    80   1 H        0.925     0.033     2.547     2.496
    81   1 H        0.926     0.027     2.622     2.532
    82   1 H        0.926     0.024     2.674     2.557
    83   1 H        0.926     0.041     2.431     2.438
    84   1 H        0.926     0.034     2.528     2.487
    85   1 H        0.926     0.034     2.529     2.487
    86   1 H        0.926     0.041     2.430     2.437
    87   1 H        0.926     0.024     2.669     2.555
    88   1 H        0.926     0.028     2.621     2.532
    89   1 H        0.925     0.035     2.515     2.480
    90   1 H        0.925     0.033     2.547     2.496
    91   1 H        0.925     0.035     2.516     2.481
    92   1 H        0.925     0.035     2.515     2.480
    93   1 H        0.925     0.033     2.546     2.495
    94   1 H        0.925     0.035     2.515     2.480
    95   1 H        0.925     0.034     2.527     2.486
    96   1 H        0.925     0.035     2.514     2.479
    97   1 H        0.925     0.035     2.515     2.480
    98   1 H        0.926     0.036     2.500     2.473
    99   1 H        0.926     0.036     2.500     2.473
   100   1 H        0.925     0.035     2.515     2.480
   101   1 H        0.925     0.033     2.546     2.495
   102   1 H        0.925     0.035     2.515     2.480
   103   1 H        0.925     0.035     2.515     2.480
   104   1 H        0.925     0.034     2.527     2.486
   105   1 H        0.925     0.035     2.514     2.479
   106   1 H        0.925     0.033     2.547     2.496
   107   1 H        0.925     0.035     2.516     2.481
   108   1 H        0.925     0.035     2.515     2.480
   109   1 H        0.926     0.028     2.621     2.532
   110   1 H        0.926     0.024     2.670     2.555
   111   1 H        0.926     0.041     2.430     2.437
   112   1 H        0.926     0.034     2.529     2.487
   113   1 H        0.926     0.034     2.528     2.487
   114   1 H        0.926     0.041     2.431     2.438

molecular dipole:
                 x           y           z       tot (Debye)
 q only:       -0.018       0.000       0.001
   full:       -0.018       0.000       0.001       0.046

 projected vibrational frequencies (cm⁻¹)
eigval :       -0.00    -0.00    -0.00     0.00     0.00     0.00
eigval :        7.87     9.00    13.75    22.33    26.41    31.04
eigval :       31.28    32.62    33.93    36.72    58.01    59.39
eigval :       62.01    69.75    78.08    84.35    85.19   107.90
eigval :      118.27   127.34   150.01   153.23   159.78   159.89
eigval :      165.51   173.77   177.12   190.90   191.68   193.41
eigval :      202.23   202.76   205.81   218.84   220.69   220.86
eigval :      223.09   229.01   229.72   233.02   239.87   259.01
eigval :      259.51   259.64   277.55   287.29   303.89   310.31
eigval :      316.12   317.53   317.77   321.95   322.30   335.78
eigval :      341.44   345.73   347.20   359.94   360.23   362.57
eigval :      368.05   371.40   374.55   386.53   398.12   401.20
eigval :      411.53   411.72   424.71   441.90   442.20   442.53
eigval :      443.05   449.15   454.68   462.11   465.81   465.89
eigval :      467.46   468.13   481.94   494.57   497.65   498.59
eigval :      501.04   508.76   518.89   534.80   555.24   558.63
eigval :      581.80   585.73   585.79   588.25   594.86   608.28
eigval :      636.67   639.77   639.79   645.21   645.55   648.70
eigval :      678.26   687.67   687.86   689.66   706.20   707.73
eigval :      710.93   716.47   720.29   754.20   756.89   764.95
eigval :      805.17   813.94   820.04   820.19   822.56   822.63
eigval :      823.05   831.62   837.32   839.04   852.79   859.04
eigval :      869.30   870.26   873.70   874.39   876.38   876.77
eigval :      885.37   891.39   915.63   915.99   916.65   917.68
eigval :      921.47   922.58   925.68   927.44   933.35   933.54
eigval :      960.22   960.23   960.30   960.30   962.85   962.86
eigval :      962.87   962.88   962.92   962.97   963.33   963.35
eigval :      989.77  1022.93  1023.03  1031.33  1032.41  1033.37
eigval :     1035.83  1035.83  1035.87  1035.89  1036.52  1038.87
eigval :     1042.17  1044.24  1115.23  1118.81  1125.34  1130.57
eigval :     1130.87  1137.36  1142.40  1157.26  1175.91  1177.18
eigval :     1180.48  1187.27  1189.14  1204.27  1205.85  1228.20
eigval :     1228.21  1228.32  1228.33  1228.83  1230.48  1232.69
eigval :     1232.75  1233.42  1236.05  1238.58  1238.69  1251.20
eigval :     1254.23  1266.42  1278.69  1285.28  1285.51  1304.14
eigval :     1311.10  1311.52  1312.23  1326.35  1327.43  1337.63
eigval :     1347.79  1348.27  1358.97  1359.37  1361.96  1390.29
eigval :     1390.84  1396.74  1402.76  1403.58  1404.65  1404.70
eigval :     1406.02  1406.06  1406.09  1406.09  1414.06  1415.24
eigval :     1429.48  1429.48  1429.57  1429.62  1431.17  1431.66
eigval :     1447.08  1458.23  1458.73  1472.93  1476.23  1484.23
eigval :     1485.20  1486.03  1486.07  1492.71  1492.71  1492.74
eigval :     1492.74  1495.45  1495.47  1495.49  1495.51  1501.93
eigval :     1501.96  1502.30  1502.31  1506.09  1506.10  1506.15
eigval :     1506.16  1515.10  1515.12  1515.30  1515.31  1520.56
eigval :     1520.58  1521.39  1521.40  1551.49  1559.84  1569.42
eigval :     1570.10  1582.07  1582.87  1584.09  1600.53  1605.23
eigval :     1605.63  1606.66  1618.22  1618.56  3020.17  3020.22
eigval :     3020.28  3020.33  3021.44  3021.48  3021.50  3021.54
eigval :     3026.56  3026.58  3026.59  3026.60  3028.68  3028.74
eigval :     3029.11  3029.28  3030.67  3030.69  3030.75  3030.77
eigval :     3035.30  3035.34  3035.54  3035.59  3037.64  3037.70
eigval :     3037.86  3037.98  3046.60  3046.60  3046.63  3046.66
eigval :     3049.96  3049.99  3050.07  3050.11  3068.14  3068.32
eigval :     3076.62  3077.00  3077.10  3077.46  3080.61  3081.54
eigval :     3087.62  3088.29  3088.44  3089.81  3091.00  3091.26
eigval :     3091.44  3091.71  3114.62  3114.67  3118.02  3118.09

   temp. (K)  partition function   enthalpy   heat capacity  entropy
                                   cal/mol     cal/K/mol   cal/K/mol   J/K/mol
 298.15  VIB  0.885E+24            31887.790    200.064    195.497
         ROT  0.121E+09              888.752      2.981     39.961
         INT  0.107E+33            32776.542    203.045    235.458
         TR   0.202E+29             1481.254      4.968     45.731
         TOT                       34257.7963   208.0129   281.1893  1176.4960

       T/K    H(0)-H(T)+PV         H(T)/Eh          T*S/Eh         G(T)/Eh
   ------------------------------------------------------------------------
    298.15    0.545933E-01    0.100401E+01    0.133602E+00    0.870405E+00
   ------------------------------------------------------------------------

         :::::::::::::::::::::::::::::::::::::::::::::::::::::
         ::                  THERMODYNAMIC                  ::
         :::::::::::::::::::::::::::::::::::::::::::::::::::::
         :: total free energy        -153.643169894039 Eh   ::
         ::.................................................::
         :: total energy             -154.513575187534 Eh   ::
         :: zero point energy           0.949414129519 Eh   ::
         :: G(RRHO) w/o ZPVE           -0.079008836025 Eh   ::
         :: G(RRHO) contrib.            0.870405293494 Eh   ::
         :::::::::::::::::::::::::::::::::::::::::::::::::::::

           -------------------------------------------------
          | TOTAL ENERGY             -154.513575187534 Eh   |
          | TOTAL ENTHALPY           -153.509567784551 Eh   |
          | TOTAL FREE ENERGY        -153.643169894039 Eh   |
          | GRADIENT NORM               0.000102488480 Eh/α |
          | HOMO-LUMO GAP               1.844110856321 eV   |
           -------------------------------------------------

 * finished run on 2025/09/07 at 21:02:00.130
