   * xtb version 6.7.1 (edcfbbe) compiled by 'albert@albert-system' on 2024-07-22

   ID    Z sym.   atoms
    1    6 C      1-20, 22-29, 31-58
    2    7 N      21, 30
    3    1 H      59-114

          program call               : xtb data2507/gas/PLQYs/PLQYs.xyz --gfn 2 --ohess vtight --parallel 40 --molden --ceasefiles --namespace data2507/gas/PLQYs/PLQYs_gas_S0_preOpt
          :  Hamiltonian                  GFN2-xTB          :
 * total energy  :  -154.4864127 Eh     change       -0.2537803E-08 Eh
 * total energy  :  -154.5048076 Eh     change       -0.1839489E-01 Eh
 * total energy  :  -154.5100051 Eh     change       -0.5197483E-02 Eh
 * total energy  :  -154.5112662 Eh     change       -0.1261115E-02 Eh
 * total energy  :  -154.5120510 Eh     change       -0.7848112E-03 Eh
 * total energy  :  -154.5123412 Eh     change       -0.2901724E-03 Eh
 * total energy  :  -154.5125152 Eh     change       -0.1739752E-03 Eh
 * total energy  :  -154.5126254 Eh     change       -0.1102335E-03 Eh
 * total energy  :  -154.5127068 Eh     change       -0.8141846E-04 Eh
 * total energy  :  -154.5127422 Eh     change       -0.3535112E-04 Eh
 * total energy  :  -154.5129709 Eh     change        0.8862034E-05 Eh
 * total energy  :  -154.5129800 Eh     change       -0.9100841E-05 Eh
 * total energy  :  -154.5129804 Eh     change       -0.3681358E-06 Eh
 * total energy  :  -154.5129801 Eh     change        0.2640778E-06 Eh
 * total energy  :  -154.5129806 Eh     change       -0.4616360E-06 Eh
 * total energy  :  -154.5129804 Eh     change        0.1485274E-06 Eh
 * total energy  :  -154.5129807 Eh     change       -0.3184314E-06 Eh
 * total energy  :  -154.5129807 Eh     change        0.4095926E-07 Eh
 * total energy  :  -154.5129808 Eh     change       -0.7242537E-07 Eh
   *** GEOMETRY OPTIMIZATION CONVERGED AFTER 42 ITERATIONS ***

 final structure:
================
114
 xtb: 6.7.1 (edcfbbe)
C            8.34828628089424        5.51743807458027       -0.27498139365197
C            8.86201677171652        4.07659478431835       -0.20892710987447
C            9.73125832254884        3.94002130031914        1.04931450353879
C            9.71459278416969        3.81839599421484       -1.45943904518347
C            7.74057912838076        3.04843205497413       -0.15155780966097
C            6.39032220611883        3.40821056075700       -0.17684396814742
C            5.36883544986510        2.47755710594726       -0.12027078242377
C            5.70612061794649        1.13811742907220       -0.02627512248898
C            7.06259014932299        0.74599131580412       -0.02524910378421
C            8.06558947709000        1.70017498347375       -0.08328305882088
C            7.07169082126222       -0.69018811975415        0.02651031461083
C            8.09368850352194       -1.62917401007915        0.06888680136830
C            7.78613830593885       -2.97776050811486        0.13987322054448
C            8.85294939084144       -4.06234226135544        0.18308751366627
C            8.66200428522997       -5.00536756596063       -1.01331681729353
C            8.71799701713822       -4.85069051690849        1.49355561465514
C           10.27308678981848       -3.49371242669950        0.11551198147526
C            6.43711790844680       -3.35435880473049        0.18503005360432
C            5.40161165970450       -2.44314327887879        0.14429345366448
C            5.72170114513905       -1.09798412220146        0.04596645362228
N            4.90302852291859        0.01449604428122        0.01569348588832
C            3.50348976989688        0.00498868053409        0.01953170083632
C            2.80702705366458        0.82017567499246        0.90528626467925
C            1.41450410392985        0.83137643716412        0.91659336593760
C            0.66964426317327        1.65792085151382        1.81031698495234
C           -0.68293596410269        1.65098820147620        1.81141522050757
C           -1.42074631808529        0.81770128402085        0.91808829776744
C           -2.81309160145212        0.79321001822391        0.90823209809754
C           -3.50296080479189       -0.02521408939034        0.02016002545015
N           -4.90237624887189       -0.02705109537394        0.01639337242495
C           -5.71275991233445       -1.14618137083543        0.03566128954707
C           -5.38520486902274       -2.48879900730945        0.11876798687726
C           -6.41305534046101       -3.41368273403822        0.14892391227028
C           -7.76058377429882       -3.04527362747903        0.10805278891492
C           -8.88894400097675       -4.06714386131345        0.13206931971374
C           -8.38503974323173       -5.51187199100657        0.18806917549497
C           -9.76281400838424       -3.82044189251872        1.37009309109222
C           -9.73411449466682       -3.90834948455981       -1.13993609185515
C           -8.07629102170501       -1.69419042615353        0.05361108257660
C           -7.06671873770836       -0.74574404876106        0.02199494559505
C           -7.06665308656874        0.69095461917002       -0.01273302347679
C           -8.08279152782242        1.63625373278812       -0.05583210717796
C           -7.76686512170513        2.98375166650912       -0.10796971259744
C           -8.82683936137171        4.07503929425540       -0.14959245709696
C           -8.64265093487854        5.00285740087368        1.05967638252065
C           -8.67377266659535        4.87771525482517       -1.44929573870278
C          -10.25078863177600        3.51394518271086       -0.10313326582837
C           -6.41530166201094        3.35276023650829       -0.13487323662657
C           -5.38554351335976        2.43508465579334       -0.09292669254538
C           -5.71416358850348        1.09079286542836       -0.01201542997539
C           -2.80612352219077       -0.84072751724017       -0.86512916838095
C           -1.41367023832381       -0.85675004793248       -0.87184945549577
C           -0.66889183473430       -1.68515629321923       -1.76392301342264
C            0.68367815284242       -1.68030910810174       -1.76314485831173
C            1.42149029119931       -0.84577777474845       -0.87099029351481
C            2.81377774588895       -0.81897109123594       -0.86342120819911
C            0.70688265794219       -0.01065601687138        0.02325926066692
C           -0.70601316220112       -0.01678255493517        0.02337274239609
H            9.19410041237074        6.20170783423137       -0.30593378058875
H            7.75173322098676        5.76149524724052        0.60106106007325
H            7.75273984623661        5.68096599913450       -1.17019686097151
H            9.12942542509502        4.10410221672899        1.94088804957190
H           10.17714781123849        2.95176105043660        1.11776669933317
H           10.53337280466988        4.67519650525451        1.03386063273068
H           10.51341919485233        4.55407096793327       -1.52845279921492
H           10.16402316526476        2.82964290744070       -1.43536041714893
H            9.09973792763433        3.89081237822415       -2.35427015858700
H            6.11161089433213        4.44659954277882       -0.24743875492979
H            4.33783877751505        2.79623001696007       -0.16233815143407
H            9.09469302381321        1.37527834589339       -0.07979148849066
H            9.11324338310271       -1.28186067448725        0.05019189208341
H            9.42947429416675       -5.77679183475323       -1.00957571167937
H            7.69125243680067       -5.49230673174726       -0.98444400768353
H            8.73634491626820       -4.44863535998318       -1.94532028454547
H            9.48756543278461       -5.61787581648462        1.55123962295211
H            8.83033144931546       -4.18357924423524        2.34584267940939
H            7.74855364643676       -5.33557889514102        1.56718871040297
H           10.42810909013697       -2.93798875849349       -0.80648884216031
H           10.99231527866352       -4.31014598481350        0.14071930816356
H           10.47484603821595       -2.84324308883837        0.96345936583992
H            6.18219647180283       -4.40068301953660        0.25927384209285
H            4.37553280297330       -2.77503164207064        0.20102489328381
H            3.35305456940374        1.43921202260994        1.60186680131114
H            1.21880432806520        2.29350038306382        2.49045886860751
H           -1.23744558440586        2.28079843190010        2.49259012050294
H           -3.36392596214714        1.40470052892430        1.60766970363424
H           -4.35700956709045       -2.81470515697043        0.17206051027580
H           -6.14168370580543       -4.45458779665118        0.21054601434910
H           -7.80610862456195       -5.69070610405980        1.09122194511240
H           -7.77483619310055       -5.74820176059847       -0.68065685488415
H           -9.23532295381129       -6.19124484776850        0.19535414214017
H           -9.16491680697102       -3.90822944629916        2.27497228552271
H          -10.20632349528702       -2.82892158349950        1.35095844919983
H          -10.56684806972694       -4.55231795967937        1.41468245696321
H          -10.54098232542875       -4.63841105157486       -1.14898019961642
H           -9.11704899199900       -4.06454594487452       -2.02247267692420
H          -10.17236135303444       -2.91633194849517       -1.20334187517664
H           -9.10320846246558       -1.36274209924895        0.03973942057430
H           -9.10443092868364        1.29463083966159       -0.05242435069797
H           -8.72983623196633        4.43580177966683        1.98429051125543
H           -7.66884698060445        5.48429743377793        1.04641955587592
H           -9.40551198564220        5.77881863374716        1.05709492214341
H           -7.70092222955927        5.35783353024725       -1.50725956357922
H           -9.43833808644235        5.64994001367416       -1.50589994929245
H           -8.78103451971140        4.22124873986941       -2.31043006826249
H          -10.44767551459353        2.87474029183905       -0.96072021420217
H          -10.96495145731570        4.33486343855172       -0.12592234751271
H          -10.41839985034894        2.94831958747645        0.81058798164519
H           -6.15349231971739        4.39827532275609       -0.19519136224212
H           -4.35722901365573        2.76197102811362       -0.13582598617151
H           -3.35164839727524       -1.45559029432424       -1.56573953873069
H           -1.21811433793202       -2.32037741622968       -2.44435074143767
H            1.23821647921585       -2.31161713816993       -2.44289744451684
H            3.36477694350928       -1.43171047592785       -1.56168375479199

          :  Hamiltonian                  GFN2-xTB          :
         :: gradient norm              0.000078388796 Eh/a0 ::
         :: HOMO-LUMO gap              1.836637663878 eV    ::
         :: SCC energy              -157.267171870374 Eh    ::
         :: -> dispersion             -0.147259695568 Eh    ::
         :: repulsion energy           2.754191102451 Eh    ::

    * Orbital Energies and Occupations

         #    Occupation            Energy/Eh            Energy/eV
      -------------------------------------------------------------
         1        2.0000           -0.6688063             -18.1991
       ...           ...                  ...                  ...
       133        2.0000           -0.4101177             -11.1599
       134        2.0000           -0.4045662             -11.0088
       135        2.0000           -0.4042907             -11.0013
       136        2.0000           -0.4028440             -10.9619
       137        2.0000           -0.4026635             -10.9570
       138        2.0000           -0.3956949             -10.7674
       139        2.0000           -0.3911614             -10.6440
       140        2.0000           -0.3910650             -10.6414
       141        2.0000           -0.3723377             -10.1318
       142        2.0000           -0.3690932             -10.0435
       143        2.0000           -0.3690160             -10.0414
       144        2.0000           -0.3541519              -9.6370
       145        2.0000           -0.3501658              -9.5285 (HOMO)
       146                         -0.2826706              -7.6919 (LUMO)
       147                         -0.2499956              -6.8027
       148                         -0.2362167              -6.4278
       149                         -0.2345730              -6.3831
       150                         -0.2256409              -6.1400
       151                         -0.2131416              -5.7999
       152                         -0.2130535              -5.7975
       153                         -0.2072466              -5.6395
       154                         -0.2023909              -5.5073
       155                         -0.1846353              -5.0242
       156                         -0.1780413              -4.8447
       ...                                ...                  ...
       288                          0.7510989              20.4384
      -------------------------------------------------------------
                  HL-Gap            0.0674952 Eh            1.8366 eV

     #   Z          covCN         q      C6AA      α(0)
     1   6 C        3.761    -0.106    22.578     6.774
     2   6 C        3.903     0.026    20.088     6.371
     3   6 C        3.762    -0.105    22.548     6.769
     4   6 C        3.762    -0.105    22.547     6.769
     5   6 C        2.972    -0.003    28.087     8.693
     6   6 C        2.928    -0.044    29.094     8.846
     7   6 C        2.909    -0.054    29.351     8.884
     8   6 C        3.078     0.043    26.956     8.512
     9   6 C        3.067    -0.020    28.432     8.743
    10   6 C        2.920    -0.040    28.986     8.829
    11   6 C        3.067    -0.020    28.444     8.745
    12   6 C        2.918    -0.044    29.084     8.844
    13   6 C        2.973    -0.003    28.088     8.693
    14   6 C        3.903     0.026    20.087     6.371
    15   6 C        3.762    -0.105    22.548     6.769
    16   6 C        3.761    -0.105    22.548     6.769
    17   6 C        3.761    -0.106    22.578     6.774
    18   6 C        2.931    -0.040    28.982     8.829
    19   6 C        2.908    -0.054    29.336     8.881
    20   6 C        3.079     0.043    26.950     8.511
    21   7 N        2.803    -0.047    22.141     6.989
    22   6 C        2.907     0.064    26.561     8.451
    23   6 C        2.924    -0.052    29.286     8.875
    24   6 C        2.981     0.012    27.743     8.640
    25   6 C        2.913    -0.035    28.870     8.811
    26   6 C        2.913    -0.035    28.870     8.811
    27   6 C        2.981     0.012    27.743     8.640
    28   6 C        2.924    -0.052    29.289     8.875
    29   6 C        2.907     0.064    26.562     8.451
    30   7 N        2.803    -0.047    22.138     6.988
    31   6 C        3.077     0.043    26.957     8.512
    32   6 C        2.909    -0.054    29.351     8.884
    33   6 C        2.928    -0.044    29.094     8.846
    34   6 C        2.972    -0.003    28.086     8.693
    35   6 C        3.903     0.026    20.087     6.371
    36   6 C        3.761    -0.106    22.578     6.774
    37   6 C        3.762    -0.105    22.548     6.769
    38   6 C        3.762    -0.105    22.548     6.769
    39   6 C        2.920    -0.040    28.986     8.829
    40   6 C        3.067    -0.020    28.431     8.743
    41   6 C        3.067    -0.020    28.443     8.745
    42   6 C        2.918    -0.044    29.084     8.844
    43   6 C        2.973    -0.003    28.087     8.693
    44   6 C        3.903     0.026    20.087     6.371
    45   6 C        3.762    -0.105    22.548     6.769
    46   6 C        3.761    -0.105    22.548     6.769
    47   6 C        3.761    -0.106    22.578     6.774
    48   6 C        2.931    -0.040    28.983     8.829
    49   6 C        2.908    -0.054    29.336     8.881
    50   6 C        3.079     0.043    26.950     8.511
    51   6 C        2.924    -0.052    29.288     8.875
    52   6 C        2.981     0.012    27.743     8.640
    53   6 C        2.913    -0.035    28.870     8.811
    54   6 C        2.913    -0.035    28.870     8.811
    55   6 C        2.981     0.012    27.743     8.640
    56   6 C        2.924    -0.052    29.286     8.875
    57   6 C        2.998     0.000    28.012     8.682
    58   6 C        2.998     0.000    28.013     8.682
    59   1 H        0.925     0.034     2.525     2.485
    60   1 H        0.925     0.035     2.522     2.484
    61   1 H        0.925     0.035     2.522     2.483
    62   1 H        0.925     0.033     2.551     2.498
    63   1 H        0.925     0.036     2.505     2.475
    64   1 H        0.925     0.035     2.518     2.482
    65   1 H        0.925     0.035     2.517     2.481
    66   1 H        0.925     0.036     2.506     2.475
    67   1 H        0.925     0.033     2.550     2.497
    68   1 H        0.926     0.034     2.524     2.485
    69   1 H        0.926     0.024     2.673     2.557
    70   1 H        0.926     0.029     2.597     2.520
    71   1 H        0.926     0.036     2.509     2.477
    72   1 H        0.925     0.035     2.516     2.481
    73   1 H        0.925     0.035     2.514     2.480
    74   1 H        0.925     0.033     2.546     2.495
    75   1 H        0.925     0.035     2.514     2.480
    76   1 H        0.925     0.033     2.546     2.495
    77   1 H        0.925     0.035     2.514     2.480
    78   1 H        0.925     0.035     2.515     2.480
    79   1 H        0.925     0.034     2.527     2.486
    80   1 H        0.925     0.035     2.517     2.481
    81   1 H        0.926     0.028     2.620     2.531
    82   1 H        0.926     0.024     2.671     2.556
    83   1 H        0.926     0.041     2.431     2.438
    84   1 H        0.926     0.034     2.529     2.487
    85   1 H        0.926     0.034     2.529     2.487
    86   1 H        0.926     0.041     2.431     2.438
    87   1 H        0.926     0.024     2.672     2.556
    88   1 H        0.926     0.034     2.524     2.484
    89   1 H        0.925     0.035     2.521     2.483
    90   1 H        0.925     0.035     2.522     2.484
    91   1 H        0.925     0.034     2.524     2.485
    92   1 H        0.925     0.033     2.549     2.497
    93   1 H        0.925     0.036     2.506     2.475
    94   1 H        0.925     0.035     2.517     2.481
    95   1 H        0.925     0.035     2.518     2.481
    96   1 H        0.925     0.033     2.551     2.498
    97   1 H        0.925     0.036     2.505     2.475
    98   1 H        0.926     0.029     2.597     2.520
    99   1 H        0.926     0.036     2.508     2.477
   100   1 H        0.925     0.033     2.546     2.495
   101   1 H        0.925     0.035     2.514     2.480
   102   1 H        0.925     0.035     2.516     2.480
   103   1 H        0.925     0.035     2.514     2.480
   104   1 H        0.925     0.035     2.514     2.480
   105   1 H        0.925     0.033     2.546     2.495
   106   1 H        0.925     0.035     2.517     2.481
   107   1 H        0.925     0.034     2.527     2.486
   108   1 H        0.925     0.035     2.515     2.480
   109   1 H        0.926     0.028     2.620     2.531
   110   1 H        0.926     0.024     2.669     2.555
   111   1 H        0.926     0.041     2.431     2.438
   112   1 H        0.926     0.034     2.529     2.487
   113   1 H        0.926     0.034     2.529     2.487
   114   1 H        0.926     0.041     2.431     2.438

molecular dipole:
                 x           y           z       tot (Debye)
 q only:       -0.008       0.000      -0.001
   full:       -0.008      -0.000      -0.002       0.021

 projected vibrational frequencies (cm⁻¹)
eigval :       -0.00    -0.00     0.00     0.00     0.00     0.00
eigval :        7.88     9.09    13.69    22.08    26.47    30.98
eigval :       31.00    32.21    32.64    36.64    57.12    60.23
eigval :       64.39    71.51    78.17    80.16    82.03   108.43
eigval :      121.37   124.81   150.71   151.73   157.99   160.84
eigval :      165.11   174.54   177.28   186.85   187.83   190.98
eigval :      194.13   196.57   203.49   217.59   217.69   221.71
eigval :      224.59   225.39   239.73   239.84   242.28   261.38
eigval :      266.77   267.04   290.43   295.96   302.95   303.55
eigval :      315.63   316.79   319.62   319.80   325.70   325.81
eigval :      337.88   345.01   347.88   357.12   357.45   365.87
eigval :      368.37   371.66   374.76   385.79   398.62   401.69
eigval :      411.92   412.00   424.41   442.43   442.93   443.96
eigval :      444.19   449.04   456.77   462.25   465.92   466.89
eigval :      467.21   468.56   482.01   494.61   497.65   498.51
eigval :      500.95   508.72   518.69   534.32   554.44   558.29
eigval :      582.21   584.59   586.07   587.15   594.57   608.05
eigval :      635.72   639.33   639.34   644.35   645.35   648.75
eigval :      678.16   687.72   687.87   688.94   706.03   707.84
eigval :      710.58   716.30   720.07   754.22   756.69   764.91
eigval :      804.95   813.83   817.48   819.27   820.46   821.78
eigval :      822.87   831.51   837.78   839.33   852.93   859.27
eigval :      871.40   872.27   873.82   874.47   880.98   881.61
eigval :      885.68   890.82   910.20   910.75   916.40   916.98
eigval :      921.36   922.54   925.69   927.45   932.26   932.35
eigval :      959.98   960.00   960.32   960.34   962.51   962.52
eigval :      962.58   962.59   962.93   962.98   963.12   963.15
eigval :      989.76  1022.89  1023.16  1031.90  1032.94  1034.80
eigval :     1035.89  1035.92  1035.94  1035.96  1036.33  1038.79
eigval :     1040.73  1043.24  1115.68  1119.20  1125.34  1131.16
eigval :     1131.37  1137.58  1142.69  1157.31  1176.88  1178.82
eigval :     1181.06  1189.18  1191.07  1204.34  1205.90  1226.04
eigval :     1227.15  1227.92  1227.93  1228.29  1228.31  1232.73
eigval :     1232.88  1234.92  1236.24  1238.50  1241.17  1252.92
eigval :     1254.51  1266.79  1279.51  1285.82  1285.98  1301.39
eigval :     1306.02  1310.57  1311.73  1326.31  1327.20  1337.70
eigval :     1346.97  1348.69  1358.28  1363.91  1365.20  1390.08
eigval :     1390.82  1396.72  1402.64  1403.56  1404.49  1404.56
eigval :     1405.94  1405.96  1406.07  1406.11  1414.12  1415.36
eigval :     1429.06  1429.27  1429.54  1429.57  1430.82  1431.36
eigval :     1447.03  1457.97  1458.57  1472.70  1474.59  1476.79
eigval :     1478.77  1484.85  1485.34  1492.60  1492.60  1492.71
eigval :     1492.73  1495.33  1495.34  1495.45  1495.49  1502.05
eigval :     1502.08  1502.97  1502.98  1506.01  1506.02  1506.29
eigval :     1506.29  1515.25  1515.27  1515.76  1515.77  1520.96
eigval :     1521.01  1521.04  1521.09  1551.51  1559.84  1570.45
eigval :     1571.10  1582.95  1585.01  1585.31  1600.55  1605.57
eigval :     1605.96  1606.68  1619.74  1620.06  3019.76  3019.78
eigval :     3020.05  3020.23  3021.33  3021.37  3021.38  3021.54
eigval :     3026.24  3026.43  3026.46  3026.46  3028.54  3028.62
eigval :     3028.93  3029.13  3030.43  3030.60  3030.62  3030.66
eigval :     3035.02  3035.17  3035.27  3035.31  3037.44  3037.52
eigval :     3037.68  3037.73  3046.38  3046.60  3047.22  3047.23
eigval :     3049.80  3050.02  3050.72  3050.73  3068.14  3068.32
eigval :     3076.97  3077.27  3079.37  3079.53  3080.64  3081.56
eigval :     3087.82  3088.14  3088.24  3088.32  3088.59  3089.85
eigval :     3091.27  3091.42  3116.13  3116.16  3117.83  3117.86

   temp. (K)  partition function   enthalpy   heat capacity  entropy
                                   cal/mol     cal/K/mol   cal/K/mol   J/K/mol
 298.15  VIB  0.967E+24            31891.848    200.036    195.591
         ROT  0.241E+09              888.752      2.981     41.335
         INT  0.233E+33            32780.601    203.017    236.926
         TR   0.202E+29             1481.254      4.968     45.731
         TOT                       34261.8546   207.9851   282.6567  1182.6357

       T/K    H(0)-H(T)+PV         H(T)/Eh          T*S/Eh         G(T)/Eh
   ------------------------------------------------------------------------
    298.15    0.545997E-01    0.100399E+01    0.134299E+00    0.869690E+00
   ------------------------------------------------------------------------

         :::::::::::::::::::::::::::::::::::::::::::::::::::::
         ::                  THERMODYNAMIC                  ::
         :::::::::::::::::::::::::::::::::::::::::::::::::::::
         :: total free energy        -153.643290430326 Eh   ::
         ::.................................................::
         :: total energy             -154.512980767920 Eh   ::
         :: zero point energy           0.949389924937 Eh   ::
         :: G(RRHO) w/o ZPVE           -0.079699587343 Eh   ::
         :: G(RRHO) contrib.            0.869690337594 Eh   ::
         :::::::::::::::::::::::::::::::::::::::::::::::::::::

           -------------------------------------------------
          | TOTAL ENERGY             -154.512980767920 Eh   |
          | TOTAL ENTHALPY           -153.508991102326 Eh   |
          | TOTAL FREE ENERGY        -153.643290430326 Eh   |
          | GRADIENT NORM               0.000078381265 Eh/α |
          | HOMO-LUMO GAP               1.836637527630 eV   |
           -------------------------------------------------

 * finished run on 2025/09/07 at 20:45:37.814
