   * xtb version 6.7.1 (edcfbbe) compiled by 'albert@albert-system' on 2024-07-22

   ID    Z sym.   atoms
    1    6 C      1-20, 22-29, 31-58
    2    7 N      21, 30
    3    1 H      59-114

          program call               : xtb data2507/gas/PLQYs/PLQYs_gas_S0_finalOpt.xtbopt.xyz --gfn 2 --spinpol --tblite --uhf 2 --ohess vtight --parallel 40 --molden --ceasefiles --namespace data2507/gas/PLQYs/PLQYs_gas_T1_preOpt
 * total energy  :  -154.4336559 Eh     change       -0.8634581E-07 Eh
 * total energy  :  -154.4387766 Eh     change       -0.5120678E-02 Eh
 * total energy  :  -154.4401913 Eh     change       -0.1414709E-02 Eh
 * total energy  :  -154.4402490 Eh     change       -0.5777090E-04 Eh
 * total energy  :  -154.4402803 Eh     change       -0.3124647E-04 Eh
 * total energy  :  -154.4402876 Eh     change       -0.7277631E-05 Eh
 * total energy  :  -154.4402898 Eh     change       -0.2272594E-05 Eh
 * total energy  :  -154.4402912 Eh     change       -0.1384833E-05 Eh
 * total energy  :  -154.4402923 Eh     change       -0.1094330E-05 Eh
 * total energy  :  -154.4402935 Eh     change       -0.1161915E-05 Eh
 * total energy  :  -154.4402952 Eh     change       -0.2186545E-06 Eh
 * total energy  :  -154.4402954 Eh     change       -0.2549061E-06 Eh
 * total energy  :  -154.4402957 Eh     change       -0.2744862E-06 Eh
 * total energy  :  -154.4402959 Eh     change       -0.2424522E-06 Eh
 * total energy  :  -154.4402962 Eh     change       -0.2419464E-06 Eh
 * total energy  :  -154.4402964 Eh     change       -0.2292502E-06 Eh
 * total energy  :  -154.4402966 Eh     change       -0.1821536E-06 Eh
 * total energy  :  -154.4402967 Eh     change       -0.1338194E-06 Eh
 * total energy  :  -154.4402967 Eh     change       -0.2677609E-08 Eh
   *** GEOMETRY OPTIMIZATION CONVERGED AFTER 22 ITERATIONS ***

 final structure:
================
114
 xtb: 6.7.1 (edcfbbe)
C            8.69242174687250        4.88163310924992       -1.52176380165474
C            8.84456448925355        4.09992345014935       -0.20907244455927
C            8.65710072325799        5.04670964764286        0.98500226100449
C           10.26906461950845        3.54120759163595       -0.15168809356071
C            7.78541097113075        3.00915094606005       -0.15209596665402
C            6.43337424646094        3.37710409271901       -0.18919004167175
C            5.40457014713428        2.45932295507391       -0.13799385929923
C            5.73541684254378        1.11600916801393       -0.03708513553347
C            7.08941010055767        0.71661440502052       -0.02220374062355
C            8.10384741408722        1.66176616095026       -0.07565516102003
C            7.08733403045712       -0.72006449740176        0.03843293593663
C            8.09898952328906       -1.66798122532237        0.09556714901088
C            7.77660319507032       -3.01445950696259        0.17140800557600
C            8.83254951335428       -4.10810158355771        0.23271774761290
C            8.67351230114419       -4.88865892093238        1.54528390383280
C           10.25877357229804       -3.55332203056282        0.18019687268507
C            8.64680924225494       -5.05503483731519       -0.96150321218504
C            6.42344580253810       -3.37869423640366        0.20394267965217
C            5.39734309537964       -2.45811046368129        0.14901431640186
C            5.73220713724201       -1.11573181895245        0.04896089551714
N            4.92587540115411        0.00125684133763        0.00457160871263
C            3.52187885392273        0.00311636747414        0.00371329419062
C            2.83882666637935        0.81543030146726        0.89677898530837
C            1.41465992637726        0.83904289923279        0.90922736562509
C            0.69743648108711        1.64554987133420        1.79326452126834
C           -0.69381893273933        1.64428762488998        1.79533018640648
C           -1.41217879440648        0.83799509595362        0.91201057795723
C           -2.83632649539482        0.81284215404675        0.90289529280789
C           -3.52113293058247        0.00767978487207        0.00448079641583
N           -4.92482576352938        0.00771722737116        0.00564935291854
C           -5.73306750072860       -1.10899412029470        0.02501518985222
C           -5.40124222500581       -2.45407248558710        0.09540845256933
C           -6.42912907227532       -3.37384838660382        0.12540292537821
C           -7.78153983154662       -3.00667579883683        0.09721207224553
C           -8.83955859527582       -4.09965182555916        0.12479132273121
C           -8.65121291971323       -5.01252516416024       -1.09530932123000
C           -8.68647517271909       -4.91754872185033        1.41509215614047
C          -10.26460735417757       -3.54095054444158        0.08313802693504
C           -8.10114778507800       -1.65810855301198        0.05486839951252
C           -7.08755121022170       -0.71109840047023        0.02297334678974
C           -7.08759328051815        0.72656198466973       -0.00310721371822
C           -8.10127623749655        1.67361585975322       -0.03063187028314
C           -7.78178826015583        3.02218331146627       -0.07390264072595
C           -8.83987390184644        4.11520652929638       -0.09662183284300
C           -8.69300588381041        4.93269704858818       -1.38789661548899
C          -10.26472888041743        3.55658941049952       -0.04780534661766
C           -8.64557846911839        5.02844775637904        1.12227500279325
C           -6.42949200734095        3.38931312723336       -0.10774914581865
C           -5.40152613665115        2.46949583515159       -0.08211503155231
C           -5.73312114180383        1.12442319494302       -0.01047022409888
C           -2.83763377720910       -0.79768269748416       -0.89473193501838
C           -1.41349434086525       -0.82388469770906       -0.90492651397977
C           -0.69634778642543       -1.63076210174900       -1.78870352323384
C            0.69491488063566       -1.63381687003218       -1.78695588392529
C            1.41340665395881       -0.82856954239785       -0.90279004594580
C            2.83762014853583       -0.80760355234401       -0.88988259254038
C            0.70594586886917        0.00574751072127        0.00324049160588
C           -0.70459930168960        0.00665363305373        0.00340227926058
H            9.45693859446262        5.65290690659256       -1.58957223449292
H            7.71966993832056        5.36065600127191       -1.58859341357997
H            8.80095693007491        4.21162953777881       -2.37220974065550
H            7.68326210657090        5.52758959354453        0.96201747776925
H            8.74254230100366        4.49454025161865        1.91869896291284
H            9.41978553030729        5.82263802830176        0.97150601564794
H           10.98208306621605        4.36256137918872       -0.18789272426611
H           10.43683300143154        2.99171093904610        0.77175475071448
H           10.46773886666033        2.88780121935930       -0.99806340343163
H            6.17168127454547        4.42143958425580       -0.26545756156146
H            4.37503144798336        2.78079438558759       -0.18663200569515
H            9.12630629254165        1.32299841569833       -0.06113161914530
H            9.12241711651400       -1.33202058800606        0.08443416431035
H            9.43573986144994       -5.66190183518581        1.61635375449507
H            8.78066963259350       -4.21845270668161        2.39574588162978
H            7.69926198783825       -5.36508089319516        1.60879499267144
H           10.96939998955433       -4.37661171803320        0.21933741598983
H           10.43136810292186       -3.00471337030997       -0.74288393379503
H           10.45619356906001       -2.90007211109178        1.02698677927650
H            7.67149685063824       -5.53306856474043       -0.94189616476839
H            9.40717773755133       -5.83316888665551       -0.94469337922161
H            8.73735890433697       -4.50366612944426       -1.89519069776364
H            6.15862538514842       -4.42228387210366        0.27961697596518
H            4.36677627784254       -2.77675911233853        0.19429603089099
H            3.38189266986744        1.41767825429340        1.60857928025804
H            1.23438100181770        2.27903195672742        2.48436783667617
H           -1.22983790773014        2.27643328785858        2.48837817016542
H           -3.37775768554227        1.40897084374353        1.62099207074994
H           -4.37165558288060       -2.77623817302184        0.13702230920172
H           -6.16623489512359       -4.41940472102297        0.17680489338715
H           -7.67656042765990       -5.49223762769215       -1.08611149942336
H           -8.73791216864730       -4.43465731357583       -2.01321246254300
H           -9.41267993746028       -5.78972305144582       -1.10318223595995
H           -7.71360581191876       -5.39804797633038        1.46806983069617
H           -8.79478727540295       -4.27155911037201        2.28393976889646
H           -9.45073679833706       -5.69064372954588        1.46171990903863
H          -10.97683264294610       -4.36366726958026        0.09717245980655
H          -10.43325807024759       -2.96667635576221       -0.82493965667371
H          -10.46355526625587       -2.91101392170178        0.94706340304371
H           -9.12387666759863       -1.31988649330486        0.05004212198868
H           -9.12399112308239        1.33543703506818       -0.02165761530132
H           -7.72023801296164        5.41283155071253       -1.44586415636489
H           -8.80587933872367        4.28650080065698       -2.25600975641449
H           -9.45723633644321        5.70603229916293       -1.43091133782496
H          -10.46809183042736        2.92667596832378       -0.91071659950247
H          -10.97696743018334        4.37934819711699       -0.05824054129418
H          -10.42881010198338        2.98231292258172        0.86110983063241
H           -8.72753325865478        4.45080830972587        2.04075747716014
H           -9.40717182252416        5.80547672004323        1.13377072928569
H           -7.67110996659828        5.50840516491256        1.10806083502523
H           -6.16678098746025        4.43486626525349       -0.16014395750332
H           -4.37209567134872        2.79160498374174       -0.12788905628484
H           -3.38005839844654       -1.39349884243405       -1.61233684852340
H           -1.23331706753299       -2.26214086425593       -2.48171595553467
H            1.23086592355500       -2.26792025088737       -2.47826135635516
H            3.37980818237907       -1.41093979112189       -1.60142942957052

 projected vibrational frequencies (cm⁻¹)
eigval :       -0.00     0.00     0.00     0.00     0.00     0.00
eigval :        7.50     8.08    14.21    21.87    25.04    30.65
eigval :       30.83    31.79    33.41    35.49    58.87    58.97
eigval :       61.03    67.57    78.03    83.83    84.40   107.62
eigval :      117.39   125.64   148.33   148.97   158.56   158.90
eigval :      162.93   171.94   172.93   186.94   190.81   192.77
eigval :      199.81   202.22   205.72   215.30   218.45   220.03
eigval :      220.75   222.54   228.10   229.77   231.79   258.27
eigval :      258.41   260.20   277.99   286.73   304.04   311.64
eigval :      315.47   317.68   318.06   322.24   322.58   335.46
eigval :      341.19   344.91   346.01   358.61   359.14   359.84
eigval :      362.25   370.76   374.44   382.78   396.28   398.49
eigval :      408.94   409.21   417.46   423.63   438.25   441.45
eigval :      441.95   442.39   444.99   454.46   460.23   465.41
eigval :      465.83   466.24   466.70   489.11   496.49   497.78
eigval :      501.13   502.87   514.28   528.89   531.96   551.15
eigval :      582.24   582.66   586.77   587.15   587.45   590.59
eigval :      612.82   631.39   635.66   640.23   640.26   645.55
eigval :      664.29   687.24   689.17   689.37   706.30   708.77
eigval :      710.57   712.61   718.36   741.39   751.42   753.98
eigval :      762.07   765.10   766.84   799.19   800.03   809.58
eigval :      812.71   819.38   823.27   824.29   827.64   828.54
eigval :      836.95   838.83   866.39   867.15   870.83   870.99
eigval :      872.37   872.55   873.27   873.81   915.22   915.54
eigval :      915.69   915.94   924.94   926.06   931.83   932.26
eigval :      957.14   959.99   960.02   960.07   960.09   962.69
eigval :      962.73   962.83   962.86   962.86   962.88   963.07
eigval :      963.12  1015.91  1022.13  1030.51  1031.94  1033.08
eigval :     1035.13  1035.18  1035.18  1035.24  1036.35  1040.66
eigval :     1041.57  1043.16  1113.46  1115.01  1128.76  1129.07
eigval :     1133.16  1138.58  1142.40  1149.17  1160.35  1171.16
eigval :     1172.10  1174.69  1181.78  1185.82  1201.99  1206.29
eigval :     1220.76  1226.75  1227.37  1227.38  1227.46  1227.47
eigval :     1231.23  1231.49  1231.53  1232.69  1236.38  1236.47
eigval :     1241.62  1250.15  1258.88  1264.34  1264.50  1282.77
eigval :     1284.30  1298.64  1300.13  1302.08  1306.07  1311.08
eigval :     1332.12  1339.27  1346.75  1348.33  1353.07  1356.27
eigval :     1357.25  1375.24  1390.30  1400.29  1401.78  1402.22
eigval :     1404.18  1404.24  1405.37  1405.47  1405.52  1405.54
eigval :     1405.83  1412.46  1413.65  1427.50  1427.54  1427.55
eigval :     1427.65  1439.63  1441.61  1442.27  1469.74  1473.54
eigval :     1473.67  1482.32  1483.18  1484.26  1491.80  1491.83
eigval :     1491.84  1491.86  1494.14  1494.17  1494.24  1494.40
eigval :     1495.78  1500.82  1500.86  1500.86  1500.99  1501.06
eigval :     1505.12  1505.17  1505.18  1505.27  1511.41  1514.38
eigval :     1514.42  1514.59  1514.63  1519.84  1519.86  1520.63
eigval :     1520.83  1547.12  1564.90  1564.98  1578.99  1579.20
eigval :     1592.23  1592.33  1605.55  1609.77  3021.07  3021.09
eigval :     3021.21  3021.23  3022.60  3022.62  3022.63  3022.65
eigval :     3026.95  3026.96  3026.97  3026.99  3029.30  3029.37
eigval :     3029.40  3029.86  3031.01  3031.01  3031.08  3031.11
eigval :     3035.46  3035.47  3035.69  3035.71  3037.91  3038.03
eigval :     3038.05  3038.35  3047.58  3047.67  3047.68  3047.69
eigval :     3050.76  3050.85  3050.88  3050.99  3071.00  3071.12
eigval :     3080.72  3080.93  3080.97  3081.18  3082.29  3082.65
eigval :     3092.97  3093.06  3093.20  3093.45  3094.34  3094.81
eigval :     3095.10  3096.42  3115.20  3115.22  3118.54  3118.79

   temp. (K)  partition function   enthalpy   heat capacity  entropy
                                   cal/mol     cal/K/mol   cal/K/mol   J/K/mol
 298.15  VIB  0.177E+25            32192.610    201.963    197.454
         ROT  0.121E+09              888.752      2.981     39.970
         INT  0.215E+33            33081.363    204.944    237.424
         TR   0.202E+29             1481.254      4.968     45.731
         TOT                       34562.6166   209.9119   283.1552  1184.7214

       T/K    H(0)-H(T)+PV         H(T)/Eh          T*S/Eh         G(T)/Eh
   ------------------------------------------------------------------------
    298.15    0.550790E-01    0.999775E+00    0.134536E+00    0.865239E+00
   ------------------------------------------------------------------------

         :::::::::::::::::::::::::::::::::::::::::::::::::::::
         ::                  THERMODYNAMIC                  ::
         :::::::::::::::::::::::::::::::::::::::::::::::::::::
         :: total free energy        -153.575057475746 Eh   ::
         ::.................................................::
         :: total energy             -154.440296719516 Eh   ::
         :: zero point energy           0.944696389449 Eh   ::
         :: G(RRHO) w/o ZPVE           -0.079457145679 Eh   ::
         :: G(RRHO) contrib.            0.865239243770 Eh   ::
         :::::::::::::::::::::::::::::::::::::::::::::::::::::

           -------------------------------------------------
          | TOTAL ENERGY             -154.440296719516 Eh   |
          | TOTAL ENTHALPY           -153.440521294609 Eh   |
          | TOTAL FREE ENERGY        -153.575057475746 Eh   |
          | GRADIENT NORM               0.000035610939 Eh/α |
           -------------------------------------------------

 * finished run on 2025/09/07 at 21:02:16.247
