   * xtb version 6.7.1 (edcfbbe) compiled by 'albert@albert-system' on 2024-07-22

   ID    Z sym.   atoms
    1    6 C      1-8, 10-23, 25-36, 38
    2    7 N      9, 24, 37
    3    1 H      39-61

          program call               : xtb data2507/toluene/2CzPy/2CzPy.xyz --gfn 2 --gbsa toluene --ohess vtight --parallel 40 --molden --ceasefiles --namespace data2507/toluene/2CzPy/2CzPy_toluene_S0_preOpt
      * Solvation model:               GBSA
        Solvent                        toluene
        Solvent mass                       9.2140E+01 g/mol
          :  Hamiltonian                  GFN2-xTB          :
 * total energy  :   -95.5319256 Eh     change       -0.2121254E-08 Eh
 * total energy  :   -95.5443861 Eh     change       -0.1246047E-01 Eh
 * total energy  :   -95.5469299 Eh     change       -0.2543840E-02 Eh
 * total energy  :   -95.5474109 Eh     change       -0.4809578E-03 Eh
 * total energy  :   -95.5478236 Eh     change       -0.4126977E-03 Eh
 * total energy  :   -95.5480099 Eh     change       -0.1863470E-03 Eh
 * total energy  :   -95.5482066 Eh     change       -0.1966513E-03 Eh
 * total energy  :   -95.5483766 Eh     change       -0.1699604E-03 Eh
 * total energy  :   -95.5485069 Eh     change       -0.1303834E-03 Eh
 * total energy  :   -95.5486011 Eh     change       -0.9417884E-04 Eh
 * total energy  :   -95.5491540 Eh     change       -0.2218278E-06 Eh
 * total energy  :   -95.5491543 Eh     change       -0.3006656E-06 Eh
 * total energy  :   -95.5491547 Eh     change       -0.3996284E-06 Eh
 * total energy  :   -95.5491550 Eh     change       -0.3624389E-06 Eh
 * total energy  :   -95.5491553 Eh     change       -0.2669294E-06 Eh
 * total energy  :   -95.5491555 Eh     change       -0.1941186E-06 Eh
 * total energy  :   -95.5491557 Eh     change       -0.1897971E-06 Eh
 * total energy  :   -95.5491558 Eh     change       -0.1449916E-06 Eh
 * total energy  :   -95.5491559 Eh     change       -0.8700871E-07 Eh
   *** GEOMETRY OPTIMIZATION CONVERGED AFTER 55 ITERATIONS ***

 final structure:
================
61
 xtb: 6.7.1 (edcfbbe)
C           -4.92462512822382       -3.07573653653963        0.08095491863851
C           -4.15562233285698       -3.55864308212884       -0.96690198098919
C           -2.85012739901202       -3.11933246769230       -1.09739605458897
C           -2.35616583993024       -2.19920494566831       -0.17186389321193
C           -0.97508896015787       -1.69201707539378       -0.25737913453673
C            0.07650161050905       -2.55854108096084       -0.54304010019060
C            1.38442722927337       -2.11791444520361       -0.57153989172548
C            1.67414894201615       -0.78131389313870       -0.30549039965908
N            2.99666092726846       -0.32417758071594       -0.32773860143115
C            4.06488661281113       -0.90885833225222        0.32700538186303
C            4.08690737620942       -2.00064237784270        1.18335163161152
C            5.30116653154215       -2.36492257404224        1.73416563667485
C            6.46920195261297       -1.65970520987383        1.45146919130998
C            6.44894090540842       -0.55720831985336        0.62013508157050
C            5.23991829000550       -0.17132113013635        0.05525708620239
C            4.85439769035148        0.90653899617411       -0.81332019134167
C            5.55708075556805        1.93632603850142       -1.42601188919429
C            4.86942923565572        2.81299832084769       -2.24172574255549
C            3.50148284370021        2.66389884880213       -2.46043029554676
C            2.78095660018115        1.64764298104636       -1.86152558466030
C            3.46176116859531        0.77816920314470       -1.02109215842857
C            0.63412367769826        0.10034092338028       -0.03080749913399
C           -0.68145197933011       -0.34267455906710       -0.01136023937232
N           -1.70551228302290        0.58279041210936        0.23632443424515
C           -1.85020956181318        1.33762973313112        1.38158423608984
C           -1.03015689416220        1.41343142052786        2.49772994488198
C           -1.41699562498328        2.25194653254392        3.52600488272278
C           -2.59324607509106        2.99586803756048        3.45417778016729
C           -3.42173118740548        2.91101906498068        2.35252212284068
C           -3.05446607955666        2.07468483629998        1.30582466045349
C           -3.66129036484044        1.73599807275310        0.04842255354207
C           -4.83148570364207        2.12698465541348       -0.58955965576624
C           -5.11512434834493        1.60149090643123       -1.83497749242293
C           -4.23979044370783        0.71149295021907       -2.45433379959015
C           -3.06817753400649        0.31038099187993       -1.84131376094136
C           -2.79529271134157        0.80878701107015       -0.57558872117482
N           -3.09777437608356       -1.74359525756795        0.83523844299250
C           -4.33956939913625       -2.17069111298126        0.95391928415388
H           -5.94742809074451       -3.39003926918776        0.21716845982067
H           -4.56889855037172       -4.26394979896604       -1.67380652008667
H           -2.22959607504125       -3.46146232628670       -1.91159874050106
H           -0.13513815228391       -3.60162636767567       -0.72494840775988
H            2.18481426753937       -2.80181786529021       -0.80805448241988
H            3.18518779039314       -2.54348728764043        1.42331561776055
H            5.34462790141490       -3.21335559689598        2.40150383620820
H            7.39954092643419       -1.97809221302737        1.89848175736168
H            7.35124418513523       -0.00104510012100        0.41426737891092
H            6.62016275297255        2.04204650219249       -1.26927944849394
H            5.39656425544139        3.62201904893222       -2.72581057636419
H            2.99239470272800        3.35554481662794       -3.11581966445415
H            1.72475865113458        1.53296839246183       -2.05307463036333
H            0.84603689739933        1.13896488175720        0.17437450247033
H           -0.12397599746081        0.83053454185587        2.56696596207834
H           -0.79527023355108        2.33096017609034        4.40611913743607
H           -2.86037582483811        3.64218145876097        4.27753447507843
H           -4.33870095442876        3.47945724040356        2.30358086404448
H           -5.50346315863923        2.82977205294686       -0.11961163310845
H           -6.02324144644480        1.88871139271003       -2.34473880013736
H           -4.48027670569304        0.33015016769552       -3.43630149542330
H           -2.38826141038413       -0.36951578923081       -2.33339155089583
H           -4.88879485346714       -1.76083501386732        1.79243477534203

          :  Hamiltonian                  GFN2-xTB          :
         :: gradient norm              0.000029121959 Eh/a0 ::
         :: HOMO-LUMO gap              2.528086272951 eV    ::
         :: SCC energy               -97.339275828048 Eh    ::
         :: -> dispersion             -0.088061618342 Eh    ::
         :: -> Gsolv                  -0.038787155900 Eh    ::
         :: repulsion energy           1.790119924001 Eh    ::

    * Orbital Energies and Occupations

         #    Occupation            Energy/Eh            Energy/eV
      -------------------------------------------------------------
         1        2.0000           -0.6787074             -18.4686
       ...           ...                  ...                  ...
        77        2.0000           -0.4203336             -11.4379
        78        2.0000           -0.4200233             -11.4294
        79        2.0000           -0.4189086             -11.3991
        80        2.0000           -0.4169354             -11.3454
        81        2.0000           -0.4162931             -11.3279
        82        2.0000           -0.4063900             -11.0584
        83        2.0000           -0.4053298             -11.0296
        84        2.0000           -0.4027583             -10.9596
        85        2.0000           -0.3798318             -10.3357
        86        2.0000           -0.3767708             -10.2525
        87        2.0000           -0.3737999             -10.1716
        88        2.0000           -0.3649431              -9.9306
        89        2.0000           -0.3608689              -9.8197 (HOMO)
        90                         -0.2679634              -7.2917 (LUMO)
        91                         -0.2488190              -6.7707
        92                         -0.2458021              -6.6886
        93                         -0.2455889              -6.6828
        94                         -0.2399271              -6.5287
        95                         -0.2231528              -6.0723
        96                         -0.2212545              -6.0206
        97                         -0.2198537              -5.9825
        98                         -0.1935658              -5.2672
        99                         -0.1888279              -5.1383
       100                         -0.1872223              -5.0946
       ...                                ...                  ...
       175                          0.7476355              20.3442
      -------------------------------------------------------------
                  HL-Gap            0.0929055 Eh            2.5281 eV

     #   Z          covCN         q      C6AA      α(0)
     1   6 C        2.914    -0.041    29.029     8.835
     2   6 C        2.927    -0.011    28.300     8.724
     3   6 C        2.918    -0.046    29.144     8.853
     4   6 C        2.963     0.102    25.748     8.323
     5   6 C        2.979    -0.010    28.252     8.719
     6   6 C        2.924    -0.033    28.819     8.804
     7   6 C        2.919    -0.047    29.169     8.857
     8   6 C        2.911     0.067    26.495     8.440
     9   7 N        2.802    -0.042    22.050     6.974
    10   6 C        3.073     0.046    26.885     8.502
    11   6 C        2.910    -0.052    29.284     8.873
    12   6 C        2.924    -0.034    28.854     8.809
    13   6 C        2.920    -0.042    29.036     8.836
    14   6 C        2.912    -0.034    28.850     8.808
    15   6 C        3.066    -0.017    28.370     8.734
    16   6 C        3.067    -0.017    28.369     8.734
    17   6 C        2.912    -0.034    28.850     8.808
    18   6 C        2.920    -0.042    29.034     8.836
    19   6 C        2.924    -0.034    28.852     8.809
    20   6 C        2.910    -0.052    29.279     8.873
    21   6 C        3.072     0.046    26.887     8.502
    22   6 C        2.925    -0.057    29.422     8.895
    23   6 C        2.915     0.071    26.416     8.428
    24   7 N        2.804    -0.037    21.960     6.960
    25   6 C        3.079     0.053    26.736     8.477
    26   6 C        2.910    -0.050    29.246     8.868
    27   6 C        2.924    -0.034    28.858     8.809
    28   6 C        2.920    -0.043    29.062     8.840
    29   6 C        2.912    -0.035    28.863     8.810
    30   6 C        3.069    -0.017    28.360     8.732
    31   6 C        3.068    -0.018    28.381     8.735
    32   6 C        2.912    -0.036    28.888     8.813
    33   6 C        2.920    -0.044    29.102     8.847
    34   6 C        2.924    -0.037    28.921     8.819
    35   6 C        2.910    -0.053    29.321     8.879
    36   6 C        3.080     0.053    26.735     8.477
    37   7 N        1.843    -0.247    27.287     7.742
    38   6 C        2.905     0.063    26.583     8.454
    39   1 H        0.926     0.042     2.427     2.436
    40   1 H        0.926     0.044     2.403     2.424
    41   1 H        0.926     0.042     2.417     2.431
    42   1 H        0.926     0.051     2.312     2.378
    43   1 H        0.926     0.054     2.270     2.356
    44   1 H        0.926     0.031     2.567     2.506
    45   1 H        0.926     0.032     2.562     2.503
    46   1 H        0.926     0.029     2.593     2.518
    47   1 H        0.926     0.032     2.557     2.500
    48   1 H        0.926     0.032     2.552     2.498
    49   1 H        0.926     0.030     2.592     2.518
    50   1 H        0.926     0.031     2.568     2.506
    51   1 H        0.926     0.030     2.593     2.518
    52   1 H        0.926     0.054     2.267     2.354
    53   1 H        0.926     0.029     2.606     2.525
    54   1 H        0.926     0.031     2.571     2.507
    55   1 H        0.926     0.029     2.602     2.522
    56   1 H        0.926     0.031     2.574     2.509
    57   1 H        0.926     0.032     2.563     2.504
    58   1 H        0.926     0.028     2.611     2.527
    59   1 H        0.926     0.028     2.611     2.527
    60   1 H        0.926     0.020     2.740     2.588
    61   1 H        0.925     0.035     2.523     2.484

molecular dipole:
                 x           y           z       tot (Debye)
 q only:        0.052      -0.762      -0.356
   full:       -0.186      -1.115      -0.592       3.243

 projected vibrational frequencies (cm⁻¹)
eigval :       -0.00    -0.00     0.00     0.00     0.00     0.00
eigval :       21.37    23.07    26.21    34.48    44.62    52.61
eigval :       74.24    80.14    92.71   101.62   111.82   140.78
eigval :      144.85   147.80   161.77   188.85   197.70   234.34
eigval :      235.89   249.92   273.93   274.48   296.72   307.08
eigval :      364.02   367.49   371.19   397.13   397.82   417.02
eigval :      424.97   427.30   432.42   436.91   457.53   476.15
eigval :      510.37   517.36   518.62   528.37   540.26   542.20
eigval :      542.38   548.22   582.18   588.01   592.56   609.55
eigval :      612.10   625.77   646.82   674.12   674.69   685.36
eigval :      694.25   708.31   710.00   714.67   723.46   754.17
eigval :      755.60   768.08   769.05   771.17   780.30   780.94
eigval :      785.86   837.88   867.20   870.48   871.74   873.72
eigval :      891.25   893.74   896.14   899.97   900.69   901.78
eigval :      903.06   909.24   909.68   914.12   917.71   920.64
eigval :      921.24   924.13   926.09   932.51   987.04  1006.84
eigval :     1011.21  1015.99  1046.22  1068.61  1070.20  1071.47
eigval :     1075.01  1092.67  1107.44  1118.96  1124.84  1150.50
eigval :     1151.07  1154.35  1161.86  1171.06  1177.10  1180.48
eigval :     1181.07  1182.65  1196.61  1230.59  1235.62  1236.37
eigval :     1237.96  1240.48  1249.01  1277.84  1290.49  1296.14
eigval :     1299.11  1301.90  1305.26  1309.58  1341.10  1355.23
eigval :     1357.42  1358.50  1362.38  1368.90  1404.05  1410.10
eigval :     1422.53  1426.50  1428.56  1436.73  1455.58  1473.73
eigval :     1475.01  1485.98  1486.76  1487.75  1546.43  1560.33
eigval :     1571.93  1573.73  1574.20  1584.28  1587.76  1590.05
eigval :     1597.19  1597.95  1612.29  1614.07  3047.16  3068.93
eigval :     3069.88  3070.66  3072.86  3073.28  3074.44  3075.73
eigval :     3078.29  3079.13  3081.11  3083.15  3085.46  3086.06
eigval :     3086.85  3089.20  3089.45  3092.03  3092.42  3094.65
eigval :     3097.18  3097.79  3102.44

   temp. (K)  partition function   enthalpy   heat capacity  entropy
                                   cal/mol     cal/K/mol   cal/K/mol   J/K/mol
 298.15  VIB  0.352E+12            16234.315    107.518     98.407
         ROT  0.338E+08              888.752      2.981     37.433
         INT  0.119E+20            17123.068    110.499    135.841
         TR   0.104E+29             1481.254      4.968     44.408
         TOT                       18604.3218   115.4669   180.2486   754.1602

       T/K    H(0)-H(T)+PV         H(T)/Eh          T*S/Eh         G(T)/Eh
   ------------------------------------------------------------------------
    298.15    0.296479E-01    0.496840E+00    0.856419E-01    0.411198E+00
   ------------------------------------------------------------------------

         :::::::::::::::::::::::::::::::::::::::::::::::::::::
         ::                  THERMODYNAMIC                  ::
         :::::::::::::::::::::::::::::::::::::::::::::::::::::
         :: total free energy         -95.137957965562 Eh   ::
         ::.................................................::
         :: total energy              -95.549155902299 Eh   ::
         :: zero point energy           0.467191999765 Eh   ::
         :: G(RRHO) w/o ZPVE           -0.055994063028 Eh   ::
         :: G(RRHO) contrib.            0.411197936737 Eh   ::
         :::::::::::::::::::::::::::::::::::::::::::::::::::::

           -------------------------------------------------
          | TOTAL ENERGY              -95.549155902299 Eh   |
          | TOTAL ENTHALPY            -95.052316028636 Eh   |
          | TOTAL FREE ENERGY         -95.137957965562 Eh   |
          | GRADIENT NORM               0.000029118592 Eh/α |
          | HOMO-LUMO GAP               2.528086121399 eV   |
           -------------------------------------------------

 * finished run on 2025/09/14 at 08:26:01.947
