   * xtb version 6.7.1 (edcfbbe) compiled by 'albert@albert-system' on 2024-07-22

   ID    Z sym.   atoms
    1    6 C      1-8, 10-23, 25-36, 38
    2    7 N      9, 24, 37
    3    1 H      39-61

          program call               : xtb data2507/toluene/2CzPy/2CzPy_toluene_S0_finalOpt.xtbopt.xyz --gfn 2 --uhf 2 --gbsa toluene --ohess vtight --parallel 40 --molden --ceasefiles --namespace data2507/toluene/2CzPy/2CzPy_toluene_T1_preOpt
      * Solvation model:               GBSA
        Solvent                        toluene
        Solvent mass                       9.2140E+01 g/mol
          :  Hamiltonian                  GFN2-xTB          :
 * total energy  :   -95.4436783 Eh     change       -0.1114957E-07 Eh
 * total energy  :   -95.4478569 Eh     change       -0.4178585E-02 Eh
 * total energy  :   -95.4505234 Eh     change       -0.2666446E-02 Eh
 * total energy  :   -95.4511327 Eh     change       -0.6092854E-03 Eh
 * total energy  :   -95.4522582 Eh     change       -0.1125553E-02 Eh
 * total energy  :   -95.4526802 Eh     change       -0.4219596E-03 Eh
 * total energy  :   -95.4529854 Eh     change       -0.3051886E-03 Eh
 * total energy  :   -95.4531616 Eh     change       -0.1762433E-03 Eh
 * total energy  :   -95.4532671 Eh     change       -0.1054857E-03 Eh
 * total energy  :   -95.4533586 Eh     change       -0.9153172E-04 Eh
 * total energy  :   -95.4539233 Eh     change       -0.2156963E-05 Eh
 * total energy  :   -95.4539250 Eh     change       -0.1795781E-05 Eh
 * total energy  :   -95.4539268 Eh     change       -0.1705261E-05 Eh
 * total energy  :   -95.4539279 Eh     change       -0.1102531E-05 Eh
 * total energy  :   -95.4539286 Eh     change       -0.7357535E-06 Eh
 * total energy  :   -95.4539291 Eh     change       -0.4965013E-06 Eh
 * total energy  :   -95.4539295 Eh     change       -0.3933663E-06 Eh
 * total energy  :   -95.4539299 Eh     change       -0.3919722E-06 Eh
 * total energy  :   -95.4539299 Eh     change       -0.3661199E-08 Eh
   *** GEOMETRY OPTIMIZATION CONVERGED AFTER 44 ITERATIONS ***

 final structure:
================
61
 xtb: 6.7.1 (edcfbbe)
C           -4.86186355311343       -2.78994223629778       -2.23587553953746
C           -4.67506106935715       -1.41975026951283       -1.99300708717702
C           -3.45559964127362       -0.96306897278840       -1.57979301527150
C           -2.37895832218440       -1.87793917753378       -1.36772806069663
C           -1.09627332776124       -1.52199834801010       -0.90378843364574
C            0.00096842543096       -2.41084392868218       -1.13663062452016
C            1.28944247711767       -2.05163683453067       -0.90825104965298
C            1.59915335195368       -0.76041946568109       -0.39707042256447
N            2.91604580316832       -0.38596521941806       -0.15999691233973
C            3.48305382035474        0.82898250534380       -0.49439727408717
C            2.93238445324759        1.90055440315215       -1.18470904350102
C            3.73225212139382        3.00344893310681       -1.41849682153297
C            5.05676953326576        3.04227286856479       -0.98560245005289
C            5.62291701663318        1.96580702811414       -0.32603069822642
C            4.83879621376522        0.84792219955486       -0.08175724946325
C            5.09309879059552       -0.42520848468816        0.53460124580220
C            6.20937259504465       -0.98862028349763        1.13463152995064
C            6.10198449065270       -2.25794845146764        1.67486695278419
C            4.89436132183485       -2.95303399968780        1.63986143812234
C            3.76839620256838       -2.41209484209907        1.04678282433837
C            3.87798109832141       -1.15288055524853        0.46995088668270
C            0.54492909681205        0.09871271587675       -0.06366544033103
C           -0.76639516881080       -0.26882332083792       -0.25319790452595
N           -1.77141416547939        0.55317969948013        0.26980330855757
C           -2.74171028796980        0.15198412400759        1.16849226747829
C           -2.96247260420684       -1.10127557870253        1.72217346622375
C           -4.00878705614202       -1.23400899908165        2.61543062074006
C           -4.80974377934930       -0.14801259194316        2.96329791238612
C           -4.57784304401903        1.10822297727943        2.43330796712054
C           -3.53410546836859        1.26595695881302        1.53314018483893
C           -3.00223526226204        2.39568194422596        0.81868465616740
C           -3.35291203813719        3.73608945738895        0.74668797577207
C           -2.62369831531110        4.56904632743225       -0.08280822723828
C           -1.56815975064988        4.07655037388454       -0.84807187327159
C           -1.20082818209803        2.74544728771635       -0.79271790074713
C           -1.91081719566353        1.90916913282561        0.05847098706922
N           -2.58264589424225       -3.19851174882914       -1.67494438257779
C           -3.75104410657817       -3.61347947887557       -2.07914520059640
H           -5.81395241390831       -3.18903874892625       -2.54401817764084
H           -5.48922904855277       -0.72752511978799       -2.15877426001220
H           -3.28074172443629        0.09621251832442       -1.48423959486097
H           -0.24143543843516       -3.37664725911985       -1.55133212737970
H            2.09799942009440       -2.72123406330941       -1.15859239065747
H            1.91601016219417        1.86732454271386       -1.54345190659272
H            3.32427460507368        3.84970681248385       -1.95091413631407
H            5.65050573842042        3.92275794451092       -1.18161107262294
H            6.65552774006781        1.99031509914876       -0.01231162703818
H            7.13993191121967       -0.44358081959179        1.18248220345638
H            6.96063216749062       -2.71429671005817        2.14466095137038
H            4.83427335418840       -3.93204772621190        2.09156251496590
H            2.83156972215660       -2.94722495784123        1.04988850321605
H            0.76381229141544        1.02904923799996        0.44130403475960
H           -2.34119209950403       -1.94388152670807        1.46043723097932
H           -4.20649846578658       -2.19983464063057        3.05646216803351
H           -5.61892367744700       -0.29204784634311        3.66393514625102
H           -5.19175608022519        1.95041033732936        2.71508227089467
H           -4.18209347138994        4.11704597671737        1.32343121865702
H           -2.88041018116868        5.61591095189102       -0.14966526866916
H           -1.02910122597677        4.74747655031080       -1.50036289551524
H           -0.39750471731999        2.36340207944494       -1.40317084172785
H           -3.82149973194770       -4.67781717746880       -2.27631286347250

          :  Hamiltonian                  GFN2-xTB          :
         :: gradient norm              0.000056645543 Eh/a0 ::
         :: HOMO-LUMO gap              0.524959428341 eV    ::
         :: SCC energy               -97.227222681501 Eh    ::
         :: -> dispersion             -0.087861523419 Eh    ::
         :: -> Gsolv                  -0.038934827020 Eh    ::
         :: repulsion energy           1.773292802441 Eh    ::

    * Orbital Energies and Occupations

         #    Occupation            Energy/Eh            Energy/eV
      -------------------------------------------------------------
         1        2.0000           -0.6838703             -18.6091
       ...           ...                  ...                  ...
        78        2.0000           -0.4231746             -11.5152
        79        2.0000           -0.4221173             -11.4864
        80        2.0000           -0.4202742             -11.4362
        81        2.0000           -0.4120898             -11.2135
        82        2.0000           -0.4113180             -11.1925
        83        2.0000           -0.4097621             -11.1502
        84        2.0000           -0.3871253             -10.5342
        85        2.0000           -0.3851445             -10.4803
        86        2.0000           -0.3848992             -10.4736
        87        1.9999           -0.3707463             -10.0885
        88        1.8705           -0.3640850              -9.9073
        89        1.1296           -0.3604654              -9.8088
        90        1.0000           -0.2707018              -7.3662 (HOMO)
        91        0.0000           -0.2514099              -6.8412 (LUMO)
        92        0.0000           -0.2506133              -6.8195
        93                         -0.2311154              -6.2890
        94                         -0.2295186              -6.2455
        95                         -0.2287540              -6.2247
        96                         -0.2254715              -6.1354
        97                         -0.2095415              -5.7019
        98                         -0.1978711              -5.3843
        99                         -0.1926484              -5.2422
       100                         -0.1923813              -5.2350
       101                         -0.1866281              -5.0784
       ...                                ...                  ...
       175                          0.7383450              20.0914
      -------------------------------------------------------------
                  HL-Gap            0.0192919 Eh            0.5250 eV

     #   Z          covCN         q      C6AA      α(0)
     1   6 C        2.912    -0.064    29.596     8.921
     2   6 C        2.919    -0.024    28.612     8.772
     3   6 C        2.912    -0.047    29.168     8.856
     4   6 C        2.934     0.070    26.442     8.433
     5   6 C        2.970    -0.015    28.392     8.740
     6   6 C        2.918    -0.041    29.018     8.834
     7   6 C        2.910    -0.044    29.088     8.844
     8   6 C        2.909     0.032    27.287     8.565
     9   7 N        2.797    -0.007    21.384     6.868
    10   6 C        3.074     0.043    26.951     8.512
    11   6 C        2.910    -0.042    29.045     8.837
    12   6 C        2.922    -0.034    28.850     8.808
    13   6 C        2.920    -0.036    28.885     8.813
    14   6 C        2.911    -0.031    28.774     8.796
    15   6 C        3.063    -0.014    28.298     8.723
    16   6 C        3.064    -0.014    28.293     8.722
    17   6 C        2.911    -0.031    28.772     8.796
    18   6 C        2.919    -0.035    28.873     8.812
    19   6 C        2.922    -0.034    28.842     8.807
    20   6 C        2.909    -0.043    29.057     8.839
    21   6 C        3.073     0.044    26.942     8.510
    22   6 C        2.918    -0.057    29.427     8.896
    23   6 C        2.905     0.039    27.135     8.541
    24   7 N        2.801    -0.022    21.670     6.914
    25   6 C        3.077     0.049    26.827     8.492
    26   6 C        2.909    -0.043    29.073     8.841
    27   6 C        2.924    -0.033    28.821     8.804
    28   6 C        2.920    -0.038    28.934     8.821
    29   6 C        2.912    -0.032    28.808     8.801
    30   6 C        3.065    -0.015    28.330     8.728
    31   6 C        3.065    -0.015    28.315     8.726
    32   6 C        2.912    -0.032    28.797     8.799
    33   6 C        2.920    -0.037    28.924     8.819
    34   6 C        2.923    -0.033    28.833     8.806
    35   6 C        2.910    -0.045    29.125     8.849
    36   6 C        3.075     0.047    26.878     8.500
    37   7 N        1.844    -0.250    27.364     7.752
    38   6 C        2.879     0.063    26.576     8.451
    39   1 H        0.926     0.023     2.690     2.565
    40   1 H        0.925     0.025     2.662     2.551
    41   1 H        0.926     0.026     2.646     2.544
    42   1 H        0.926     0.051     2.302     2.373
    43   1 H        0.926     0.043     2.412     2.429
    44   1 H        0.926     0.036     2.497     2.471
    45   1 H        0.926     0.037     2.490     2.468
    46   1 H        0.926     0.036     2.499     2.472
    47   1 H        0.926     0.038     2.469     2.457
    48   1 H        0.926     0.039     2.467     2.456
    49   1 H        0.926     0.037     2.495     2.470
    50   1 H        0.926     0.037     2.483     2.464
    51   1 H        0.926     0.041     2.430     2.438
    52   1 H        0.926     0.040     2.450     2.448
    53   1 H        0.926     0.033     2.544     2.494
    54   1 H        0.926     0.035     2.519     2.482
    55   1 H        0.926     0.036     2.509     2.477
    56   1 H        0.926     0.038     2.474     2.460
    57   1 H        0.926     0.037     2.484     2.465
    58   1 H        0.926     0.036     2.506     2.476
    59   1 H        0.926     0.037     2.487     2.466
    60   1 H        0.926     0.034     2.533     2.489
    61   1 H        0.925     0.027     2.622     2.532

molecular dipole:
                 x           y           z       tot (Debye)
 q only:        1.173       0.871       0.515
   full:        0.825       0.952       0.386       3.349

 projected vibrational frequencies (cm⁻¹)
eigval :       -0.00    -0.00     0.00     0.00     0.00     0.00
eigval :       18.48    23.65    26.67    31.41    37.75    58.07
eigval :       71.28    76.96    98.39   103.58   118.81   134.19
eigval :      139.15   147.87   148.80   175.43   186.39   233.27
eigval :      243.04   260.68   270.75   273.14   276.93   311.36
eigval :      351.14   373.37   377.57   382.07   391.89   396.05
eigval :      414.25   419.94   426.59   432.68   437.65   442.84
eigval :      477.91   500.44   514.18   515.56   533.46   536.40
eigval :      539.67   557.92   564.80   571.20   583.88   589.01
eigval :      600.77   609.87   623.43   635.02   658.01   670.44
eigval :      672.07   679.68   698.09   703.51   706.74   708.48
eigval :      750.32   754.11   762.55   766.42   772.72   774.63
eigval :      775.44   777.15   810.47   859.40   861.74   866.32
eigval :      869.96   877.29   884.50   891.39   894.08   895.68
eigval :      897.59   900.23   900.65   902.41   905.01   911.10
eigval :      915.24   917.91   919.67   922.51   922.61   978.86
eigval :      995.77  1008.69  1010.96  1062.02  1065.50  1066.61
eigval :     1069.11  1070.47  1087.42  1104.91  1112.45  1134.36
eigval :     1138.52  1141.65  1155.30  1162.32  1171.81  1174.19
eigval :     1175.43  1178.05  1185.39  1195.96  1221.34  1223.51
eigval :     1225.74  1228.03  1237.02  1272.41  1281.02  1286.21
eigval :     1289.99  1295.98  1310.58  1314.96  1333.70  1339.75
eigval :     1345.42  1348.62  1356.77  1363.36  1366.49  1373.94
eigval :     1395.82  1407.71  1413.10  1420.37  1427.83  1437.10
eigval :     1455.50  1461.16  1463.73  1470.76  1479.79  1482.17
eigval :     1534.24  1557.81  1562.64  1565.17  1570.56  1571.90
eigval :     1577.29  1580.76  1588.05  1597.30  3018.73  3057.22
eigval :     3076.12  3076.90  3077.43  3077.99  3078.66  3081.97
eigval :     3083.59  3083.72  3084.97  3087.92  3090.15  3091.58
eigval :     3091.85  3093.42  3096.57  3097.44  3098.92  3101.38
eigval :     3102.56  3103.61  3104.46

   temp. (K)  partition function   enthalpy   heat capacity  entropy
                                   cal/mol     cal/K/mol   cal/K/mol   J/K/mol
 298.15  VIB  0.671E+12            16577.798    109.641    100.358
         ROT  0.347E+08              888.752      2.981     37.484
         INT  0.233E+20            17466.550    112.622    137.842
         TR   0.104E+29             1481.254      4.968     44.408
         TOT                       18947.8044   117.5897   182.2502   762.5348

       T/K    H(0)-H(T)+PV         H(T)/Eh          T*S/Eh         G(T)/Eh
   ------------------------------------------------------------------------
    298.15    0.301952E-01    0.492801E+00    0.865929E-01    0.406208E+00
   ------------------------------------------------------------------------

         :::::::::::::::::::::::::::::::::::::::::::::::::::::
         ::                  THERMODYNAMIC                  ::
         :::::::::::::::::::::::::::::::::::::::::::::::::::::
         :: total free energy         -95.047722289671 Eh   ::
         ::.................................................::
         :: total energy              -95.453929873684 Eh   ::
         :: zero point energy           0.462605281844 Eh   ::
         :: G(RRHO) w/o ZPVE           -0.056397697831 Eh   ::
         :: G(RRHO) contrib.            0.406207584013 Eh   ::
         :::::::::::::::::::::::::::::::::::::::::::::::::::::

           -------------------------------------------------
          | TOTAL ENERGY              -95.453929873684 Eh   |
          | TOTAL ENTHALPY            -94.961129343529 Eh   |
          | TOTAL FREE ENERGY         -95.047722289671 Eh   |
          | GRADIENT NORM               0.000056703766 Eh/α |
          | HOMO-LUMO GAP               0.524958304436 eV   |
           -------------------------------------------------

 * finished run on 2025/09/14 at 08:28:40.901
