   * xtb version 6.7.1 (edcfbbe) compiled by 'albert@albert-system' on 2024-07-22

   ID    Z sym.   atoms
    1    6 C      1-8, 10-23, 25-36, 38
    2    7 N      9, 24, 37
    3    1 H      39-61

          program call               : xtb data2507/toluene/2CzPy/2CzPy_toluene_S0_crest.xyz --gfn 2 --gbsa toluene --ohess vtight --parallel 40 --molden --ceasefiles --namespace data2507/toluene/2CzPy/2CzPy_toluene_S0_finalOpt
      * Solvation model:               GBSA
        Solvent                        toluene
        Solvent mass                       9.2140E+01 g/mol
          :  Hamiltonian                  GFN2-xTB          :
 * total energy  :   -95.5494377 Eh     change       -0.2389669E-08 Eh
 * total energy  :   -95.5494749 Eh     change       -0.3712782E-04 Eh
 * total energy  :   -95.5494981 Eh     change       -0.2320687E-04 Eh
 * total energy  :   -95.5495079 Eh     change       -0.9797321E-05 Eh
 * total energy  :   -95.5495189 Eh     change       -0.1099302E-04 Eh
 * total energy  :   -95.5495244 Eh     change       -0.5535521E-05 Eh
 * total energy  :   -95.5495295 Eh     change       -0.5108871E-05 Eh
 * total energy  :   -95.5495344 Eh     change       -0.4922864E-05 Eh
 * total energy  :   -95.5495386 Eh     change       -0.4149073E-05 Eh
 * total energy  :   -95.5495421 Eh     change       -0.3478833E-05 Eh
 * total energy  :   -95.5495444 Eh     change       -0.2293329E-05 Eh
 * total energy  :   -95.5495456 Eh     change       -0.1229951E-05 Eh
 * total energy  :   -95.5495463 Eh     change       -0.6941519E-06 Eh
 * total energy  :   -95.5495467 Eh     change       -0.3950311E-06 Eh
 * total energy  :   -95.5495470 Eh     change       -0.2742454E-06 Eh
 * total energy  :   -95.5495471 Eh     change       -0.1953151E-06 Eh
 * total energy  :   -95.5495472 Eh     change       -0.1345762E-07 Eh
   *** GEOMETRY OPTIMIZATION CONVERGED AFTER 17 ITERATIONS ***

 final structure:
================
61
 xtb: 6.7.1 (edcfbbe)
C           -4.91680283115553       -2.69792341587660       -1.83694296660381
C           -4.61387718132616       -1.35724404210591       -2.02080754342616
C           -3.33671442001462       -0.91217007891332       -1.73095933964762
C           -2.39859494592088       -1.82920432157324       -1.25424285737280
C           -1.01848112555140       -1.43383576369495       -0.92250523568474
C            0.03491741994981       -2.25029171745617       -1.32670170861424
C            1.34749831553692       -1.90035706831798       -1.08799575730243
C            1.64006358235820       -0.71770896898935       -0.41014428089920
N            2.96825652061727       -0.35998701259353       -0.15248661635279
C            3.54433896343209        0.87012623710124       -0.40954153414528
C            2.99564176182222        1.99826869376599       -1.00150956239362
C            3.80919390054141        3.10215042943397       -1.17269650834246
C            5.14471416126826        3.08831874443824       -0.77610622543931
C            5.70428549974134        1.96055867393328       -0.20846679697635
C            4.90457041398304        0.83968915814572       -0.02524089208480
C            5.15154790810722       -0.47511494260318        0.49903474490597
C            6.27175062115666       -1.09000932121634        1.04381269126902
C            6.16093038211321       -2.39243513960115        1.48882274459918
C            4.94862961184891       -3.07486274933352        1.41020477044410
C            3.82084401582449       -2.48429401484225        0.87177718326694
C            3.93273527192739       -1.18437999439585        0.39886767923854
C            0.59822691871094        0.09076589586019        0.03244663137888
C           -0.72219804024609       -0.25997021458420       -0.21641786289252
N           -1.75000530585368        0.54785451924942        0.29908193105751
C           -2.76118827073429        0.12203328680231        1.13721439977040
C           -2.96176240292109       -1.12497077010928        1.71112550606797
C           -4.06097206754757       -1.28459874976687        2.53265515796395
C           -4.93536542720472       -0.23042416948952        2.79175152997128
C           -4.72412416556824        1.01950300501624        2.24471626259783
C           -3.62670153414787        1.20497240196757        1.41307260142145
C           -3.10264260747543        2.33814780701681        0.70169501748980
C           -3.50969037938085        3.65976878677482        0.56850870539694
C           -2.76557811764661        4.50540603073626       -0.23073888752928
C           -1.63536954775640        4.04632072249042       -0.90443187138901
C           -1.21202333964280        2.73597222482716       -0.78905274071353
C           -1.94195364227982        1.88788199492609        0.03082996218409
N           -2.68579509820519       -3.12150847956548       -1.11007653205037
C           -3.90681875488806       -3.53637339810117       -1.39077490430279
H           -5.90295589111077       -3.08323487712391       -2.04298319568366
H           -5.36103911259856       -0.66791921514078       -2.38693778067502
H           -3.06754457307653        0.12101984855170       -1.88715332694760
H           -0.19950241933422       -3.16221998095161       -1.85358175401556
H            2.15200794940384       -2.52903639837794       -1.43664647821615
H            1.96826720752450        2.01350810637065       -1.32994636929196
H            3.40151593369159        3.99343518327149       -1.62712817191072
H            5.74895781976119        3.97119266903364       -0.92497055410940
H            6.74349018276638        1.94422662705530        0.08419933602038
H            7.20626777456552       -0.55459873389299        1.12070508750282
H            7.02054054883965       -2.88951295996253        1.91395515591315
H            4.88724925637905       -4.08715587832109        1.78238173951510
H            2.88275040814144       -3.01680599912813        0.83411531540310
H            0.81124594787086        0.98169723809586        0.60431349058363
H           -2.28560274532422       -1.94479855496743        1.52135466735780
H           -4.24429564721005       -2.24768105573871        2.98640543074508
H           -5.78471952692307       -0.39659270093357        3.43811517187912
H           -5.39370986581989        1.83919029417720        2.45869022196418
H           -4.39300415752970        4.01379211130710        1.07868480788046
H           -3.06477326108897        5.53703195498772       -0.34470808778088
H           -1.08122400928334        4.72759068292468       -1.53359336081561
H           -0.34736937155273        2.38081121714744       -1.32875495631523
H           -4.07851522976371       -4.59602280994056       -1.24730791776378

          :  Hamiltonian                  GFN2-xTB          :
         :: gradient norm              0.000109314188 Eh/a0 ::
         :: HOMO-LUMO gap              2.616599935397 eV    ::
         :: SCC energy               -97.339383573275 Eh    ::
         :: -> dispersion             -0.088727835468 Eh    ::
         :: -> Gsolv                  -0.037971719629 Eh    ::
         :: repulsion energy           1.789836409961 Eh    ::

    * Orbital Energies and Occupations

         #    Occupation            Energy/Eh            Energy/eV
      -------------------------------------------------------------
         1        2.0000           -0.6802563             -18.5107
       ...           ...                  ...                  ...
        77        2.0000           -0.4227501             -11.5036
        78        2.0000           -0.4215224             -11.4702
        79        2.0000           -0.4196818             -11.4201
        80        2.0000           -0.4193920             -11.4122
        81        2.0000           -0.4173147             -11.3557
        82        2.0000           -0.4085692             -11.1177
        83        2.0000           -0.4063890             -11.0584
        84        2.0000           -0.4043515             -11.0030
        85        2.0000           -0.3813092             -10.3760
        86        2.0000           -0.3798226             -10.3355
        87        2.0000           -0.3746731             -10.1954
        88        2.0000           -0.3675048             -10.0003
        89        2.0000           -0.3639860              -9.9046 (HOMO)
        90                         -0.2678276              -7.2880 (LUMO)
        91                         -0.2501073              -6.8058
        92                         -0.2482239              -6.7545
        93                         -0.2456419              -6.6843
        94                         -0.2409295              -6.5560
        95                         -0.2245732              -6.1109
        96                         -0.2231333              -6.0718
        97                         -0.2213416              -6.0230
        98                         -0.1969184              -5.3584
        99                         -0.1895678              -5.1584
       100                         -0.1885479              -5.1306
       ...                                ...                  ...
       175                          0.7433789              20.2284
      -------------------------------------------------------------
                  HL-Gap            0.0961584 Eh            2.6166 eV

     #   Z          covCN         q      C6AA      α(0)
     1   6 C        2.914    -0.042    29.033     8.836
     2   6 C        2.927    -0.012    28.309     8.726
     3   6 C        2.917    -0.043    29.058     8.840
     4   6 C        2.962     0.101    25.752     8.324
     5   6 C        2.980    -0.010    28.255     8.719
     6   6 C        2.925    -0.026    28.652     8.778
     7   6 C        2.919    -0.046    29.140     8.852
     8   6 C        2.911     0.067    26.493     8.440
     9   7 N        2.801    -0.042    22.043     6.973
    10   6 C        3.072     0.046    26.888     8.502
    11   6 C        2.910    -0.051    29.260     8.870
    12   6 C        2.923    -0.034    28.855     8.809
    13   6 C        2.920    -0.042    29.038     8.837
    14   6 C        2.912    -0.034    28.849     8.807
    15   6 C        3.066    -0.017    28.370     8.734
    16   6 C        3.067    -0.017    28.369     8.734
    17   6 C        2.912    -0.034    28.851     8.808
    18   6 C        2.920    -0.042    29.032     8.836
    19   6 C        2.924    -0.034    28.848     8.808
    20   6 C        2.910    -0.052    29.279     8.873
    21   6 C        3.073     0.046    26.886     8.502
    22   6 C        2.925    -0.056    29.400     8.892
    23   6 C        2.913     0.062    26.603     8.458
    24   7 N        2.803    -0.049    22.185     6.996
    25   6 C        3.077     0.048    26.853     8.496
    26   6 C        2.909    -0.051    29.272     8.872
    27   6 C        2.924    -0.035    28.867     8.811
    28   6 C        2.920    -0.043    29.059     8.840
    29   6 C        2.912    -0.035    28.877     8.812
    30   6 C        3.068    -0.019    28.412     8.740
    31   6 C        3.067    -0.018    28.396     8.738
    32   6 C        2.912    -0.034    28.851     8.808
    33   6 C        2.920    -0.042    29.049     8.838
    34   6 C        2.924    -0.034    28.855     8.809
    35   6 C        2.910    -0.052    29.281     8.873
    36   6 C        3.076     0.047    26.861     8.497
    37   7 N        1.844    -0.248    27.305     7.744
    38   6 C        2.905     0.061    26.627     8.461
    39   1 H        0.926     0.043     2.414     2.430
    40   1 H        0.926     0.042     2.428     2.437
    41   1 H        0.926     0.036     2.507     2.476
    42   1 H        0.926     0.059     2.212     2.326
    43   1 H        0.926     0.055     2.256     2.349
    44   1 H        0.926     0.028     2.619     2.531
    45   1 H        0.926     0.031     2.568     2.506
    46   1 H        0.926     0.029     2.596     2.519
    47   1 H        0.926     0.032     2.556     2.500
    48   1 H        0.926     0.032     2.558     2.501
    49   1 H        0.926     0.030     2.592     2.518
    50   1 H        0.926     0.032     2.555     2.499
    51   1 H        0.926     0.033     2.546     2.495
    52   1 H        0.926     0.054     2.276     2.359
    53   1 H        0.926     0.027     2.625     2.534
    54   1 H        0.926     0.030     2.582     2.513
    55   1 H        0.926     0.030     2.586     2.515
    56   1 H        0.926     0.033     2.546     2.495
    57   1 H        0.926     0.032     2.559     2.501
    58   1 H        0.926     0.030     2.591     2.517
    59   1 H        0.926     0.032     2.561     2.503
    60   1 H        0.926     0.026     2.645     2.543
    61   1 H        0.925     0.038     2.473     2.459

molecular dipole:
                 x           y           z       tot (Debye)
 q only:       -0.134      -0.143      -0.417
   full:       -0.470       0.013      -0.570       1.877

 projected vibrational frequencies (cm⁻¹)
eigval :       -0.00    -0.00    -0.00     0.00     0.00     0.00
eigval :       14.51    23.23    26.16    32.51    33.98    50.93
eigval :       69.93    75.06    98.30   103.28   111.68   137.92
eigval :      140.21   149.12   161.55   188.90   192.97   228.46
eigval :      243.16   254.56   271.10   272.51   282.94   318.41
eigval :      351.31   372.89   388.24   396.17   399.23   407.40
eigval :      421.28   424.46   431.68   436.83   452.96   469.33
eigval :      514.08   517.63   518.91   529.58   534.34   539.40
eigval :      542.50   569.69   577.99   587.89   593.88   597.69
eigval :      614.45   622.19   648.77   672.53   673.46   685.41
eigval :      695.16   707.45   708.68   717.38   719.99   753.41
eigval :      755.89   764.84   767.60   772.15   777.71   779.42
eigval :      785.63   838.81   859.66   866.54   871.21   873.92
eigval :      890.81   895.49   897.81   898.94   899.73   900.96
eigval :      902.57   906.15   908.95   916.51   918.85   920.28
eigval :      921.16   923.13   927.63   934.19   987.75  1005.81
eigval :     1011.39  1015.34  1045.72  1065.70  1069.42  1071.91
eigval :     1072.88  1094.35  1109.36  1118.48  1126.92  1146.77
eigval :     1148.51  1151.62  1166.01  1167.79  1176.14  1178.10
eigval :     1179.90  1181.18  1196.05  1226.93  1231.09  1234.78
eigval :     1236.97  1246.03  1246.80  1276.74  1288.61  1294.94
eigval :     1297.71  1300.51  1303.52  1310.68  1339.17  1355.49
eigval :     1356.07  1357.45  1361.08  1367.59  1402.68  1413.26
eigval :     1421.08  1425.81  1427.89  1434.62  1452.94  1473.18
eigval :     1474.12  1485.82  1486.73  1487.44  1546.24  1557.08
eigval :     1571.85  1573.42  1574.72  1583.33  1587.86  1588.83
eigval :     1597.45  1598.51  1612.33  1613.66  3047.00  3072.01
eigval :     3072.44  3072.75  3073.16  3073.31  3077.95  3078.80
eigval :     3078.87  3079.81  3085.88  3086.76  3087.16  3088.97
eigval :     3092.86  3093.77  3093.85  3095.02  3095.54  3096.52
eigval :     3098.12  3098.49  3106.57

   temp. (K)  partition function   enthalpy   heat capacity  entropy
                                   cal/mol     cal/K/mol   cal/K/mol   J/K/mol
 298.15  VIB  0.787E+12            16292.368    107.278     99.030
         ROT  0.342E+08              888.752      2.981     37.455
         INT  0.269E+20            17181.120    110.259    136.485
         TR   0.104E+29             1481.254      4.968     44.408
         TOT                       18662.3744   115.2270   180.8933   756.8574

       T/K    H(0)-H(T)+PV         H(T)/Eh          T*S/Eh         G(T)/Eh
   ------------------------------------------------------------------------
    298.15    0.297404E-01    0.496783E+00    0.859482E-01    0.410834E+00
   ------------------------------------------------------------------------

         :::::::::::::::::::::::::::::::::::::::::::::::::::::
         ::                  THERMODYNAMIC                  ::
         :::::::::::::::::::::::::::::::::::::::::::::::::::::
         :: total free energy         -95.138712710857 Eh   ::
         ::.................................................::
         :: total energy              -95.549547162046 Eh   ::
         :: zero point energy           0.467042286837 Eh   ::
         :: G(RRHO) w/o ZPVE           -0.056207835648 Eh   ::
         :: G(RRHO) contrib.            0.410834451189 Eh   ::
         :::::::::::::::::::::::::::::::::::::::::::::::::::::

           -------------------------------------------------
          | TOTAL ENERGY              -95.549547162046 Eh   |
          | TOTAL ENTHALPY            -95.052764488538 Eh   |
          | TOTAL FREE ENERGY         -95.138712710857 Eh   |
          | GRADIENT NORM               0.000109324041 Eh/α |
          | HOMO-LUMO GAP               2.616602045743 eV   |
           -------------------------------------------------

 * finished run on 2025/09/14 at 08:28:35.483
