   * xtb version 6.7.1 (edcfbbe) compiled by 'albert@albert-system' on 2024-07-22

   ID    Z sym.   atoms
    1    6 C      1-8, 10-23, 25-36, 38
    2    7 N      9, 24, 37
    3    1 H      39-61

          program call               : xtb data2507/toluene/2CzPy/2CzPy_toluene_T1_crest.xyz --gfn 2 --uhf 2 --gbsa toluene --ohess vtight --parallel 40 --molden --ceasefiles --namespace data2507/toluene/2CzPy/2CzPy_toluene_T1_finalOpt
      * Solvation model:               GBSA
        Solvent                        toluene
        Solvent mass                       9.2140E+01 g/mol
          :  Hamiltonian                  GFN2-xTB          :
 * total energy  :   -95.4537989 Eh     change       -0.3444109E-07 Eh
 * total energy  :   -95.4538485 Eh     change       -0.4956566E-04 Eh
 * total energy  :   -95.4538689 Eh     change       -0.2036396E-04 Eh
 * total energy  :   -95.4538740 Eh     change       -0.5147949E-05 Eh
 * total energy  :   -95.4538777 Eh     change       -0.3660222E-05 Eh
 * total energy  :   -95.4538811 Eh     change       -0.3380482E-05 Eh
 * total energy  :   -95.4538845 Eh     change       -0.3476851E-05 Eh
 * total energy  :   -95.4538876 Eh     change       -0.3069486E-05 Eh
 * total energy  :   -95.4538902 Eh     change       -0.2579189E-05 Eh
 * total energy  :   -95.4538925 Eh     change       -0.2329867E-05 Eh
 * total energy  :   -95.4539000 Eh     change       -0.1574117E-05 Eh
 * total energy  :   -95.4539014 Eh     change       -0.1438796E-05 Eh
 * total energy  :   -95.4539027 Eh     change       -0.1273164E-05 Eh
 * total energy  :   -95.4539037 Eh     change       -0.1066332E-05 Eh
 * total energy  :   -95.4539046 Eh     change       -0.8599490E-06 Eh
 * total energy  :   -95.4539052 Eh     change       -0.6478424E-06 Eh
 * total energy  :   -95.4539057 Eh     change       -0.4549372E-06 Eh
 * total energy  :   -95.4539061 Eh     change       -0.3684062E-06 Eh
 * total energy  :   -95.4539061 Eh     change       -0.2419583E-08 Eh
   *** GEOMETRY OPTIMIZATION CONVERGED AFTER 22 ITERATIONS ***

 final structure:
================
61
 xtb: 6.7.1 (edcfbbe)
C           -4.86972797135578       -2.85943476052612       -2.07395984779658
C           -4.66606289723748       -1.47938460723405       -1.91542912803727
C           -3.44487726741925       -1.01456340255351       -1.51643095831498
C           -2.38412360688178       -1.92945616429613       -1.23560580872128
C           -1.10130669260291       -1.56089847312708       -0.78221567395651
C           -0.01126507284946       -2.47206937405264       -0.95365920461137
C            1.27942821485294       -2.10651786167953       -0.74973989679055
C            1.59739945108086       -0.78556605751987       -0.32623785949054
N            2.91818129350995       -0.40214551009571       -0.12848527710016
C            3.48821719803148        0.78136655272901       -0.55764544985174
C            2.93248524579846        1.80735391450001       -1.31009403802627
C            3.73679082151021        2.88291872849773       -1.63725697237620
C            5.07035945443588        2.93864540467036       -1.23524454070852
C            5.64112491534763        1.90500038476170       -0.51409628513311
C            4.85252930410903        0.81517542953666       -0.17548988710055
C            5.10927710056151       -0.41522323597725        0.52151729399596
C            6.23381892373187       -0.94829873647028        1.13374776299909
C            6.12695387243004       -2.17603371718090        1.76288573673993
C            4.91207436394417       -2.85813349894354        1.80401437238374
C            3.77801438680531       -2.34737723211544        1.19971856445283
C            3.88656446529063       -1.13297421641785        0.53344666099231
C            0.54928309495870        0.09830289370912       -0.04196363681214
C           -0.76455674506906       -0.27328096284968       -0.20528018721681
N           -1.76691500145841        0.57771480202261        0.27329006792377
C           -2.74666005575871        0.22109295716852        1.18086674122362
C           -2.97414811917033       -1.00345964528546        1.79310962772363
C           -4.02985382566866       -1.09215280796217        2.68070709867518
C           -4.83296485763567        0.00988215858965        2.96767979529872
C           -4.59366181655569        1.23899370327728        2.38044834911963
C           -3.54088645503995        1.35194270724089        1.48412402062956
C           -3.00026705938452        2.44563140489498        0.72192224969265
C           -3.34925407330101        3.78113577101533        0.58297615223955
C           -2.61106007755512        4.57376039700710       -0.27751220830032
C           -1.54845739094513        4.04489023605387       -1.00783091272375
C           -1.18337837480945        2.71750149435109       -0.88647520536525
C           -1.90217239290752        1.92250118636590       -0.00365267460501
N           -2.60306066646706       -3.26390482313409       -1.46070229570805
C           -3.77320809051778       -3.68698462125548       -1.85149243379273
H           -5.82390022373078       -3.26381453155639       -2.36849460095454
H           -5.46839476532863       -0.78802458157123       -2.13417720095874
H           -3.25532966040782        0.04614926532690       -1.48497355641230
H           -0.26054121009228       -3.46126831224012       -1.30416737045355
H            2.08391824309882       -2.79591017307084       -0.95536213622966
H            1.90838003430128        1.75945240971210       -1.64432333073566
H            3.32496369936979        3.69373119179494       -2.21958219358956
H            5.66763335750590        3.79697994479674       -1.50491057383542
H            6.68029672093538        1.94083961221937       -0.22411151634123
H            7.17038717886800       -0.41160262133478        1.12300663287645
H            6.99210807999097       -2.60853453493048        2.24315877020139
H            4.85306244055740       -3.80228368471789        2.32475704718171
H            2.83632628860822       -2.87044429274637        1.26070440067079
H            0.77544607116431        1.05575549009180        0.40581570828622
H           -2.35094982974232       -1.85814918221267        1.57997153370407
H           -4.23320547564983       -2.03541892934109        3.16580964349699
H           -5.64905229576361       -0.09981630023778        3.66648710743424
H           -5.20893120855818        2.09444781318590        2.61537583357078
H           -4.18424637562415        4.18889649135262        1.13233431843809
H           -2.86605608669376        5.61641107013643       -0.39625761473095
H           -1.00193485269806        4.68387325539512       -1.68552806444062
H           -0.37471735910635        2.30732618973255       -1.47090891280664
H           -3.85729964151083       -4.76062107369981       -1.98164606312242

          :  Hamiltonian                  GFN2-xTB          :
         :: gradient norm              0.000038081861 Eh/a0 ::
         :: HOMO-LUMO gap              0.525908466641 eV    ::
         :: SCC energy               -97.227137701525 Eh    ::
         :: -> dispersion             -0.087927142520 Eh    ::
         :: -> Gsolv                  -0.038896471626 Eh    ::
         :: repulsion energy           1.773231628481 Eh    ::

    * Orbital Energies and Occupations

         #    Occupation            Energy/Eh            Energy/eV
      -------------------------------------------------------------
         1        2.0000           -0.6838356             -18.6081
       ...           ...                  ...                  ...
        78        2.0000           -0.4232030             -11.5159
        79        2.0000           -0.4221333             -11.4868
        80        2.0000           -0.4201822             -11.4337
        81        2.0000           -0.4120790             -11.2132
        82        2.0000           -0.4113046             -11.1922
        83        2.0000           -0.4098023             -11.1513
        84        2.0000           -0.3871364             -10.5345
        85        2.0000           -0.3851207             -10.4797
        86        2.0000           -0.3849214             -10.4742
        87        1.9999           -0.3707505             -10.0886
        88        1.8741           -0.3640292              -9.9057
        89        1.1260           -0.3603477              -9.8056
        90        1.0000           -0.2707660              -7.3679 (HOMO)
        91        0.0000           -0.2514390              -6.8420 (LUMO)
        92        0.0000           -0.2506115              -6.8195
        93                         -0.2311913              -6.2910
        94                         -0.2294944              -6.2449
        95                         -0.2287973              -6.2259
        96                         -0.2255204              -6.1367
        97                         -0.2095453              -5.7020
        98                         -0.1977693              -5.3816
        99                         -0.1926372              -5.2419
       100                         -0.1923996              -5.2355
       101                         -0.1867076              -5.0806
       ...                                ...                  ...
       175                          0.7383424              20.0913
      -------------------------------------------------------------
                  HL-Gap            0.0193270 Eh            0.5259 eV

     #   Z          covCN         q      C6AA      α(0)
     1   6 C        2.912    -0.064    29.594     8.920
     2   6 C        2.919    -0.024    28.610     8.771
     3   6 C        2.912    -0.047    29.168     8.856
     4   6 C        2.934     0.070    26.436     8.432
     5   6 C        2.970    -0.015    28.390     8.740
     6   6 C        2.917    -0.041    29.016     8.833
     7   6 C        2.910    -0.044    29.088     8.844
     8   6 C        2.909     0.032    27.285     8.565
     9   7 N        2.797    -0.007    21.386     6.868
    10   6 C        3.074     0.043    26.951     8.512
    11   6 C        2.910    -0.042    29.046     8.837
    12   6 C        2.922    -0.034    28.849     8.808
    13   6 C        2.920    -0.036    28.886     8.814
    14   6 C        2.911    -0.031    28.775     8.796
    15   6 C        3.063    -0.014    28.298     8.723
    16   6 C        3.064    -0.014    28.294     8.723
    17   6 C        2.911    -0.031    28.773     8.796
    18   6 C        2.919    -0.035    28.875     8.812
    19   6 C        2.922    -0.034    28.842     8.807
    20   6 C        2.909    -0.043    29.057     8.839
    21   6 C        3.073     0.044    26.942     8.511
    22   6 C        2.917    -0.058    29.433     8.896
    23   6 C        2.905     0.039    27.135     8.541
    24   7 N        2.801    -0.021    21.661     6.912
    25   6 C        3.077     0.049    26.830     8.492
    26   6 C        2.909    -0.043    29.072     8.841
    27   6 C        2.924    -0.033    28.821     8.804
    28   6 C        2.920    -0.038    28.934     8.821
    29   6 C        2.912    -0.032    28.808     8.801
    30   6 C        3.065    -0.015    28.328     8.728
    31   6 C        3.065    -0.015    28.312     8.725
    32   6 C        2.912    -0.032    28.796     8.799
    33   6 C        2.920    -0.037    28.923     8.819
    34   6 C        2.922    -0.033    28.833     8.806
    35   6 C        2.910    -0.045    29.126     8.850
    36   6 C        3.074     0.047    26.880     8.501
    37   7 N        1.844    -0.251    27.381     7.755
    38   6 C        2.879     0.064    26.574     8.451
    39   1 H        0.926     0.023     2.690     2.565
    40   1 H        0.925     0.025     2.662     2.552
    41   1 H        0.926     0.026     2.649     2.545
    42   1 H        0.926     0.051     2.302     2.372
    43   1 H        0.926     0.043     2.412     2.428
    44   1 H        0.926     0.036     2.500     2.473
    45   1 H        0.926     0.037     2.491     2.468
    46   1 H        0.926     0.036     2.500     2.472
    47   1 H        0.926     0.038     2.470     2.458
    48   1 H        0.926     0.039     2.468     2.457
    49   1 H        0.926     0.037     2.495     2.470
    50   1 H        0.926     0.037     2.484     2.464
    51   1 H        0.926     0.041     2.432     2.439
    52   1 H        0.926     0.040     2.447     2.446
    53   1 H        0.926     0.033     2.540     2.492
    54   1 H        0.926     0.035     2.518     2.482
    55   1 H        0.926     0.036     2.508     2.477
    56   1 H        0.926     0.038     2.473     2.459
    57   1 H        0.926     0.037     2.484     2.464
    58   1 H        0.926     0.036     2.505     2.475
    59   1 H        0.926     0.037     2.486     2.466
    60   1 H        0.926     0.034     2.530     2.487
    61   1 H        0.925     0.027     2.624     2.533

molecular dipole:
                 x           y           z       tot (Debye)
 q only:        1.171       0.895       0.462
   full:        0.825       0.973       0.323       3.345

 projected vibrational frequencies (cm⁻¹)
eigval :       -0.00    -0.00     0.00     0.00     0.00     0.00
eigval :       14.88    23.22    26.61    29.74    38.10    58.53
eigval :       71.20    76.17    95.30   101.18   117.13   132.72
eigval :      139.18   147.36   147.95   174.65   186.22   233.21
eigval :      242.01   260.05   269.75   271.26   275.85   311.18
eigval :      350.20   372.77   376.40   381.76   391.22   395.85
eigval :      412.82   418.81   426.00   431.83   436.90   442.35
eigval :      477.31   500.49   514.26   515.57   532.47   535.94
eigval :      539.21   557.42   565.19   571.04   583.71   588.79
eigval :      600.64   609.85   623.25   635.53   657.96   669.29
eigval :      671.88   679.54   693.34   701.19   706.33   707.87
eigval :      750.33   754.12   762.46   766.16   772.41   774.88
eigval :      775.16   777.89   804.20   858.44   860.61   865.93
eigval :      868.70   874.84   883.82   890.96   893.58   895.58
eigval :      896.42   897.51   901.38   903.03   903.79   909.28
eigval :      914.58   918.19   919.44   922.31   924.39   978.80
eigval :      995.55  1008.69  1010.92  1062.14  1065.90  1066.69
eigval :     1068.46  1070.25  1087.27  1105.50  1113.19  1134.99
eigval :     1138.75  1141.90  1155.39  1161.79  1171.82  1174.49
eigval :     1175.58  1178.18  1185.72  1195.99  1222.06  1223.61
eigval :     1225.84  1227.93  1236.91  1272.61  1280.82  1285.87
eigval :     1289.80  1295.93  1310.57  1314.94  1333.55  1339.84
eigval :     1345.33  1348.50  1356.75  1363.17  1366.68  1373.61
eigval :     1395.67  1407.85  1413.05  1420.41  1427.64  1437.25
eigval :     1455.48  1460.90  1463.90  1470.76  1479.72  1482.04
eigval :     1534.16  1557.85  1562.62  1565.13  1570.36  1572.03
eigval :     1576.88  1580.66  1587.91  1597.45  3018.36  3057.29
eigval :     3076.83  3077.35  3077.39  3077.78  3078.06  3082.79
eigval :     3083.77  3083.97  3084.80  3088.40  3090.51  3091.80
eigval :     3091.95  3093.37  3097.28  3097.91  3098.94  3100.38
eigval :     3102.71  3103.35  3104.36

   temp. (K)  partition function   enthalpy   heat capacity  entropy
                                   cal/mol     cal/K/mol   cal/K/mol   J/K/mol
 298.15  VIB  0.968E+12            16615.335    109.687    100.867
         ROT  0.347E+08              888.752      2.981     37.485
         INT  0.336E+20            17504.087    112.668    138.352
         TR   0.104E+29             1481.254      4.968     44.408
         TOT                       18985.3413   117.6358   182.7598   764.6671

       T/K    H(0)-H(T)+PV         H(T)/Eh          T*S/Eh         G(T)/Eh
   ------------------------------------------------------------------------
    298.15    0.302551E-01    0.492724E+00    0.868351E-01    0.405888E+00
   ------------------------------------------------------------------------

         :::::::::::::::::::::::::::::::::::::::::::::::::::::
         ::                  THERMODYNAMIC                  ::
         :::::::::::::::::::::::::::::::::::::::::::::::::::::
         :: total free energy         -95.048017643748 Eh   ::
         ::.................................................::
         :: total energy              -95.453906069393 Eh   ::
         :: zero point energy           0.462468442552 Eh   ::
         :: G(RRHO) w/o ZPVE           -0.056580016906 Eh   ::
         :: G(RRHO) contrib.            0.405888425646 Eh   ::
         :::::::::::::::::::::::::::::::::::::::::::::::::::::

           -------------------------------------------------
          | TOTAL ENERGY              -95.453906069393 Eh   |
          | TOTAL ENTHALPY            -94.961182559688 Eh   |
          | TOTAL FREE ENERGY         -95.048017643748 Eh   |
          | GRADIENT NORM               0.000037670549 Eh/α |
          | HOMO-LUMO GAP               0.525914178864 eV   |
           -------------------------------------------------

 * finished run on 2025/09/14 at 08:31:57.755
