   * xtb version 6.7.1 (edcfbbe) compiled by 'albert@albert-system' on 2024-07-22

   ID    Z sym.   atoms
    1    7 N      1, 6, 20, 36
    2    6 C      2-5, 7-19, 21-35
    3    1 H      37-54

          program call               : xtb data2507/toluene/2CzPN/2CzPN.xyz --gfn 2 --gbsa toluene --ohess vtight --parallel 40 --molden --ceasefiles --namespace data2507/toluene/2CzPN/2CzPN_toluene_S0_preOpt
      * Solvation model:               GBSA
        Solvent                        toluene
        Solvent mass                       9.2140E+01 g/mol
          :  Hamiltonian                  GFN2-xTB          :
 * total energy  :   -89.4098571 Eh     change       -0.1941729E-08 Eh
 * total energy  :   -89.4228018 Eh     change       -0.1294467E-01 Eh
 * total energy  :   -89.4257221 Eh     change       -0.2920320E-02 Eh
 * total energy  :   -89.4262635 Eh     change       -0.5414198E-03 Eh
 * total energy  :   -89.4265167 Eh     change       -0.2531929E-03 Eh
 * total energy  :   -89.4269104 Eh     change       -0.3936730E-03 Eh
 * total energy  :   -89.4270092 Eh     change       -0.9885264E-04 Eh
 * total energy  :   -89.4270932 Eh     change       -0.8403006E-04 Eh
 * total energy  :   -89.4271254 Eh     change       -0.3215670E-04 Eh
 * total energy  :   -89.4272282 Eh     change       -0.1027827E-03 Eh
 * total energy  :   -89.4283911 Eh     change       -0.2966766E-06 Eh
 * total energy  :   -89.4283913 Eh     change       -0.1414080E-06 Eh
 * total energy  :   -89.4283914 Eh     change       -0.9265338E-07 Eh
 * total energy  :   -89.4283916 Eh     change       -0.2263191E-06 Eh
 * total energy  :   -89.4283918 Eh     change       -0.1640644E-06 Eh
 * total energy  :   -89.4283918 Eh     change       -0.1000541E-07 Eh
 * total energy  :   -89.4283919 Eh     change       -0.1417321E-06 Eh
 * total energy  :   -89.4283920 Eh     change       -0.1225949E-06 Eh
 * total energy  :   -89.4283920 Eh     change       -0.9527000E-08 Eh
   *** GEOMETRY OPTIMIZATION CONVERGED AFTER 53 ITERATIONS ***

 final structure:
================
54
 xtb: 6.7.1 (edcfbbe)
N            1.84485274563830        6.33950570800295        0.79336048858051
C            1.30059482894897        5.35635085842064        0.56320385346381
C            0.64697487565156        4.13722179860070        0.27908414463854
C            1.27124160266241        2.92819304238472        0.56354291095343
C            0.64258974209650        1.71554225729829        0.29910500692364
N            1.27885712938505        0.52610689631527        0.63695348841517
C            0.70440655330158       -0.53383332501973        1.32386724030233
C           -0.49888372616651       -0.58666409861620        2.00906902877414
C           -0.83007486597973       -1.77229815805459        2.63889669875570
C            0.02397372938699       -2.87092921637470        2.61004165969041
C            1.25133510943869       -2.80124809813957        1.97901660159605
C            1.60294449642397       -1.62135051762395        1.33837136189416
C            2.78260425354714       -1.19029159610825        0.63693703673504
C            3.98157470022291       -1.81384858022035        0.31971174554456
C            4.92640181526363       -1.10602903369490       -0.39814974937629
C            4.68117643226795        0.20095940293230       -0.80947285374966
C            3.49311293294213        0.84166724852832       -0.50602587126527
C            2.55132030818720        0.14199966794213        0.23215682745082
C           -0.64239758526199        1.71559955857901       -0.29925787333182
N           -1.27879139957498        0.52624481833735       -0.63717230154593
C           -0.70452147936680       -0.53374243212671       -1.32416212757891
C            0.49873523377378       -0.58672521468368       -2.00941206087074
C            0.82976302890580       -1.77240913840830       -2.63923133593773
C           -0.02437488822923       -2.87096923094523       -2.61025532712647
C           -1.25167080294126       -2.80116342536322       -1.97911383399680
C           -1.60313444102077       -1.62120092217330       -1.33850835234017
C           -2.78275910103098       -1.18997777462075       -0.63711018270767
C           -3.98175240957994       -1.81342664195486       -0.31974154032418
C           -4.92636162732833       -1.10557501411971        0.39837041678024
C           -4.68090309567262        0.20133464377220        0.80980055250807
C           -3.49282314444520        0.84193496858744        0.50621181274516
C           -2.55122372297640        0.14222372480684       -0.23217781946322
C           -1.27099872549698        2.92830321756610       -0.56354365209662
C           -0.64667342178905        4.13727534202220       -0.27897111719390
C           -1.30023552750314        5.35644320721298       -0.56311365365402
N           -1.84455930068181        6.33973049748091       -0.79262964565832
H            2.24387871088626        2.93010294285340        1.03239215701082
H           -1.15616645382381        0.26718595981554        2.06838250978797
H           -1.76953663218281       -1.84149272256460        3.16667686733303
H           -0.27159732173558       -3.78215716458669        3.10811083800092
H            1.92875849993616       -3.64128824677795        1.98829520642751
H            4.16522424965904       -2.83223300382752        0.62601967087216
H            5.86686523027117       -1.57151735883949       -0.65261231714584
H            5.43183323815497        0.72771173876820       -1.37981303331781
H            3.31287309286800        1.85050076822353       -0.84713683969799
H            1.15618335755598        0.26700595509827       -2.06864529763225
H            1.76923446283002       -1.84174128481844       -3.16698147496305
H            0.27098173104060       -3.78217429423217       -3.10849592630694
H           -1.92928739333672       -3.64104660010713       -1.98852366567992
H           -4.16538272292940       -2.83191915975956       -0.62569816519313
H           -5.86666673775093       -1.57111970028028        0.65331623245645
H           -5.43138500328462        0.72810470606005        1.38035372022640
H           -3.31252101979922        1.85081331218467        0.84715104917003
H           -2.24360954136013        2.93030571222873       -1.03244310887808

          :  Hamiltonian                  GFN2-xTB          :
         :: gradient norm              0.000136877827 Eh/a0 ::
         :: HOMO-LUMO gap              1.833940849523 eV    ::
         :: SCC energy               -91.168958678445 Eh    ::
         :: -> dispersion             -0.086618936019 Eh    ::
         :: -> Gsolv                  -0.039581004643 Eh    ::
         :: repulsion energy           1.740566643955 Eh    ::

    * Orbital Energies and Occupations

         #    Occupation            Energy/Eh            Energy/eV
      -------------------------------------------------------------
         1        2.0000           -0.7102905             -19.3280
       ...           ...                  ...                  ...
        71        2.0000           -0.4381364             -11.9223
        72        2.0000           -0.4344505             -11.8220
        73        2.0000           -0.4324506             -11.7676
        74        2.0000           -0.4298368             -11.6965
        75        2.0000           -0.4292958             -11.6817
        76        2.0000           -0.4291724             -11.6784
        77        2.0000           -0.4280571             -11.6480
        78        2.0000           -0.4160642             -11.3217
        79        2.0000           -0.4156311             -11.3099
        80        2.0000           -0.3918342             -10.6624
        81        2.0000           -0.3881079             -10.5610
        82        2.0000           -0.3815390             -10.3822
        83        2.0000           -0.3785277             -10.3003 (HOMO)
        84                         -0.3111316              -8.4663 (LUMO)
        85                         -0.2866736              -7.8008
        86                         -0.2562533              -6.9730
        87                         -0.2557037              -6.9581
        88                         -0.2363314              -6.4309
        89                         -0.2331888              -6.3454
        90                         -0.2300439              -6.2598
        91                         -0.2285682              -6.2197
        92                         -0.2234601              -6.0807
        93                         -0.2073287              -5.6417
        94                         -0.1973767              -5.3709
       ...                                ...                  ...
       162                          1.1629113              31.6444
      -------------------------------------------------------------
                  HL-Gap            0.0673962 Eh            1.8339 eV

     #   Z          covCN         q      C6AA      α(0)
     1   7 N        0.911    -0.245    26.393     7.430
     2   6 C        1.911     0.120    28.160     8.570
     3   6 C        2.975     0.020    27.556     8.611
     4   6 C        2.928    -0.032    28.809     8.802
     5   6 C        2.909     0.061    26.643     8.464
     6   7 N        2.801    -0.040    22.012     6.968
     7   6 C        3.068     0.046    26.896     8.504
     8   6 C        2.910    -0.048    29.188     8.859
     9   6 C        2.924    -0.031    28.784     8.798
    10   6 C        2.920    -0.037    28.928     8.820
    11   6 C        2.913    -0.032    28.792     8.799
    12   6 C        3.065    -0.014    28.284     8.721
    13   6 C        3.066    -0.013    28.259     8.717
    14   6 C        2.913    -0.031    28.772     8.796
    15   6 C        2.920    -0.038    28.934     8.821
    16   6 C        2.924    -0.032    28.789     8.799
    17   6 C        2.910    -0.050    29.242     8.867
    18   6 C        3.065     0.047    26.890     8.503
    19   6 C        2.909     0.061    26.643     8.464
    20   7 N        2.801    -0.040    22.013     6.968
    21   6 C        3.068     0.046    26.896     8.504
    22   6 C        2.910    -0.048    29.188     8.859
    23   6 C        2.924    -0.031    28.784     8.798
    24   6 C        2.920    -0.037    28.928     8.820
    25   6 C        2.913    -0.032    28.792     8.799
    26   6 C        3.065    -0.014    28.284     8.721
    27   6 C        3.066    -0.013    28.260     8.717
    28   6 C        2.913    -0.031    28.772     8.796
    29   6 C        2.920    -0.038    28.934     8.821
    30   6 C        2.924    -0.032    28.789     8.799
    31   6 C        2.910    -0.050    29.242     8.867
    32   6 C        3.065     0.047    26.890     8.503
    33   6 C        2.928    -0.032    28.809     8.802
    34   6 C        2.975     0.020    27.556     8.611
    35   6 C        1.911     0.120    28.160     8.570
    36   7 N        0.911    -0.245    26.393     7.430
    37   1 H        0.926     0.068     2.113     2.273
    38   1 H        0.926     0.026     2.649     2.545
    39   1 H        0.926     0.036     2.503     2.474
    40   1 H        0.926     0.037     2.484     2.465
    41   1 H        0.926     0.040     2.448     2.447
    42   1 H        0.926     0.040     2.450     2.448
    43   1 H        0.926     0.037     2.487     2.466
    44   1 H        0.926     0.037     2.483     2.464
    45   1 H        0.926     0.028     2.609     2.526
    46   1 H        0.926     0.026     2.649     2.545
    47   1 H        0.926     0.036     2.503     2.474
    48   1 H        0.926     0.037     2.484     2.465
    49   1 H        0.926     0.040     2.448     2.447
    50   1 H        0.926     0.040     2.450     2.448
    51   1 H        0.926     0.037     2.487     2.466
    52   1 H        0.926     0.037     2.483     2.464
    53   1 H        0.926     0.028     2.609     2.526
    54   1 H        0.926     0.068     2.113     2.273

molecular dipole:
                 x           y           z       tot (Debye)
 q only:        0.000      -2.781      -0.000
   full:        0.000      -3.291      -0.000       8.365

 projected vibrational frequencies (cm⁻¹)
eigval :       -0.00    -0.00    -0.00    -0.00     0.00     0.00
eigval :       24.29    34.19    39.07    47.16    50.08    52.90
eigval :       90.75    98.37   104.64   104.91   118.81   138.59
eigval :      146.23   157.78   173.18   182.86   193.24   207.07
eigval :      262.09   271.59   274.61   279.46   310.20   311.09
eigval :      351.57   390.32   397.14   401.00   419.25   421.70
eigval :      425.05   432.47   441.05   445.08   481.69   482.69
eigval :      516.37   517.81   529.16   529.40   541.30   541.41
eigval :      547.38   558.33   583.66   586.36   589.97   598.35
eigval :      649.72   653.49   663.10   671.46   675.04   689.19
eigval :      704.96   708.02   710.10   750.77   753.82   759.65
eigval :      768.92   769.20   781.10   781.62   836.47   865.15
eigval :      867.84   875.11   875.47   882.28   892.57   894.71
eigval :      899.45   904.22   904.34   906.43   907.04   921.62
eigval :      921.92   924.77   924.96   954.42  1010.99  1012.09
eigval :     1069.26  1070.33  1071.73  1074.94  1077.52  1115.79
eigval :     1138.28  1150.80  1150.93  1167.81  1169.95  1178.59
eigval :     1178.64  1182.47  1183.34  1219.03  1221.31  1230.80
eigval :     1232.69  1234.86  1258.05  1289.59  1291.03  1294.74
eigval :     1297.39  1312.95  1323.70  1354.65  1356.05  1358.30
eigval :     1358.58  1378.38  1404.05  1422.38  1423.65  1425.21
eigval :     1426.26  1469.29  1471.03  1481.32  1483.90  1484.19
eigval :     1495.19  1543.24  1576.87  1576.88  1590.04  1590.40
eigval :     1597.73  1598.23  1610.37  1611.20  2362.72  2363.14
eigval :     3074.91  3074.97  3079.59  3079.64  3080.89  3081.01
eigval :     3085.12  3085.39  3088.69  3088.91  3092.50  3092.75
eigval :     3097.08  3097.39  3099.68  3099.94  3101.04  3101.23

   temp. (K)  partition function   enthalpy   heat capacity  entropy
                                   cal/mol     cal/K/mol   cal/K/mol   J/K/mol
 298.15  VIB  0.418E+11            15545.430    101.763     94.311
         ROT  0.110E+08              888.752      2.981     35.195
         INT  0.459E+18            16434.183    104.744    129.506
         TR   0.950E+28             1481.254      4.968     44.237
         TOT                       17915.4366   109.7119   173.7428   726.9400

       T/K    H(0)-H(T)+PV         H(T)/Eh          T*S/Eh         G(T)/Eh
   ------------------------------------------------------------------------
    298.15    0.285501E-01    0.426487E+00    0.825508E-01    0.343936E+00
   ------------------------------------------------------------------------

         :::::::::::::::::::::::::::::::::::::::::::::::::::::
         ::                  THERMODYNAMIC                  ::
         :::::::::::::::::::::::::::::::::::::::::::::::::::::
         :: total free energy         -89.084455787089 Eh   ::
         ::.................................................::
         :: total energy              -89.428392033750 Eh   ::
         :: zero point energy           0.397937009133 Eh   ::
         :: G(RRHO) w/o ZPVE           -0.054000762472 Eh   ::
         :: G(RRHO) contrib.            0.343936246661 Eh   ::
         :::::::::::::::::::::::::::::::::::::::::::::::::::::

           -------------------------------------------------
          | TOTAL ENERGY              -89.428392033750 Eh   |
          | TOTAL ENTHALPY            -89.001904959131 Eh   |
          | TOTAL FREE ENERGY         -89.084455787089 Eh   |
          | GRADIENT NORM               0.000136914655 Eh/α |
          | HOMO-LUMO GAP               1.833942880233 eV   |
           -------------------------------------------------

 * finished run on 2025/07/16 at 11:57:21.171
