   * xtb version 6.7.1 (edcfbbe) compiled by 'albert@albert-system' on 2024-07-22

   ID    Z sym.   atoms
    1    7 N      1, 6, 20, 36
    2    6 C      2-5, 7-19, 21-35
    3    1 H      37-54

          program call               : xtb data2507/toluene/2CzPN/2CzPN_toluene_T1_crest.xyz --gfn 2 --uhf 2 --gbsa toluene --ohess vtight --parallel 40 --molden --ceasefiles --namespace data2507/toluene/2CzPN/2CzPN_toluene_T1_finalOpt
      * Solvation model:               GBSA
        Solvent                        toluene
        Solvent mass                       9.2140E+01 g/mol
          :  Hamiltonian                  GFN2-xTB          :
 * total energy  :   -89.3443078 Eh     change       -0.3914337E-08 Eh
 * total energy  :   -89.3444348 Eh     change       -0.1269880E-03 Eh
 * total energy  :   -89.3445237 Eh     change       -0.8886892E-04 Eh
 * total energy  :   -89.3445704 Eh     change       -0.4670811E-04 Eh
 * total energy  :   -89.3446416 Eh     change       -0.7127174E-04 Eh
 * total energy  :   -89.3446936 Eh     change       -0.5196648E-04 Eh
 * total energy  :   -89.3447415 Eh     change       -0.4788848E-04 Eh
 * total energy  :   -89.3448116 Eh     change       -0.7013107E-04 Eh
 * total energy  :   -89.3448540 Eh     change       -0.4236102E-04 Eh
 * total energy  :   -89.3448985 Eh     change       -0.4455794E-04 Eh
 * total energy  :   -89.3453420 Eh     change       -0.1310479E-05 Eh
 * total energy  :   -89.3453430 Eh     change       -0.9711571E-06 Eh
 * total energy  :   -89.3453438 Eh     change       -0.7822247E-06 Eh
 * total energy  :   -89.3453444 Eh     change       -0.6493488E-06 Eh
 * total energy  :   -89.3453449 Eh     change       -0.5411226E-06 Eh
 * total energy  :   -89.3453455 Eh     change       -0.5363617E-06 Eh
 * total energy  :   -89.3453459 Eh     change       -0.4650352E-06 Eh
 * total energy  :   -89.3453463 Eh     change       -0.3337941E-06 Eh
 * total energy  :   -89.3453463 Eh     change       -0.2688864E-08 Eh
   *** GEOMETRY OPTIMIZATION CONVERGED AFTER 44 ITERATIONS ***

 final structure:
================
54
 xtb: 6.7.1 (edcfbbe)
N           -5.89698707718171       -1.86027379142506       -0.85471429839810
C           -4.90943986231691       -1.30673953673401       -0.60396067485287
C           -3.71778680058078       -0.67262327770187       -0.29669082453314
C           -2.49451824760876       -1.28314337555128       -0.57527455289384
C           -1.29396394570429       -0.65774517721265       -0.31530091841045
N           -0.08508949895331       -1.23827557549407       -0.69488583655506
C            0.93101661210604       -0.60494575857362       -1.38777951895550
C            0.91652787785313        0.61702877217684       -2.04815319084297
C            2.07447134306739        1.01641622234852       -2.69110871910282
C            3.21181502074797        0.21413215364858       -2.69654069636083
C            3.21110714435634       -1.03329605404237       -2.09122269261892
C            2.06099351010970       -1.45418477769337       -1.44466306517928
C            1.68658538473678       -2.67312146441226       -0.77473506070846
C            2.35457172983085       -3.85509003986066       -0.50267813981821
C            1.68526493059303       -4.84972622238731        0.19316621080809
C            0.37428103148604       -4.66676346523575        0.62886199907042
C           -0.31205598034180       -3.49487320096416        0.37085276429381
C            0.34651835182655       -2.50103901141082       -0.34597088923224
C           -1.29433792282091        0.65691729788247        0.31353790092018
N           -0.08576366870878        1.23806857409305        0.69311794221403
C            0.93046088009417        0.60509667558215        1.38615081617959
C            0.91625434829337       -0.61691578964068        2.04646053036277
C            2.07417921262101       -1.01589392308810        2.68969372867276
C            3.21121882183602       -0.21318826007445        2.69541621646557
C            3.21015417507662        1.03432604785399        2.09026656311853
C            2.06002419481110        1.45484647226960        1.44350191525061
C            1.68512728824730        2.67381434944679        0.77389337801564
C            2.35244430596154        3.85634614768496        0.50267407107316
C            1.68265809755153        4.85099816102786       -0.19268950292568
C            0.37188324557537        4.66748929824530       -0.62878623510182
C           -0.31377527631738        3.49500452519394       -0.37166898997222
C            0.34524240858951        2.50117035503144        0.34474853442408
C           -2.49526940483676        1.28136963493410        0.57408463409558
C           -3.71817698736023        0.66975592742562        0.29635916700993
C           -4.91020753236442        1.30263498125527        0.60475490963488
N           -5.89815269730414        1.85489337604478        0.85669542126907
H           -2.50042746580751       -2.24965079113939       -1.05923025228992
H            0.02700510012566        1.22719127915959       -2.08055796257586
H            2.09022675071507        1.96572873377206       -3.20410688402899
H            4.10018001905122        0.56180707349416       -3.20127893136555
H            4.08313466124692       -1.66709815551006       -2.12982890810279
H            3.37574018974690       -3.99456750684609       -0.82113772098268
H            2.18722934583043       -5.78039876085205        0.40977286716304
H           -0.11699657639643       -5.45446988646362        1.17951096435287
H           -1.32434793302399       -3.35973584799061        0.72040453314275
H            0.02691117301413       -1.22735009373199        2.07868284537996
H            2.09014710318954       -1.96520550062328        3.20268533537295
H            4.09961197225459       -0.56059035121357        3.20029084666876
H            4.08194230520105        1.66844097259392        2.12913266725528
H            3.37345694217172        3.99626965741110        0.82143882760205
H            2.18407155525973        5.78213810908738       -0.40856045181955
H           -0.11975182894316        5.45523261618940       -1.17906334373159
H           -1.32590544280373        3.35942919647534       -0.72151755646161
H           -2.50169810281004        2.24788404434711        1.05801764330527

          :  Hamiltonian                  GFN2-xTB          :
         :: gradient norm              0.000046662646 Eh/a0 ::
         :: HOMO-LUMO gap              0.650528398713 eV    ::
         :: SCC energy               -91.062491793163 Eh    ::
         :: -> dispersion             -0.086337849335 Eh    ::
         :: -> Gsolv                  -0.052836980128 Eh    ::
         :: repulsion energy           1.717145506778 Eh    ::

    * Orbital Energies and Occupations

         #    Occupation            Energy/Eh            Energy/eV
      -------------------------------------------------------------
         1        2.0000           -0.7041889             -19.1620
       ...           ...                  ...                  ...
        72        2.0000           -0.4386424             -11.9361
        73        2.0000           -0.4377834             -11.9127
        74        2.0000           -0.4297134             -11.6931
        75        2.0000           -0.4280020             -11.6465
        76        2.0000           -0.4261159             -11.5952
        77        2.0000           -0.4130291             -11.2391
        78        2.0000           -0.4122306             -11.2174
        79        2.0000           -0.4116231             -11.2008
        80        2.0000           -0.4035421             -10.9809
        81        2.0000           -0.3993665             -10.8673
        82        1.9454           -0.3886819             -10.5766
        83        1.0546           -0.3832631             -10.4291
        84        1.0000           -0.2912911              -7.9264 (HOMO)
        85        0.0000           -0.2673845              -7.2759 (LUMO)
        86        0.0000           -0.2660764              -7.2403
        87                         -0.2598686              -7.0714
        88                         -0.2494416              -6.7877
        89                         -0.2424324              -6.5969
        90                         -0.2241399              -6.0992
        91                         -0.2182151              -5.9379
        92                         -0.2084872              -5.6732
        93                         -0.2076170              -5.6495
        94                         -0.1999048              -5.4397
        95                         -0.1984472              -5.4000
       ...                                ...                  ...
       162                          1.1766116              32.0172
      -------------------------------------------------------------
                  HL-Gap            0.0239065 Eh            0.6505 eV

     #   Z          covCN         q      C6AA      α(0)
     1   7 N        0.911    -0.338    28.695     7.747
     2   6 C        1.910     0.100    28.624     8.640
     3   6 C        2.964    -0.015    28.392     8.740
     4   6 C        2.920    -0.034    28.841     8.807
     5   6 C        2.904     0.029    27.344     8.574
     6   7 N        2.799    -0.003    21.315     6.857
     7   6 C        3.074     0.043    26.971     8.515
     8   6 C        2.910    -0.038    28.941     8.821
     9   6 C        2.922    -0.029    28.726     8.789
    10   6 C        2.920    -0.028    28.711     8.787
    11   6 C        2.912    -0.025    28.634     8.775
    12   6 C        3.062    -0.010    28.193     8.707
    13   6 C        3.065    -0.007    28.121     8.696
    14   6 C        2.911    -0.025    28.638     8.775
    15   6 C        2.920    -0.026    28.649     8.777
    16   6 C        2.922    -0.028    28.704     8.786
    17   6 C        2.909    -0.037    28.920     8.818
    18   6 C        3.070     0.047    26.870     8.499
    19   6 C        2.904     0.029    27.344     8.574
    20   7 N        2.799    -0.003    21.314     6.857
    21   6 C        3.074     0.043    26.971     8.515
    22   6 C        2.910    -0.038    28.941     8.821
    23   6 C        2.922    -0.029    28.726     8.789
    24   6 C        2.920    -0.028    28.711     8.787
    25   6 C        2.912    -0.025    28.634     8.775
    26   6 C        3.062    -0.010    28.194     8.707
    27   6 C        3.065    -0.007    28.121     8.696
    28   6 C        2.911    -0.025    28.638     8.775
    29   6 C        2.920    -0.026    28.649     8.777
    30   6 C        2.922    -0.028    28.704     8.786
    31   6 C        2.909    -0.037    28.920     8.818
    32   6 C        3.070     0.047    26.870     8.499
    33   6 C        2.920    -0.034    28.841     8.807
    34   6 C        2.964    -0.015    28.392     8.740
    35   6 C        1.910     0.100    28.624     8.640
    36   7 N        0.911    -0.338    28.695     7.747
    37   1 H        0.926     0.042     2.418     2.432
    38   1 H        0.926     0.037     2.486     2.466
    39   1 H        0.926     0.047     2.360     2.402
    40   1 H        0.926     0.050     2.315     2.379
    41   1 H        0.926     0.053     2.286     2.364
    42   1 H        0.926     0.054     2.274     2.358
    43   1 H        0.926     0.051     2.303     2.373
    44   1 H        0.926     0.048     2.342     2.393
    45   1 H        0.926     0.041     2.429     2.437
    46   1 H        0.926     0.037     2.486     2.466
    47   1 H        0.926     0.047     2.360     2.402
    48   1 H        0.926     0.050     2.315     2.379
    49   1 H        0.926     0.053     2.286     2.364
    50   1 H        0.926     0.054     2.274     2.358
    51   1 H        0.926     0.051     2.303     2.373
    52   1 H        0.926     0.048     2.342     2.393
    53   1 H        0.926     0.041     2.429     2.437
    54   1 H        0.926     0.042     2.418     2.432

molecular dipole:
                 x           y           z       tot (Debye)
 q only:        7.220       0.003      -0.001
   full:        7.616       0.003      -0.002      19.358

 projected vibrational frequencies (cm⁻¹)
eigval :       -0.00    -0.00     0.00     0.00     0.00     0.00
eigval :       21.09    35.29    40.77    41.00    52.62    56.13
eigval :       86.70    99.77   107.08   110.65   120.97   140.78
eigval :      143.01   157.30   171.24   178.16   189.37   194.72
eigval :      257.06   269.80   271.48   278.21   308.81   319.98
eigval :      346.43   368.63   375.81   393.79   400.64   408.08
eigval :      416.06   418.59   434.08   435.29   459.53   473.99
eigval :      480.23   511.09   512.33   519.33   532.01   533.45
eigval :      548.79   550.90   578.26   579.78   584.84   587.95
eigval :      592.13   637.60   645.17   660.25   669.14   674.78
eigval :      690.70   707.12   708.75   733.87   752.01   755.00
eigval :      767.00   768.49   776.11   776.21   832.68   860.94
eigval :      866.21   873.63   873.99   877.18   887.51   893.52
eigval :      894.36   906.51   906.62   908.40   909.20   919.84
eigval :      920.27   922.82   923.26   933.27  1007.40  1007.93
eigval :     1065.42  1065.81  1066.33  1070.23  1074.62  1105.59
eigval :     1132.34  1133.71  1147.55  1162.74  1163.87  1172.37
eigval :     1172.72  1177.02  1180.13  1190.07  1217.12  1220.90
eigval :     1222.27  1224.98  1259.54  1264.01  1266.48  1284.28
eigval :     1288.56  1318.05  1322.64  1326.28  1331.56  1340.24
eigval :     1360.80  1362.41  1368.26  1394.76  1399.04  1406.59
eigval :     1409.31  1418.72  1435.73  1453.59  1454.59  1458.86
eigval :     1475.57  1476.30  1554.67  1555.76  1564.23  1564.51
eigval :     1566.21  1569.59  1588.86  1593.39  2226.25  2264.64
eigval :     3080.99  3081.02  3085.62  3085.65  3088.06  3088.13
eigval :     3089.99  3090.17  3092.19  3092.46  3097.21  3097.52
eigval :     3099.17  3099.43  3104.04  3104.23  3105.50  3106.36

   temp. (K)  partition function   enthalpy   heat capacity  entropy
                                   cal/mol     cal/K/mol   cal/K/mol   J/K/mol
 298.15  VIB  0.595E+11            15784.675    103.168     95.682
         ROT  0.109E+08              888.752      2.981     35.179
         INT  0.647E+18            16673.427    106.149    130.861
         TR   0.950E+28             1481.254      4.968     44.237
         TOT                       18154.6810   111.1171   175.0984   732.6118

       T/K    H(0)-H(T)+PV         H(T)/Eh          T*S/Eh         G(T)/Eh
   ------------------------------------------------------------------------
    298.15    0.289313E-01    0.423327E+00    0.831949E-01    0.340132E+00
   ------------------------------------------------------------------------

         :::::::::::::::::::::::::::::::::::::::::::::::::::::
         ::                  THERMODYNAMIC                  ::
         :::::::::::::::::::::::::::::::::::::::::::::::::::::
         :: total free energy         -89.005214612215 Eh   ::
         ::.................................................::
         :: total energy              -89.345346285363 Eh   ::
         :: zero point energy           0.394395255419 Eh   ::
         :: G(RRHO) w/o ZPVE           -0.054263582270 Eh   ::
         :: G(RRHO) contrib.            0.340131673149 Eh   ::
         :::::::::::::::::::::::::::::::::::::::::::::::::::::

           -------------------------------------------------
          | TOTAL ENERGY              -89.345346285363 Eh   |
          | TOTAL ENTHALPY            -88.922019704259 Eh   |
          | TOTAL FREE ENERGY         -89.005214612215 Eh   |
          | GRADIENT NORM               0.000046349513 Eh/α |
          | HOMO-LUMO GAP               0.650529719827 eV   |
           -------------------------------------------------

 * finished run on 2025/07/16 at 12:01:54.109
