   * xtb version 6.7.1 (edcfbbe) compiled by 'albert@albert-system' on 2024-07-22

   ID    Z sym.   atoms
    1    7 N      1, 6, 20, 36
    2    6 C      2-5, 7-19, 21-35
    3    1 H      37-54

          program call               : xtb data2507/toluene/2CzPN/2CzPN_toluene_S0_finalOpt.xtbopt.xyz --gfn 2 --uhf 2 --gbsa toluene --ohess vtight --parallel 40 --molden --ceasefiles --namespace data2507/toluene/2CzPN/2CzPN_toluene_T1_preOpt
      * Solvation model:               GBSA
        Solvent                        toluene
        Solvent mass                       9.2140E+01 g/mol
          :  Hamiltonian                  GFN2-xTB          :
 * total energy  :   -89.3400111 Eh     change       -0.6448460E-09 Eh
 * total energy  :   -89.3441462 Eh     change       -0.4135092E-02 Eh
 * total energy  :   -89.3448873 Eh     change       -0.7410666E-03 Eh
 * total energy  :   -89.3450015 Eh     change       -0.1141694E-03 Eh
 * total energy  :   -89.3451481 Eh     change       -0.1465998E-03 Eh
 * total energy  :   -89.3451606 Eh     change       -0.1253120E-04 Eh
 * total energy  :   -89.3451620 Eh     change       -0.1423824E-05 Eh
 * total energy  :   -89.3451784 Eh     change       -0.1635296E-04 Eh
 * total energy  :   -89.3451864 Eh     change       -0.8026043E-05 Eh
 * total energy  :   -89.3451931 Eh     change       -0.6700055E-05 Eh
 * total energy  :   -89.3452989 Eh     change       -0.8566048E-06 Eh
 * total energy  :   -89.3452997 Eh     change       -0.8123603E-06 Eh
 * total energy  :   -89.3453005 Eh     change       -0.7918265E-06 Eh
 * total energy  :   -89.3453013 Eh     change       -0.7710214E-06 Eh
 * total energy  :   -89.3453020 Eh     change       -0.6805341E-06 Eh
 * total energy  :   -89.3453028 Eh     change       -0.7838286E-06 Eh
 * total energy  :   -89.3453035 Eh     change       -0.6999289E-06 Eh
 * total energy  :   -89.3453041 Eh     change       -0.6804239E-06 Eh
 * total energy  :   -89.3453042 Eh     change       -0.7477695E-08 Eh
   *** GEOMETRY OPTIMIZATION CONVERGED AFTER 68 ITERATIONS ***

 final structure:
================
54
 xtb: 6.7.1 (edcfbbe)
N           -5.89598751553099        1.86328559925011        0.82814344143776
C           -4.90778983859775        1.30776790910912        0.58446262128040
C           -3.71547689445324        0.67099063751796        0.28537301920669
C           -2.49296041744255        1.29023853872016        0.54663352831987
C           -1.29056178182077        0.66322617501132        0.29784124300622
N           -0.08474205949023        1.26483424879854        0.65318315175655
C            0.94487633313433        0.66445957548451        1.35493642452157
C            0.95406479597679       -0.54077618845700        2.04572908216260
C            2.12297324561769       -0.90732456467172        2.68813454612142
C            3.24818918148536       -0.08821852812276        2.66495994605272
C            3.22377672636157        1.14398385985887        2.02976527578771
C            2.06267259803682        1.53143691229743        1.38210542297733
C            1.66633942607981        2.72707107093706        0.68344535751095
C            2.31521648476582        3.91122164545301        0.37658311689994
C            1.62788569334854        4.87657580040137       -0.34261656376421
C            0.31857523549458        4.66150890304204       -0.76831382077962
C           -0.34895449199958        3.48700966984546       -0.47497001452002
C            0.32686166536486        2.52406618210582        0.26734376539599
C           -1.28884843944134       -0.66735224009579       -0.29635933726031
N           -0.08153658533315       -1.26530023578524       -0.65277466088702
C            0.94555453735308       -0.66178052731077       -1.35552362025168
C            0.95034750259095        0.54344332161862       -2.04636711920794
C            2.11749408635936        0.91356342518011       -2.68992854498628
C            3.24524136817429        0.09791270912703       -2.66783253846282
C            3.22524591698152       -1.13432983577145       -2.03257097249081
C            2.06596629402113       -1.52533477625320       -1.38375867209934
C            1.67396080606194       -2.72216541164821       -0.68472173543457
C            2.32676885622082       -3.90430901385780       -0.37843366149243
C            1.64309123170893       -4.87173913279051        0.34144781448069
C            0.33354583630338       -4.66066663281531        0.76842410679412
C           -0.33786024894908       -3.48821727464569        0.47571422131060
C            0.33426788764840       -2.52326304348930       -0.26732441923179
C           -2.48957725132068       -1.29798243758048       -0.54405213402880
C           -3.71370861735293       -0.68238307390046       -0.28172794163141
C           -4.90440775804293       -1.32263664394212       -0.57982826510644
N           -5.89121465307389       -1.88097424102300       -0.82270088516919
H           -2.50017913617667        2.26750947334521        1.00849948626961
H            0.07432418459178       -1.16326508569733        2.10078391896475
H            2.15695291595418       -1.84384862020784        3.22328588325512
H            4.14566106856254       -0.41014963356738        3.17061941092848
H            4.08614307378385        1.79182898297244        2.04595595282759
H            3.33540845442542        4.07469126261433        0.68666985543537
H            2.11448913479877        5.80872855291826       -0.58625248504844
H           -0.18665128146537        5.42580033273375       -1.33897601683911
H           -1.36006048762068        3.32672837752333       -0.81721495091885
H            0.06864847680877        1.16323141981766       -2.10059263033128
H            2.14808043807428        1.85017238474507       -3.22513732508546
H            4.14123014103450        0.42258512168869       -3.17437761609787
H            4.08958358078114       -1.77952089376175       -2.04960469915979
H            3.34718100201486       -4.06464350348215       -0.68943340882022
H            2.13278707544296       -5.80238687568377        0.58464538352605
H           -0.16877085890414       -5.42647267259536        1.33962412468934
H           -1.34909671902319       -3.33101756642470        0.81901210924941
H           -2.49428299005218       -2.27527537555352       -1.00590251925544

          :  Hamiltonian                  GFN2-xTB          :
         :: gradient norm              0.000073078830 Eh/a0 ::
         :: HOMO-LUMO gap              0.650346156527 eV    ::
         :: SCC energy               -91.062412595199 Eh    ::
         :: -> dispersion             -0.086272667181 Eh    ::
         :: -> Gsolv                  -0.052804027420 Eh    ::
         :: repulsion energy           1.717108437861 Eh    ::

    * Orbital Energies and Occupations

         #    Occupation            Energy/Eh            Energy/eV
      -------------------------------------------------------------
         1        2.0000           -0.7041494             -19.1609
       ...           ...                  ...                  ...
        72        2.0000           -0.4386611             -11.9366
        73        2.0000           -0.4377698             -11.9123
        74        2.0000           -0.4297074             -11.6929
        75        2.0000           -0.4277833             -11.6406
        76        2.0000           -0.4262885             -11.5999
        77        2.0000           -0.4130558             -11.2398
        78        2.0000           -0.4123300             -11.2201
        79        2.0000           -0.4116544             -11.2017
        80        2.0000           -0.4034717             -10.9790
        81        2.0000           -0.3993862             -10.8679
        82        1.9427           -0.3886726             -10.5763
        83        1.0573           -0.3833509             -10.4315
        84        1.0000           -0.2912780              -7.9261 (HOMO)
        85        0.0000           -0.2673783              -7.2757 (LUMO)
        86        0.0000           -0.2659848              -7.2378
        87                         -0.2599584              -7.0738
        88                         -0.2493677              -6.7856
        89                         -0.2425425              -6.5999
        90                         -0.2242263              -6.1015
        91                         -0.2180484              -5.9334
        92                         -0.2084371              -5.6719
        93                         -0.2076465              -5.6504
        94                         -0.1999673              -5.4414
        95                         -0.1984284              -5.3995
       ...                                ...                  ...
       162                          1.1765916              32.0167
      -------------------------------------------------------------
                  HL-Gap            0.0238997 Eh            0.6503 eV

     #   Z          covCN         q      C6AA      α(0)
     1   7 N        0.911    -0.338    28.693     7.747
     2   6 C        1.910     0.100    28.624     8.640
     3   6 C        2.964    -0.015    28.391     8.740
     4   6 C        2.920    -0.034    28.841     8.807
     5   6 C        2.904     0.029    27.344     8.574
     6   7 N        2.799    -0.003    21.312     6.856
     7   6 C        3.073     0.043    26.970     8.515
     8   6 C        2.910    -0.038    28.941     8.821
     9   6 C        2.922    -0.029    28.726     8.789
    10   6 C        2.920    -0.028    28.707     8.786
    11   6 C        2.912    -0.025    28.636     8.775
    12   6 C        3.062    -0.009    28.191     8.707
    13   6 C        3.065    -0.007    28.123     8.696
    14   6 C        2.911    -0.025    28.637     8.775
    15   6 C        2.920    -0.026    28.650     8.778
    16   6 C        2.922    -0.028    28.705     8.786
    17   6 C        2.909    -0.037    28.922     8.818
    18   6 C        3.071     0.047    26.872     8.500
    19   6 C        2.904     0.029    27.344     8.574
    20   7 N        2.799    -0.003    21.312     6.856
    21   6 C        3.073     0.043    26.970     8.515
    22   6 C        2.910    -0.038    28.941     8.821
    23   6 C        2.922    -0.029    28.726     8.789
    24   6 C        2.920    -0.028    28.707     8.786
    25   6 C        2.912    -0.025    28.636     8.775
    26   6 C        3.062    -0.009    28.191     8.707
    27   6 C        3.065    -0.007    28.122     8.696
    28   6 C        2.911    -0.025    28.637     8.775
    29   6 C        2.920    -0.026    28.650     8.778
    30   6 C        2.922    -0.028    28.705     8.786
    31   6 C        2.909    -0.037    28.922     8.818
    32   6 C        3.071     0.047    26.872     8.500
    33   6 C        2.920    -0.034    28.841     8.807
    34   6 C        2.964    -0.015    28.391     8.740
    35   6 C        1.910     0.100    28.624     8.640
    36   7 N        0.911    -0.338    28.693     7.747
    37   1 H        0.926     0.042     2.417     2.431
    38   1 H        0.926     0.037     2.487     2.466
    39   1 H        0.926     0.047     2.359     2.402
    40   1 H        0.926     0.050     2.314     2.379
    41   1 H        0.926     0.053     2.285     2.364
    42   1 H        0.926     0.054     2.274     2.358
    43   1 H        0.926     0.051     2.304     2.374
    44   1 H        0.926     0.048     2.344     2.394
    45   1 H        0.926     0.041     2.431     2.438
    46   1 H        0.926     0.037     2.487     2.466
    47   1 H        0.926     0.047     2.359     2.402
    48   1 H        0.926     0.050     2.314     2.379
    49   1 H        0.926     0.053     2.285     2.364
    50   1 H        0.926     0.054     2.274     2.358
    51   1 H        0.926     0.051     2.304     2.374
    52   1 H        0.926     0.048     2.344     2.394
    53   1 H        0.926     0.041     2.431     2.438
    54   1 H        0.926     0.042     2.417     2.431

molecular dipole:
                 x           y           z       tot (Debye)
 q only:        7.211       0.011      -0.003
   full:        7.607       0.011      -0.003      19.334

 projected vibrational frequencies (cm⁻¹)
eigval :       -0.00    -0.00     0.00     0.00     0.00     0.00
eigval :       21.17    35.45    40.91    41.88    49.76    55.76
eigval :       86.26    99.81   104.93   106.13   119.04   141.05
eigval :      141.92   156.41   171.68   177.65   189.96   196.19
eigval :      256.76   269.33   269.33   278.21   308.81   320.02
eigval :      346.48   367.10   376.30   392.91   399.73   407.87
eigval :      415.35   417.34   432.91   434.88   460.11   473.96
eigval :      480.33   511.16   512.16   520.40   531.08   532.28
eigval :      548.71   550.62   578.56   579.44   585.57   588.19
eigval :      592.08   637.07   645.54   660.44   668.09   673.65
eigval :      690.38   706.40   708.07   734.33   751.66   754.64
eigval :      766.70   767.60   775.91   776.08   832.74   860.44
eigval :      865.96   872.47   873.06   877.17   887.12   892.90
eigval :      894.36   904.87   905.05   907.17   908.10   918.53
eigval :      918.96   923.95   924.32   933.43  1007.23  1007.80
eigval :     1065.14  1065.50  1066.18  1069.91  1075.04  1105.78
eigval :     1132.02  1133.42  1147.40  1162.79  1164.01  1171.70
eigval :     1172.26  1177.27  1180.41  1190.04  1216.53  1220.94
eigval :     1221.74  1225.26  1258.99  1263.89  1266.25  1283.93
eigval :     1288.43  1317.78  1322.43  1325.76  1331.86  1340.75
eigval :     1360.93  1362.36  1368.26  1394.91  1399.16  1406.44
eigval :     1408.95  1418.68  1435.32  1453.12  1454.53  1458.02
eigval :     1475.56  1476.16  1554.68  1555.75  1564.12  1564.40
eigval :     1565.84  1569.26  1588.54  1593.29  2226.19  2264.47
eigval :     3079.42  3079.55  3085.60  3085.74  3087.65  3087.73
eigval :     3090.26  3090.67  3091.67  3092.06  3097.20  3097.52
eigval :     3099.22  3099.53  3104.15  3104.40  3105.04  3105.89

   temp. (K)  partition function   enthalpy   heat capacity  entropy
                                   cal/mol     cal/K/mol   cal/K/mol   J/K/mol
 298.15  VIB  0.659E+11            15806.895    103.172     95.902
         ROT  0.109E+08              888.752      2.981     35.185
         INT  0.719E+18            16695.647    106.152    131.087
         TR   0.950E+28             1481.254      4.968     44.237
         TOT                       18176.9009   111.1206   175.3239   733.5554

       T/K    H(0)-H(T)+PV         H(T)/Eh          T*S/Eh         G(T)/Eh
   ------------------------------------------------------------------------
    298.15    0.289667E-01    0.423253E+00    0.833021E-01    0.339951E+00
   ------------------------------------------------------------------------

         :::::::::::::::::::::::::::::::::::::::::::::::::::::
         ::                  THERMODYNAMIC                  ::
         :::::::::::::::::::::::::::::::::::::::::::::::::::::
         :: total free energy         -89.005353088581 Eh   ::
         ::.................................................::
         :: total energy              -89.345304156067 Eh   ::
         :: zero point energy           0.394286397050 Eh   ::
         :: G(RRHO) w/o ZPVE           -0.054335329563 Eh   ::
         :: G(RRHO) contrib.            0.339951067487 Eh   ::
         :::::::::::::::::::::::::::::::::::::::::::::::::::::

           -------------------------------------------------
          | TOTAL ENERGY              -89.345304156067 Eh   |
          | TOTAL ENTHALPY            -88.922051023688 Eh   |
          | TOTAL FREE ENERGY         -89.005353088581 Eh   |
          | GRADIENT NORM               0.000073825767 Eh/α |
          | HOMO-LUMO GAP               0.650344548467 eV   |
           -------------------------------------------------

 * finished run on 2025/07/16 at 11:59:26.204
