   * xtb version 6.7.1 (edcfbbe) compiled by 'albert@albert-system' on 2024-07-22

   ID    Z sym.   atoms
    1    7 N      1, 6, 20, 36
    2    6 C      2-5, 7-19, 21-35
    3    1 H      37-54

          program call               : xtb data2507/toluene/2CzPN/2CzPN_toluene_S0_crest.xyz --gfn 2 --gbsa toluene --ohess vtight --parallel 40 --molden --ceasefiles --namespace data2507/toluene/2CzPN/2CzPN_toluene_S0_finalOpt
      * Solvation model:               GBSA
        Solvent                        toluene
        Solvent mass                       9.2140E+01 g/mol
          :  Hamiltonian                  GFN2-xTB          :
 * total energy  :   -89.4276288 Eh     change       -0.8005259E-09 Eh
 * total energy  :   -89.4276980 Eh     change       -0.6922826E-04 Eh
 * total energy  :   -89.4276771 Eh     change        0.2087679E-04 Eh
 * total energy  :   -89.4277989 Eh     change       -0.1217500E-03 Eh
 * total energy  :   -89.4278582 Eh     change       -0.5931969E-04 Eh
 * total energy  :   -89.4278865 Eh     change       -0.2834413E-04 Eh
 * total energy  :   -89.4279230 Eh     change       -0.3648189E-04 Eh
 * total energy  :   -89.4279530 Eh     change       -0.3000549E-04 Eh
 * total energy  :   -89.4279958 Eh     change       -0.4280499E-04 Eh
 * total energy  :   -89.4280282 Eh     change       -0.3239807E-04 Eh
 * total energy  :   -89.4283922 Eh     change       -0.1794792E-05 Eh
 * total energy  :   -89.4283937 Eh     change       -0.1460366E-05 Eh
 * total energy  :   -89.4283950 Eh     change       -0.1328389E-05 Eh
 * total energy  :   -89.4283962 Eh     change       -0.1205728E-05 Eh
 * total energy  :   -89.4283973 Eh     change       -0.1099177E-05 Eh
 * total energy  :   -89.4283982 Eh     change       -0.9095792E-06 Eh
 * total energy  :   -89.4283989 Eh     change       -0.6648571E-06 Eh
 * total energy  :   -89.4283994 Eh     change       -0.4944866E-06 Eh
 * total energy  :   -89.4283994 Eh     change       -0.2233648E-08 Eh
   *** GEOMETRY OPTIMIZATION CONVERGED AFTER 44 ITERATIONS ***

 final structure:
================
54
 xtb: 6.7.1 (edcfbbe)
N           -5.90010685169742        1.82185035035169        0.82890879206330
C           -4.91634069777717        1.28273241685326        0.58941751318904
C           -3.69654933725460        0.63588309207826        0.29285335402070
C           -2.48830295764498        1.25642561395280        0.58878545745036
C           -1.27488638123694        0.63458565273431        0.31232541725172
N           -0.08600145221534        1.26538363195170        0.66215201028428
C            0.97572334913728        0.67670150657771        1.33418139107647
C            1.02858620323559       -0.53864459966293        1.99777628378068
C            2.21641785244465       -0.88403601135698        2.61568154619441
C            3.31721865839997       -0.03252311560961        2.59622689114623
C            3.24748966496072        1.20633364995987        1.98808659220936
C            2.06528080513038        1.57245250968869        1.35994818499749
C            1.63343365892021        2.76562212528633        0.68225299065777
C            2.25767264093696        3.96941905676162        0.38527774464842
C            1.54842380258283        4.92911189558187       -0.31113643098570
C            0.23893373407506        4.69435892862925       -0.72057489899445
C           -0.40258524739854        3.50180074833051       -0.43693642828679
C            0.29887914391526        2.54440410020739        0.27914702681997
C           -1.27329501202795       -0.63877565580334       -0.31067596377356
N           -0.08284255661143       -1.26597376343470       -0.66165582829056
C            0.97640124877532       -0.67396015503589       -1.33467312576986
C            1.02476738522473        0.54152526831372       -1.99835506190396
C            2.21092169907769        0.89069597021903       -2.61734883934529
C            3.31444193923507        0.04268935268937       -2.59888792419438
C            3.24920790108256       -1.19639043734611       -1.99069785349816
C            2.06874711644873       -1.56627390295115       -1.36147376795708
C            1.64125754380383       -2.76082289241972       -0.68344202850763
C            2.26950564547497       -3.96270634642990       -0.38717722072067
C            1.56386477662042       -4.92468582419201        0.30974589205180
C            0.25404627044599       -4.69403544272347        0.72045684414187
C           -0.39143467890892       -3.50343653686239        0.43757055357492
C            0.30638577303949       -2.54380268373368       -0.27907977414566
C           -2.48512795299168       -1.26416138276929       -0.58608740080179
C           -3.69492655789169       -0.64709438753529       -0.28922249997386
C           -4.91310398857627       -1.29734669743841       -0.58494104459345
N           -5.89558917334575       -1.83916141759472       -0.82367309612127
H           -2.49152748002893        2.21999397165916        1.07595286380143
H            0.17317322156388       -1.19460557441995        2.04948619746290
H            2.28584678476593       -1.83281505764033        3.12646314480838
H            4.23030477804800       -0.33962758546551        3.08380929053775
H            4.08946064423275        1.88119550335777        2.00526112066312
H            3.27790009292896        4.14519805076643        0.69003081199280
H            2.01471020943325        5.87326505903609       -0.54997609194278
H           -0.28921472981971        5.45690310619702       -1.27359299856159
H           -1.41350049715756        3.33029855032618       -0.77634518392931
H            0.16721222713840        1.19474349279485       -2.04930141885758
H            2.27684497808516        1.83965469620764       -3.12825987152216
H            4.22610335528421        0.35270761843941       -3.08729305104290
H            4.09334629072798       -1.86852210015285       -2.00865320735438
H            3.29000294945648       -4.13529859479057       -0.69284569981457
H            2.03329504758590       -5.86742096071328        0.54801333690636
H           -0.27121674758617       -5.45828554592177        1.27386872269772
H           -1.40255675693992       -3.33511422139553        0.77796167958261
H           -2.48596126281251       -2.22775123585280       -1.07322542102290

          :  Hamiltonian                  GFN2-xTB          :
         :: gradient norm              0.000057000991 Eh/a0 ::
         :: HOMO-LUMO gap              1.833478085745 eV    ::
         :: SCC energy               -91.168906745353 Eh    ::
         :: -> dispersion             -0.086767954223 Eh    ::
         :: -> Gsolv                  -0.039545678017 Eh    ::
         :: repulsion energy           1.740507352330 Eh    ::

    * Orbital Energies and Occupations

         #    Occupation            Energy/Eh            Energy/eV
      -------------------------------------------------------------
         1        2.0000           -0.7102678             -19.3274
       ...           ...                  ...                  ...
        71        2.0000           -0.4381206             -11.9219
        72        2.0000           -0.4344563             -11.8222
        73        2.0000           -0.4323978             -11.7661
        74        2.0000           -0.4298402             -11.6965
        75        2.0000           -0.4292892             -11.6816
        76        2.0000           -0.4291687             -11.6783
        77        2.0000           -0.4280684             -11.6483
        78        2.0000           -0.4160586             -11.3215
        79        2.0000           -0.4156132             -11.3094
        80        2.0000           -0.3918996             -10.6641
        81        2.0000           -0.3880405             -10.5591
        82        2.0000           -0.3815579             -10.3827
        83        2.0000           -0.3785105             -10.2998 (HOMO)
        84                         -0.3111314              -8.4663 (LUMO)
        85                         -0.2866465              -7.8000
        86                         -0.2562658              -6.9733
        87                         -0.2556993              -6.9579
        88                         -0.2364117              -6.4331
        89                         -0.2331726              -6.3449
        90                         -0.2299578              -6.2575
        91                         -0.2285786              -6.2199
        92                         -0.2234649              -6.0808
        93                         -0.2073587              -5.6425
        94                         -0.1973882              -5.3712
       ...                                ...                  ...
       162                          1.1628720              31.6434
      -------------------------------------------------------------
                  HL-Gap            0.0673791 Eh            1.8335 eV

     #   Z          covCN         q      C6AA      α(0)
     1   7 N        0.911    -0.245    26.393     7.430
     2   6 C        1.911     0.120    28.160     8.570
     3   6 C        2.975     0.020    27.556     8.611
     4   6 C        2.928    -0.032    28.810     8.802
     5   6 C        2.909     0.061    26.642     8.464
     6   7 N        2.801    -0.040    22.015     6.969
     7   6 C        3.068     0.046    26.896     8.504
     8   6 C        2.910    -0.048    29.186     8.859
     9   6 C        2.924    -0.031    28.784     8.798
    10   6 C        2.920    -0.037    28.928     8.820
    11   6 C        2.913    -0.032    28.792     8.799
    12   6 C        3.065    -0.013    28.284     8.721
    13   6 C        3.066    -0.013    28.259     8.717
    14   6 C        2.913    -0.031    28.772     8.796
    15   6 C        2.920    -0.038    28.934     8.821
    16   6 C        2.924    -0.032    28.789     8.799
    17   6 C        2.910    -0.050    29.242     8.867
    18   6 C        3.065     0.047    26.890     8.503
    19   6 C        2.909     0.061    26.642     8.464
    20   7 N        2.801    -0.040    22.015     6.969
    21   6 C        3.068     0.046    26.896     8.504
    22   6 C        2.910    -0.048    29.187     8.859
    23   6 C        2.924    -0.031    28.784     8.798
    24   6 C        2.920    -0.037    28.928     8.820
    25   6 C        2.913    -0.032    28.792     8.799
    26   6 C        3.065    -0.013    28.284     8.721
    27   6 C        3.066    -0.013    28.259     8.717
    28   6 C        2.913    -0.031    28.772     8.796
    29   6 C        2.920    -0.038    28.934     8.821
    30   6 C        2.924    -0.032    28.789     8.799
    31   6 C        2.910    -0.050    29.242     8.867
    32   6 C        3.065     0.047    26.890     8.503
    33   6 C        2.928    -0.032    28.810     8.802
    34   6 C        2.975     0.020    27.556     8.611
    35   6 C        1.911     0.120    28.160     8.570
    36   7 N        0.911    -0.245    26.393     7.430
    37   1 H        0.926     0.068     2.113     2.273
    38   1 H        0.926     0.026     2.650     2.546
    39   1 H        0.926     0.036     2.503     2.474
    40   1 H        0.926     0.037     2.484     2.465
    41   1 H        0.926     0.040     2.448     2.447
    42   1 H        0.926     0.040     2.450     2.448
    43   1 H        0.926     0.037     2.487     2.466
    44   1 H        0.926     0.037     2.483     2.464
    45   1 H        0.926     0.028     2.609     2.526
    46   1 H        0.926     0.026     2.650     2.546
    47   1 H        0.926     0.036     2.503     2.474
    48   1 H        0.926     0.037     2.484     2.465
    49   1 H        0.926     0.040     2.448     2.447
    50   1 H        0.926     0.040     2.450     2.448
    51   1 H        0.926     0.037     2.487     2.466
    52   1 H        0.926     0.037     2.483     2.464
    53   1 H        0.926     0.028     2.609     2.526
    54   1 H        0.926     0.068     2.113     2.273

molecular dipole:
                 x           y           z       tot (Debye)
 q only:        2.783       0.004      -0.001
   full:        3.293       0.005      -0.001       8.371

 projected vibrational frequencies (cm⁻¹)
eigval :       -0.00    -0.00    -0.00     0.00     0.00     0.00
eigval :       23.88    34.94    39.55    46.70    51.38    54.25
eigval :       91.29    98.32   107.61   108.32   120.53   137.88
eigval :      147.24   159.01   173.27   184.50   192.90   207.07
eigval :      262.53   273.74   275.97   279.30   310.50   310.80
eigval :      352.42   390.48   398.25   401.79   419.84   421.53
eigval :      425.13   432.77   441.52   445.74   481.96   482.51
eigval :      516.39   517.85   529.33   529.75   542.56   542.86
eigval :      547.14   558.50   583.95   586.33   590.17   598.40
eigval :      649.68   653.01   663.18   672.23   675.72   689.18
eigval :      705.19   708.32   710.22   750.78   753.90   759.62
eigval :      770.25   770.74   782.56   782.94   836.49   865.12
eigval :      868.12   875.81   876.24   882.14   892.24   894.56
eigval :      899.41   905.58   905.69   907.95   908.52   923.78
eigval :      924.05   925.99   926.21   954.34  1011.03  1012.11
eigval :     1069.29  1070.37  1071.79  1075.08  1077.64  1115.81
eigval :     1138.34  1151.03  1151.14  1168.12  1170.01  1178.77
eigval :     1178.94  1182.63  1183.38  1218.71  1221.31  1230.91
eigval :     1232.68  1235.03  1258.07  1289.55  1291.05  1295.00
eigval :     1297.55  1312.82  1323.62  1354.73  1356.15  1358.32
eigval :     1358.60  1378.26  1404.08  1422.27  1423.63  1425.26
eigval :     1426.28  1469.36  1471.09  1481.32  1484.01  1484.29
eigval :     1494.98  1543.16  1576.87  1576.91  1590.08  1590.44
eigval :     1597.78  1598.24  1610.47  1611.24  2362.52  2362.92
eigval :     3074.91  3075.10  3079.91  3079.95  3081.36  3081.80
eigval :     3085.23  3085.52  3088.73  3088.94  3092.47  3092.69
eigval :     3097.39  3097.76  3099.87  3100.16  3101.35  3101.66

   temp. (K)  partition function   enthalpy   heat capacity  entropy
                                   cal/mol     cal/K/mol   cal/K/mol   J/K/mol
 298.15  VIB  0.365E+11            15517.212    101.767     94.062
         ROT  0.109E+08              888.752      2.981     35.191
         INT  0.399E+18            16405.965    104.748    129.253
         TR   0.950E+28             1481.254      4.968     44.237
         TOT                       17887.2186   109.7161   173.4901   725.8825

       T/K    H(0)-H(T)+PV         H(T)/Eh          T*S/Eh         G(T)/Eh
   ------------------------------------------------------------------------
    298.15    0.285051E-01    0.426566E+00    0.824307E-01    0.344135E+00
   ------------------------------------------------------------------------

         :::::::::::::::::::::::::::::::::::::::::::::::::::::
         ::                  THERMODYNAMIC                  ::
         :::::::::::::::::::::::::::::::::::::::::::::::::::::
         :: total free energy         -89.084264603597 Eh   ::
         ::.................................................::
         :: total energy              -89.428399391954 Eh   ::
         :: zero point energy           0.398060432361 Eh   ::
         :: G(RRHO) w/o ZPVE           -0.053925644004 Eh   ::
         :: G(RRHO) contrib.            0.344134788357 Eh   ::
         :::::::::::::::::::::::::::::::::::::::::::::::::::::

           -------------------------------------------------
          | TOTAL ENERGY              -89.428399391954 Eh   |
          | TOTAL ENTHALPY            -89.001833862366 Eh   |
          | TOTAL FREE ENERGY         -89.084264603597 Eh   |
          | GRADIENT NORM               0.000057040344 Eh/α |
          | HOMO-LUMO GAP               1.833478520609 eV   |
           -------------------------------------------------

 * finished run on 2025/07/16 at 11:59:21.407
