   * xtb version 6.7.1 (edcfbbe) compiled by 'albert@albert-system' on 2024-07-22

   ID    Z sym.   atoms
    1    8 O      1, 3
    2   16 S      2
    3    6 C      4-40
    4    1 H      41-64

          program call               : xtb data2507/gas/PSPSF/PSPSF.xyz --gfn 2 --ohess vtight --parallel 40 --molden --ceasefiles --namespace data2507/gas/PSPSF/PSPSF_gas_S0_preOpt
          :  Hamiltonian                  GFN2-xTB          :
 * total energy  :  -102.8237674 Eh     change       -0.1338393E-08 Eh
 * total energy  :  -102.8315144 Eh     change       -0.7747002E-02 Eh
 * total energy  :  -102.8329340 Eh     change       -0.1419571E-02 Eh
 * total energy  :  -102.8332795 Eh     change       -0.3454712E-03 Eh
 * total energy  :  -102.8334584 Eh     change       -0.1788927E-03 Eh
 * total energy  :  -102.8335379 Eh     change       -0.7953660E-04 Eh
 * total energy  :  -102.8336424 Eh     change       -0.1044715E-03 Eh
 * total energy  :  -102.8337264 Eh     change       -0.8398634E-04 Eh
 * total energy  :  -102.8338176 Eh     change       -0.9126408E-04 Eh
 * total energy  :  -102.8338969 Eh     change       -0.7931432E-04 Eh
 * total energy  :  -102.8341797 Eh     change       -0.7063424E-06 Eh
 * total energy  :  -102.8341799 Eh     change       -0.1266165E-06 Eh
 * total energy  :  -102.8341802 Eh     change       -0.3258814E-06 Eh
 * total energy  :  -102.8341806 Eh     change       -0.3833528E-06 Eh
 * total energy  :  -102.8341807 Eh     change       -0.1440130E-06 Eh
 * total energy  :  -102.8341810 Eh     change       -0.2462129E-06 Eh
 * total energy  :  -102.8341814 Eh     change       -0.4093087E-06 Eh
 * total energy  :  -102.8341816 Eh     change       -0.1934064E-06 Eh
 * total energy  :  -102.8341816 Eh     change       -0.4173107E-07 Eh
   *** GEOMETRY OPTIMIZATION CONVERGED AFTER 48 ITERATIONS ***

 final structure:
================
64
 xtb: 6.7.1 (edcfbbe)
O            6.40756426965606        0.45446524654581       -2.91061667004717
S            5.91072349736248        1.07245946191537       -1.70925119514316
O            5.87548275785080        2.50967235731840       -1.63827013688132
C            6.85486028609205        0.45380588556821       -0.30900448635940
C            7.09332683594346        1.28089140673883        0.77055480481406
C            7.78695753111041        0.78444173722390        1.86200981734130
C            8.22687657813596       -0.52995570884400        1.85973092641127
C            7.98245455023210       -1.35080736552604        0.76932368969099
C            7.28941406407347       -0.85724591141451       -0.32324531494649
C            4.26867279105540        0.43241916478516       -1.37041832822980
C            3.84722517817408       -0.73074927234701       -1.98473934890721
C            2.59755014011840       -1.24113795011823       -1.68742241239992
C            1.76526863825079       -0.59122249927622       -0.77541381737390
C            0.43493176669195       -1.13051842123992       -0.46144643339297
C            0.25294281405644       -2.50397099765378       -0.29210513319456
C           -0.98725900349342       -3.03704698181495        0.00984802027773
C           -2.06881602161155       -2.18058295246092        0.13759514003171
C           -1.89165885576417       -0.79959518243760       -0.03588812703930
C           -0.65750751639059       -0.26943812346321       -0.32832780356055
C           -3.19939619259008       -0.06974356666416        0.14664256288593
C           -3.60739671225828        0.74637377962564       -1.05663712800949
C           -3.80782943282285        0.31873711574203       -2.35045593926139
C           -4.18758199716367        1.25444764664046       -3.30355158487868
C           -4.36150422221019        2.58695049363335       -2.96115034986880
C           -4.16015459810023        3.02005384953458       -1.66033608626980
C           -3.78040468294748        2.09257159808864       -0.70435850781767
C           -3.49806464628113        2.23788210582730        0.71512623827546
C           -3.52130776295285        3.34807738408503        1.54299392542132
C           -3.19766117176087        3.18495184071079        2.88056499841500
C           -2.85684167941729        1.93874157245091        3.38446674426440
C           -2.83194201153882        0.82103839803626        2.56074061124918
C           -3.15370635218147        0.98021062497485        1.23095374375186
C           -4.14708252452973       -1.20500150908046        0.44947432662385
C           -5.49821096906711       -1.14402580325947        0.71027048589994
C           -6.17606211419419       -2.32910569083479        0.96336083665378
C           -5.50963827467821       -3.54548591347293        0.95416933873639
C           -4.15067065269785       -3.61059744036276        0.69238527925082
C           -3.46763478297085       -2.43225234895600        0.43883580617994
C            2.21216533298436        0.58402876755850       -0.16938306391056
C            3.46303439988159        1.09291323542521       -0.46264353468081
H            6.74871626605909        2.30226366382008        0.72946060412398
H            7.98665973398041        1.42110664854000        2.71067767156257
H            8.76903162165814       -0.91577303865666        2.71032254818120
H            8.33396761755605       -2.37157133146858        0.77057854688469
H            7.09635896900873       -1.46389543159348       -1.19394167284244
H            4.49788609967204       -1.20506740352584       -2.70268705772675
H            2.25066142899565       -2.13633047254413       -2.18144501489991
H            1.10688340735634       -3.16020167421474       -0.37572353398436
H           -1.10673304565577       -4.10172642860542        0.14458143088837
H           -0.53763955506450        0.79352294274284       -0.47815270428018
H           -3.67303754489940       -0.71970886842394       -2.61645449121911
H           -4.34961887031650        0.94031171146905       -4.32404673153853
H           -4.65781029161537        3.29649252167226       -3.71987678877336
H           -4.29658882740260        4.05879351897713       -1.39861147926292
H           -3.78599105157514        4.32056471865260        1.15535254464783
H           -3.21090075097814        4.03988164311865        3.54084693372059
H           -2.60825483612751        1.83585095183676        4.43051251650989
H           -2.56734415796749       -0.15044799662916        2.95279692004604
H           -6.01698221260104       -0.19648455242292        0.71690262683512
H           -7.23585420824583       -2.30339067887852        1.16961048010656
H           -6.05878620408160       -4.45404575768127        1.15396667400004
H           -3.63576128298206       -4.55983112660557        0.68636837105060
H            1.57952800845426        1.08784594796137        0.54613727012496
H            3.82049243271452        2.00519145925882       -0.01155455815502

          :  Hamiltonian                  GFN2-xTB          :
         :: gradient norm              0.000086173052 Eh/a0 ::
         :: HOMO-LUMO gap              2.903412391642 eV    ::
         :: SCC energy              -104.689713836802 Eh    ::
         :: -> dispersion             -0.090878206333 Eh    ::
         :: repulsion energy           1.855532228774 Eh    ::

    * Orbital Energies and Occupations

         #    Occupation            Energy/Eh            Energy/eV
      -------------------------------------------------------------
         1        2.0000           -0.7639006             -20.7868
       ...           ...                  ...                  ...
        83        2.0000           -0.4257808             -11.5861
        84        2.0000           -0.4256235             -11.5818
        85        2.0000           -0.4243643             -11.5475
        86        2.0000           -0.4237929             -11.5320
        87        2.0000           -0.4184742             -11.3873
        88        2.0000           -0.4171093             -11.3501
        89        2.0000           -0.4159217             -11.3178
        90        2.0000           -0.4057788             -11.0418
        91        2.0000           -0.4010968             -10.9144
        92        2.0000           -0.3994573             -10.8698
        93        2.0000           -0.3981504             -10.8342
        94        2.0000           -0.3865486             -10.5185
        95        2.0000           -0.3815444             -10.3824 (HOMO)
        96                         -0.2748460              -7.4789 (LUMO)
        97                         -0.2569046              -6.9907
        98                         -0.2556969              -6.9579
        99                         -0.2461386              -6.6978
       100                         -0.2432566              -6.6193
       101                         -0.2397743              -6.5246
       102                         -0.2329948              -6.3401
       103                         -0.2298545              -6.2547
       104                         -0.2290424              -6.2326
       105                         -0.2209558              -6.0125
       106                         -0.1943606              -5.2888
       ...                                ...                  ...
       189                          1.2076583              32.8621
      -------------------------------------------------------------
                  HL-Gap            0.1066984 Eh            2.9034 eV

     #   Z          covCN         q      C6AA      α(0)
     1   8 O        0.860    -0.539    24.667     6.659
     2  16 S        3.815     0.937   108.479    17.530
     3   8 O        0.860    -0.539    24.669     6.659
     4   6 C        2.972    -0.073    29.817     8.957
     5   6 C        2.955    -0.026    28.642     8.778
     6   6 C        2.922    -0.024    28.599     8.770
     7   6 C        2.920    -0.024    28.614     8.772
     8   6 C        2.922    -0.024    28.601     8.770
     9   6 C        2.958    -0.027    28.668     8.782
    10   6 C        2.972    -0.077    29.924     8.973
    11   6 C        2.953    -0.027    28.685     8.785
    12   6 C        2.926    -0.030    28.761     8.795
    13   6 C        2.977     0.018    27.594     8.617
    14   6 C        2.980     0.007    27.862     8.658
    15   6 C        2.926    -0.037    28.920     8.819
    16   6 C        2.913    -0.034    28.844     8.807
    17   6 C        3.037     0.002    27.949     8.671
    18   6 C        3.054     0.008    27.791     8.646
    19   6 C        2.918    -0.037    28.915     8.818
    20   6 C        3.979     0.009    20.351     6.409
    21   6 C        3.056     0.006    27.833     8.652
    22   6 C        2.914    -0.033    28.814     8.802
    23   6 C        2.923    -0.031    28.771     8.796
    24   6 C        2.921    -0.032    28.791     8.799
    25   6 C        2.915    -0.033    28.828     8.804
    26   6 C        3.036     0.001    27.966     8.674
    27   6 C        3.036     0.001    27.959     8.673
    28   6 C        2.915    -0.033    28.833     8.805
    29   6 C        2.921    -0.032    28.801     8.801
    30   6 C        2.923    -0.032    28.791     8.799
    31   6 C        2.914    -0.033    28.829     8.804
    32   6 C        3.056     0.006    27.838     8.653
    33   6 C        3.058     0.007    27.797     8.646
    34   6 C        2.914    -0.032    28.797     8.800
    35   6 C        2.923    -0.030    28.758     8.794
    36   6 C        2.921    -0.032    28.794     8.800
    37   6 C        2.914    -0.033    28.825     8.804
    38   6 C        3.036     0.001    27.964     8.674
    39   6 C        2.926    -0.030    28.747     8.793
    40   6 C        2.956    -0.028    28.701     8.787
    41   1 H        0.926     0.062     2.179     2.308
    42   1 H        0.926     0.050     2.325     2.384
    43   1 H        0.926     0.048     2.345     2.395
    44   1 H        0.926     0.049     2.333     2.389
    45   1 H        0.926     0.055     2.256     2.349
    46   1 H        0.926     0.060     2.194     2.316
    47   1 H        0.926     0.050     2.319     2.382
    48   1 H        0.926     0.034     2.526     2.485
    49   1 H        0.926     0.036     2.506     2.475
    50   1 H        0.926     0.034     2.536     2.490
    51   1 H        0.926     0.028     2.615     2.529
    52   1 H        0.926     0.033     2.550     2.497
    53   1 H        0.926     0.033     2.548     2.496
    54   1 H        0.926     0.033     2.543     2.494
    55   1 H        0.926     0.033     2.542     2.493
    56   1 H        0.926     0.032     2.557     2.501
    57   1 H        0.926     0.031     2.566     2.505
    58   1 H        0.926     0.027     2.626     2.534
    59   1 H        0.926     0.030     2.586     2.515
    60   1 H        0.926     0.033     2.543     2.494
    61   1 H        0.926     0.033     2.550     2.497
    62   1 H        0.926     0.033     2.550     2.497
    63   1 H        0.926     0.049     2.332     2.388
    64   1 H        0.926     0.054     2.272     2.357

molecular dipole:
                 x           y           z       tot (Debye)
 q only:       -1.185      -1.362       1.893
   full:       -1.143      -1.356       1.889       6.585

 projected vibrational frequencies (cm⁻¹)
eigval :       -0.00    -0.00    -0.00     0.00     0.00     0.00
eigval :        2.56    13.28    18.01    21.69    24.31    35.03
eigval :       44.80    47.82    60.58    80.05    82.49   113.11
eigval :      124.36   132.43   134.65   143.16   155.22   167.32
eigval :      194.54   221.40   233.20   233.93   259.88   284.18
eigval :      288.64   305.65   325.60   342.28   349.36   362.69
eigval :      365.59   368.74   387.34   401.12   413.93   414.42
eigval :      419.76   436.16   454.52   469.52   475.09   482.12
eigval :      493.83   505.81   517.90   531.01   538.64   544.39
eigval :      572.48   585.09   590.56   598.00   604.73   619.22
eigval :      628.05   640.85   658.25   678.96   686.43   688.98
eigval :      693.92   704.93   707.93   731.10   740.08   749.71
eigval :      754.40   767.89   776.23   786.41   803.96   808.94
eigval :      837.26   874.60   879.05   879.40   880.13   880.43
eigval :      885.90   900.49   905.52   908.35   910.73   912.00
eigval :      915.41   917.85   919.89   926.24   927.51   928.19
eigval :      928.53   928.61   932.44   942.88   968.47   995.35
eigval :     1008.84  1011.35  1069.84  1071.77  1073.80  1076.72
eigval :     1078.06  1079.94  1089.87  1102.63  1117.84  1121.35
eigval :     1133.15  1134.52  1143.68  1154.95  1171.59  1177.66
eigval :     1178.02  1178.09  1179.00  1181.65  1185.90  1199.05
eigval :     1209.53  1224.66  1227.48  1239.20  1246.95  1254.58
eigval :     1260.75  1261.16  1261.47  1277.79  1285.07  1304.44
eigval :     1320.38  1322.98  1326.81  1327.11  1362.03  1366.68
eigval :     1390.55  1422.54  1428.87  1430.85  1431.89  1432.18
eigval :     1445.57  1448.05  1462.11  1463.94  1472.17  1484.48
eigval :     1572.16  1576.53  1578.04  1581.17  1585.59  1593.67
eigval :     1596.47  1598.08  1598.49  1604.11  1604.58  1604.88
eigval :     3073.57  3074.78  3074.89  3077.35  3077.98  3078.45
eigval :     3079.29  3081.53  3083.38  3084.89  3085.95  3086.87
eigval :     3087.56  3087.94  3088.46  3090.62  3092.69  3093.74
eigval :     3094.36  3095.71  3103.57  3103.88  3106.19  3106.24

   temp. (K)  partition function   enthalpy   heat capacity  entropy
                                   cal/mol     cal/K/mol   cal/K/mol   J/K/mol
 298.15  VIB  0.207E+16            18311.535    115.388    115.096
         ROT  0.561E+08              888.752      2.981     38.440
         INT  0.116E+24            19200.288    118.369    153.536
         TR   0.119E+29             1481.254      4.968     44.684
         TOT                       20681.5417   123.3368   198.2197   829.3513

       T/K    H(0)-H(T)+PV         H(T)/Eh          T*S/Eh         G(T)/Eh
   ------------------------------------------------------------------------
    298.15    0.329581E-01    0.515929E+00    0.941806E-01    0.421748E+00
   ------------------------------------------------------------------------

         :::::::::::::::::::::::::::::::::::::::::::::::::::::
         ::                  THERMODYNAMIC                  ::
         :::::::::::::::::::::::::::::::::::::::::::::::::::::
         :: total free energy        -102.412433270764 Eh   ::
         ::.................................................::
         :: total energy             -102.834181608026 Eh   ::
         :: zero point energy           0.482970791040 Eh   ::
         :: G(RRHO) w/o ZPVE           -0.061222453778 Eh   ::
         :: G(RRHO) contrib.            0.421748337261 Eh   ::
         :::::::::::::::::::::::::::::::::::::::::::::::::::::

           -------------------------------------------------
          | TOTAL ENERGY             -102.834181608026 Eh   |
          | TOTAL ENTHALPY           -102.318252682488 Eh   |
          | TOTAL FREE ENERGY        -102.412433270764 Eh   |
          | GRADIENT NORM               0.000086165624 Eh/α |
          | HOMO-LUMO GAP               2.903410705065 eV   |
           -------------------------------------------------

 * finished run on 2025/07/18 at 11:18:47.318
