   * xtb version 6.7.1 (edcfbbe) compiled by 'albert@albert-system' on 2024-07-22

   ID    Z sym.   atoms
    1    8 O      1, 3
    2   16 S      2
    3    6 C      4-40
    4    1 H      41-64

          program call               : xtb data2507/gas/PSPSF/PSPSF_gas_S0_crest.xyz --gfn 2 --ohess vtight --parallel 40 --molden --ceasefiles --namespace data2507/gas/PSPSF/PSPSF_gas_S0_finalOpt
          :  Hamiltonian                  GFN2-xTB          :
 * total energy  :  -102.8341834 Eh     change       -0.1057899E-08 Eh
 * total energy  :  -102.8341852 Eh     change       -0.1798538E-05 Eh
 * total energy  :  -102.8341884 Eh     change       -0.3149506E-05 Eh
 * total energy  :  -102.8341913 Eh     change       -0.2958597E-05 Eh
 * total energy  :  -102.8341942 Eh     change       -0.2931345E-05 Eh
 * total energy  :  -102.8341973 Eh     change       -0.3092469E-05 Eh
 * total energy  :  -102.8342004 Eh     change       -0.3099217E-05 Eh
 * total energy  :  -102.8342031 Eh     change       -0.2634698E-05 Eh
 * total energy  :  -102.8342052 Eh     change       -0.2165365E-05 Eh
 * total energy  :  -102.8342072 Eh     change       -0.1931004E-05 Eh
 * total energy  :  -102.8342149 Eh     change       -0.1517244E-05 Eh
 * total energy  :  -102.8342159 Eh     change       -0.1078890E-05 Eh
 * total energy  :  -102.8342170 Eh     change       -0.1083017E-05 Eh
 * total energy  :  -102.8342182 Eh     change       -0.1161178E-05 Eh
 * total energy  :  -102.8342191 Eh     change       -0.9660449E-06 Eh
 * total energy  :  -102.8342198 Eh     change       -0.6742981E-06 Eh
 * total energy  :  -102.8342204 Eh     change       -0.5932686E-06 Eh
 * total energy  :  -102.8342212 Eh     change       -0.7711418E-06 Eh
 * total energy  :  -102.8342212 Eh     change       -0.1776195E-07 Eh
   *** GEOMETRY OPTIMIZATION CONVERGED AFTER 22 ITERATIONS ***

 final structure:
================
64
 xtb: 6.7.1 (edcfbbe)
O            5.69932523304105        2.49579812023715       -0.27514898803918
S            5.65184791945217        1.33239660579051        0.57101238642301
O            6.09990553868493        1.45546471264356        1.93332380078424
C            6.57403675701647        0.00332363799043       -0.21556192326787
C            7.35165297798065       -0.83918061499953        0.55342018022068
C            8.02508779086947       -1.88378270750227       -0.05864612686076
C            7.90709469782301       -2.07252002939222       -1.42660803838471
C            7.12297603460045       -1.21971095059438       -2.18868084264782
C            6.44898205968159       -0.17457502015763       -1.57974710553827
C            3.98044553351499        0.67937004989972        0.55835122243535
C            3.64623914862177       -0.31730400682528        1.45531139083421
C            2.37927200064772       -0.86737938591481        1.41655542606741
C            1.44242046080726       -0.42484505375809        0.48120345800398
C            0.09860439904265       -1.01690308498623        0.42940405404756
C           -0.06912163818818       -2.39476628998157        0.57666021796272
C           -1.32001541122667       -2.98174417618924        0.51267340230612
C           -2.42629019745890       -2.17425424537049        0.30368030029048
C           -2.26347977717928       -0.78787311040703        0.16254766549542
C           -1.01954997957193       -0.20557316356513        0.21967691145756
C           -3.59682938309891       -0.11661278893859       -0.05665274982807
C           -3.65779029061895        0.67928269928030       -1.33845695644315
C           -3.44349196657896        0.24086875895562       -2.62649849289110
C           -3.54990999976427        1.15913098093832       -3.66276269249955
C           -3.86396946358047        2.48540760025639       -3.40688367037623
C           -4.07964220843203        2.92927512172806       -2.11191327788846
C           -3.97510550524590        2.01914526894476       -1.07306655099419
C           -4.13963783120745        2.17820738524516        0.36343202295757
C           -4.45587582710574        3.28753267602512        1.13006194249990
C           -4.54832161494018        3.13905612011180        2.50472493771782
C           -4.32938734302444        1.90828951051122        3.10499044471986
C           -4.01188408026936        0.79171742838170        2.34302576756805
C           -3.91969658526119        0.93637489090191        0.97644380854051
C           -4.54287332830253       -1.29230355332686       -0.02882179995246
C           -5.91196850181811       -1.29159779581255       -0.18006463086989
C           -6.58415980997202       -2.50482274938741       -0.11529534154601
C           -5.89463367416166       -3.68949671716206        0.09658459772848
C           -4.51759039365706       -3.69406051396436        0.24910436261055
C           -3.84007408636907       -2.48730757260944        0.18575000897311
C            1.80117817635358        0.58762226185117       -0.40931404901000
C            3.06967701481500        1.13584635202782       -0.37419592598469
H            7.42755922801143       -0.65240525518854        1.61325848641866
H            8.64170276030095       -2.54732835033313        0.52873575742105
H            8.43310350317149       -2.88633267633391       -1.90342096203502
H            7.03958098124857       -1.36881149294368       -3.25466829773285
H            5.84170392212796        0.51409759606254       -2.14591612273770
H            4.37702295955670       -0.63553036685211        2.18227492412740
H            2.10221203638469       -1.63107128681263        2.12769490447649
H            0.80272871424836       -3.01681260376402        0.71748985297160
H           -1.42855833232119       -4.05072639747482        0.61975539139585
H           -0.90930679552979        0.86488444607872        0.12663950142848
H           -3.19909158011510       -0.79279997750834       -2.82475096509670
H           -3.38622045111532        0.83621716744882       -4.68035265102273
H           -3.94128948705965        3.18155133051849       -4.22933063376113
H           -4.32356689820316        3.96317134323090       -1.91800624537500
H           -4.62744447596180        4.24803956727185        0.66738376692942
H           -4.79450149888690        3.99339269398320        3.11825800146354
H           -4.40718235584761        1.81676347562387        4.17827599300537
H           -3.84214131754108       -0.16776743630515        2.80981828101302
H           -6.44867058176213       -0.36865855726398       -0.34474103479559
H           -7.65769475573919       -2.52626477260189       -0.23115893880890
H           -6.43980872338443       -4.62093414696521        0.14310790221927
H           -3.98468712507977       -4.61879249227738        0.41376416124703
H            1.08655943790111        0.92959233038905       -1.14308125571191
H            3.36784796738810        1.92258654304340       -1.04956409356255

          :  Hamiltonian                  GFN2-xTB          :
         :: gradient norm              0.000096589773 Eh/a0 ::
         :: HOMO-LUMO gap              2.904900668395 eV    ::
         :: SCC energy              -104.689749148672 Eh    ::
         :: -> dispersion             -0.091006580517 Eh    ::
         :: repulsion energy           1.855527950909 Eh    ::

    * Orbital Energies and Occupations

         #    Occupation            Energy/Eh            Energy/eV
      -------------------------------------------------------------
         1        2.0000           -0.7640016             -20.7895
       ...           ...                  ...                  ...
        83        2.0000           -0.4259533             -11.5908
        84        2.0000           -0.4255412             -11.5796
        85        2.0000           -0.4242929             -11.5456
        86        2.0000           -0.4238325             -11.5331
        87        2.0000           -0.4184896             -11.3877
        88        2.0000           -0.4171205             -11.3504
        89        2.0000           -0.4159440             -11.3184
        90        2.0000           -0.4057374             -11.0407
        91        2.0000           -0.4011340             -10.9154
        92        2.0000           -0.3995014             -10.8710
        93        2.0000           -0.3982340             -10.8365
        94        2.0000           -0.3865525             -10.5186
        95        2.0000           -0.3815439             -10.3823 (HOMO)
        96                         -0.2747908              -7.4774 (LUMO)
        97                         -0.2567961              -6.9878
        98                         -0.2556090              -6.9555
        99                         -0.2463363              -6.7032
       100                         -0.2434961              -6.6259
       101                         -0.2400384              -6.5318
       102                         -0.2331054              -6.3431
       103                         -0.2297923              -6.2530
       104                         -0.2289970              -6.2313
       105                         -0.2209322              -6.0119
       106                         -0.1943849              -5.2895
       ...                                ...                  ...
       189                          1.2096949              32.9175
      -------------------------------------------------------------
                  HL-Gap            0.1067531 Eh            2.9049 eV

     #   Z          covCN         q      C6AA      α(0)
     1   8 O        0.860    -0.539    24.667     6.659
     2  16 S        3.816     0.938   108.462    17.528
     3   8 O        0.860    -0.539    24.664     6.659
     4   6 C        2.972    -0.073    29.812     8.956
     5   6 C        2.954    -0.025    28.635     8.777
     6   6 C        2.922    -0.024    28.598     8.770
     7   6 C        2.920    -0.024    28.615     8.772
     8   6 C        2.922    -0.024    28.598     8.770
     9   6 C        2.959    -0.027    28.672     8.783
    10   6 C        2.972    -0.077    29.918     8.972
    11   6 C        2.957    -0.029    28.717     8.790
    12   6 C        2.926    -0.030    28.758     8.794
    13   6 C        2.977     0.018    27.594     8.617
    14   6 C        2.980     0.007    27.862     8.658
    15   6 C        2.926    -0.037    28.921     8.819
    16   6 C        2.913    -0.034    28.844     8.807
    17   6 C        3.037     0.002    27.949     8.671
    18   6 C        3.055     0.008    27.789     8.645
    19   6 C        2.918    -0.037    28.914     8.818
    20   6 C        3.979     0.009    20.351     6.409
    21   6 C        3.056     0.006    27.839     8.653
    22   6 C        2.914    -0.033    28.828     8.804
    23   6 C        2.923    -0.032    28.789     8.799
    24   6 C        2.921    -0.032    28.799     8.800
    25   6 C        2.915    -0.033    28.832     8.805
    26   6 C        3.036     0.001    27.959     8.673
    27   6 C        3.036     0.001    27.965     8.674
    28   6 C        2.915    -0.033    28.828     8.804
    29   6 C        2.921    -0.032    28.791     8.799
    30   6 C        2.923    -0.031    28.773     8.796
    31   6 C        2.914    -0.033    28.815     8.802
    32   6 C        3.056     0.006    27.833     8.652
    33   6 C        3.057     0.007    27.797     8.646
    34   6 C        2.914    -0.032    28.796     8.799
    35   6 C        2.923    -0.030    28.757     8.794
    36   6 C        2.921    -0.032    28.794     8.800
    37   6 C        2.914    -0.033    28.825     8.804
    38   6 C        3.037     0.001    27.964     8.674
    39   6 C        2.927    -0.030    28.747     8.793
    40   6 C        2.952    -0.027    28.670     8.782
    41   1 H        0.926     0.063     2.161     2.299
    42   1 H        0.926     0.050     2.322     2.383
    43   1 H        0.926     0.048     2.344     2.394
    44   1 H        0.926     0.049     2.335     2.390
    45   1 H        0.926     0.053     2.288     2.365
    46   1 H        0.926     0.052     2.296     2.369
    47   1 H        0.926     0.049     2.329     2.386
    48   1 H        0.926     0.034     2.532     2.488
    49   1 H        0.926     0.036     2.508     2.476
    50   1 H        0.926     0.034     2.532     2.489
    51   1 H        0.926     0.027     2.626     2.534
    52   1 H        0.926     0.032     2.563     2.504
    53   1 H        0.926     0.032     2.554     2.499
    54   1 H        0.926     0.033     2.541     2.493
    55   1 H        0.926     0.033     2.542     2.493
    56   1 H        0.926     0.033     2.549     2.497
    57   1 H        0.926     0.032     2.552     2.498
    58   1 H        0.926     0.028     2.616     2.529
    59   1 H        0.926     0.030     2.585     2.514
    60   1 H        0.926     0.033     2.543     2.494
    61   1 H        0.926     0.032     2.551     2.498
    62   1 H        0.926     0.032     2.552     2.498
    63   1 H        0.926     0.050     2.322     2.383
    64   1 H        0.926     0.062     2.180     2.309

molecular dipole:
                 x           y           z       tot (Debye)
 q only:       -1.242      -2.123      -0.853
   full:       -1.201      -2.122      -0.855       6.568

 projected vibrational frequencies (cm⁻¹)
eigval :       -0.00    -0.00     0.00     0.00     0.00     0.00
eigval :        5.58    13.63    17.61    20.96    24.35    34.73
eigval :       44.18    49.44    60.49    77.29    82.52   117.70
eigval :      121.39   129.93   137.24   138.86   154.98   169.97
eigval :      194.60   225.18   233.23   233.56   256.84   283.22
eigval :      286.34   306.13   325.55   343.69   344.60   362.72
eigval :      367.88   373.63   387.22   395.39   412.34   414.27
eigval :      418.38   441.43   454.93   470.67   475.25   482.31
eigval :      493.84   505.73   518.07   530.73   538.64   544.18
eigval :      572.53   585.14   590.56   597.97   604.75   619.27
eigval :      628.02   640.86   658.49   679.10   686.50   688.99
eigval :      693.93   704.93   707.91   731.26   740.08   749.88
eigval :      754.39   767.89   776.23   786.43   804.19   808.77
eigval :      837.31   874.76   879.08   879.42   880.17   880.30
eigval :      886.73   900.59   906.01   908.40   910.75   911.59
eigval :      913.98   919.26   919.95   927.21   927.55   928.22
eigval :      928.57   928.98   932.78   942.83   968.47   995.38
eigval :     1008.85  1011.39  1069.86  1071.65  1073.80  1076.69
eigval :     1078.09  1079.93  1090.04  1102.92  1117.65  1121.86
eigval :     1133.15  1134.59  1143.66  1155.04  1171.61  1177.67
eigval :     1178.04  1178.08  1179.20  1181.61  1186.02  1198.97
eigval :     1209.57  1224.62  1227.64  1239.37  1246.95  1254.75
eigval :     1260.86  1261.17  1261.53  1277.91  1285.05  1304.48
eigval :     1320.31  1323.07  1326.80  1327.10  1361.96  1366.67
eigval :     1390.68  1422.54  1428.90  1430.77  1431.86  1432.21
eigval :     1445.84  1448.09  1462.07  1463.98  1472.17  1484.69
eigval :     1572.16  1576.68  1578.02  1581.21  1585.59  1593.67
eigval :     1596.50  1598.04  1598.51  1604.11  1604.59  1604.93
eigval :     3073.73  3074.69  3074.88  3077.44  3077.79  3078.42
eigval :     3079.28  3081.36  3083.44  3084.95  3085.92  3086.90
eigval :     3087.56  3087.89  3088.23  3090.45  3092.81  3093.74
eigval :     3094.36  3095.38  3102.60  3103.01  3104.79  3105.07

   temp. (K)  partition function   enthalpy   heat capacity  entropy
                                   cal/mol     cal/K/mol   cal/K/mol   J/K/mol
 298.15  VIB  0.100E+16            18311.276    115.376    114.394
         ROT  0.562E+08              888.752      2.981     38.443
         INT  0.565E+23            19200.028    118.357    152.837
         TR   0.119E+29             1481.254      4.968     44.684
         TOT                       20681.2822   123.3254   197.5202   826.4246

       T/K    H(0)-H(T)+PV         H(T)/Eh          T*S/Eh         G(T)/Eh
   ------------------------------------------------------------------------
    298.15    0.329577E-01    0.515930E+00    0.938482E-01    0.422082E+00
   ------------------------------------------------------------------------

         :::::::::::::::::::::::::::::::::::::::::::::::::::::
         ::                  THERMODYNAMIC                  ::
         :::::::::::::::::::::::::::::::::::::::::::::::::::::
         :: total free energy        -102.412139005597 Eh   ::
         ::.................................................::
         :: total energy             -102.834221197756 Eh   ::
         :: zero point energy           0.482972698813 Eh   ::
         :: G(RRHO) w/o ZPVE           -0.060890506654 Eh   ::
         :: G(RRHO) contrib.            0.422082192159 Eh   ::
         :::::::::::::::::::::::::::::::::::::::::::::::::::::

           -------------------------------------------------
          | TOTAL ENERGY             -102.834221197756 Eh   |
          | TOTAL ENTHALPY           -102.318290777930 Eh   |
          | TOTAL FREE ENERGY        -102.412139005597 Eh   |
          | GRADIENT NORM               0.000096487240 Eh/α |
          | HOMO-LUMO GAP               2.904900291551 eV   |
           -------------------------------------------------

 * finished run on 2025/07/18 at 11:23:33.850
