   * xtb version 6.7.1 (edcfbbe) compiled by 'albert@albert-system' on 2024-07-22

   ID    Z sym.   atoms
    1    8 O      1, 3
    2   16 S      2
    3    6 C      4-40
    4    1 H      41-64

          program call               : xtb data2507/gas/PSPSF/PSPSF_gas_T1_crest.xyz --gfn 2 --spinpol --tblite --uhf 2 --ohess vtight --parallel 40 --molden --ceasefiles --namespace data2507/gas/PSPSF/PSPSF_gas_T1_finalOpt
 * total energy  :  -102.7406694 Eh     change        0.1263544E-08 Eh
 * total energy  :  -102.7406843 Eh     change       -0.1494575E-04 Eh
 * total energy  :  -102.7406890 Eh     change       -0.4609640E-05 Eh
 * total energy  :  -102.7406900 Eh     change       -0.1017227E-05 Eh
 * total energy  :  -102.7406914 Eh     change       -0.1398443E-05 Eh
 * total energy  :  -102.7406922 Eh     change       -0.8555312E-06 Eh
 * total energy  :  -102.7406931 Eh     change       -0.8923717E-06 Eh
 * total energy  :  -102.7406931 Eh     change       -0.2421552E-07 Eh
 * total energy  :  -102.7406924 Eh     change        0.7879519E-06 Eh
 * total energy  :  -102.7406935 Eh     change       -0.1116280E-05 Eh
 * total energy  :  -102.7406936 Eh     change       -0.1200269E-06 Eh
 * total energy  :  -102.7406938 Eh     change       -0.2148585E-06 Eh
 * total energy  :  -102.7406937 Eh     change        0.1150299E-06 Eh
 * total energy  :  -102.7406939 Eh     change       -0.2186324E-06 Eh
 * total energy  :  -102.7406939 Eh     change       -0.2355677E-07 Eh
   *** GEOMETRY OPTIMIZATION CONVERGED AFTER 15 ITERATIONS ***

 final structure:
================
64
 xtb: 6.7.1 (edcfbbe)
O            5.76625756208606        1.98441013853904        1.41831190606084
S            5.73823760745644        0.55591120946421        1.23640531486825
O            6.39332210761713       -0.27664043570666        2.21229359850566
C            6.41557324015210        0.17422136708930       -0.38577407754994
C            6.95900309572162       -1.07514789552806       -0.61420408824676
C            7.43090190944595       -1.38641205294444       -1.87824295827924
C            7.34764045959344       -0.44901508346920       -2.89639462672455
C            6.80062965260462        0.80200181827046       -2.65550648224634
C            6.32822018056929        1.11631115928879       -1.39246181828663
C            4.05080672555651        0.02283791424599        1.05152587242417
C            3.70235430741033       -1.29487412265504        1.34376272303370
C            2.42133790217676       -1.72865852856093        1.14064359558551
C            1.40820026197253       -0.85866085413710        0.63102731253868
C            0.07984122373734       -1.29531912335086        0.42592758163733
C           -0.25935677714561       -2.70178509717334        0.38447781897105
C           -1.52172512163732       -3.15031579196528        0.19097285182944
C           -2.58379256637016       -2.21679159914466        0.03412969118897
C           -2.26514793048142       -0.80952952965997        0.07065348289537
C           -1.00548903945878       -0.36258744152711        0.24701595995352
C           -3.52995861360246       -0.00264654230659       -0.10724689271927
C           -3.48021864825256        0.93805328254820       -1.28756807744135
C           -3.25903028532552        0.63493505059117       -2.61318006146651
C           -3.25764103707795        1.67204215799586       -3.53616253305581
C           -3.47383329501809        2.98185025457687       -3.13353637653582
C           -3.69623459126670        3.29024274989023       -1.80112103894777
C           -3.69903343879482        2.26075255145922       -0.87417689589420
C           -3.89978470786117        2.26671259483071        0.56592707767658
C           -4.14916658424578        3.30390081344877        1.44970483426012
C           -4.30007028611941        3.00662500218482        2.79453799260751
C           -4.20408226590000        1.70035426263673        3.25150409288985
C           -3.95444546183337        0.65560714858187        2.37195166253621
C           -3.80415821517697        0.94770916481723        1.03409333956374
C           -4.57307150138275       -1.08343725269855       -0.24858777650163
C           -5.92125844408050       -0.94931519619141       -0.43680160773734
C           -6.70304117117872       -2.10320253950193       -0.53878590397893
C           -6.12155323031120       -3.37186186976440       -0.45059056645023
C           -4.77000899714789       -3.52632446991826       -0.26193445824208
C           -3.96296560357960       -2.37352223599962       -0.15695842542700
C            1.80974230282302        0.48331427662705        0.34644174560718
C            3.09663043059137        0.90233442802952        0.54210002765275
H            7.02236843933293       -1.77388837933349        0.20505655817812
H            7.86517117231523       -2.35625121941224       -2.06952862087673
H            7.71630753263256       -0.69278692038357       -3.88183394048361
H            6.74534580679384        1.53088676421768       -3.45015174350853
H            5.91210698862076        2.08524039040254       -1.16570256064253
H            4.45847045318232       -1.94388398659684        1.75749341846920
H            2.16614653156466       -2.73824306870657        1.41863659345940
H            0.53814406246531       -3.42178941404218        0.47194350880499
H           -1.73412878811120       -4.20820748059236        0.14782802124216
H           -0.81838694046607        0.69796897217093        0.29875393577786
H           -3.09103695322480       -0.38541445911837       -2.92623312622877
H           -3.08671976064536        1.45637334248501       -4.58049456140945
H           -3.46874915828479        3.77176869202475       -3.87033836404999
H           -3.86383452540468        4.31145102010110       -1.49300182199594
H           -4.22466745671071        4.32239237355058        1.09914230171166
H           -4.49521815744289        3.80254268734522        3.49820816948171
H           -4.32484701844227        1.49354145883027        4.30449203191570
H           -3.87914989197853       -0.36180582388802        2.72745253945133
H           -6.37611135101291        0.02819097742071       -0.50471297091187
H           -7.76828151224225       -2.01467504355118       -0.68647474585127
H           -6.75422459408675       -4.24371242693357       -0.53324171561429
H           -4.32370851918769       -4.50665397477031       -0.19417942113201
H            1.09518380656582        1.17545909259523       -0.06831347223990
H            3.39694010130125        1.91633509997152        0.32858069009786

 projected vibrational frequencies (cm⁻¹)
eigval :       -0.00    -0.00     0.00     0.00     0.00     0.00
eigval :        5.29    10.89    19.86    21.62    24.11    35.88
eigval :       43.24    52.26    55.07    70.44    82.24   103.90
eigval :      117.69   129.91   137.70   140.28   146.32   171.07
eigval :      175.46   220.35   222.49   231.56   246.37   263.63
eigval :      285.24   290.16   304.38   332.54   339.71   354.58
eigval :      362.26   364.23   383.36   387.61   401.12   409.23
eigval :      414.09   426.48   441.26   443.64   456.43   463.03
eigval :      479.01   502.06   503.91   518.87   528.05   533.18
eigval :      540.17   584.71   587.80   588.16   598.54   601.61
eigval :      605.68   635.21   645.49   657.66   665.93   678.55
eigval :      686.99   688.01   696.45   714.53   730.49   743.50
eigval :      747.78   752.82   763.76   778.39   782.75   785.92
eigval :      787.66   810.84   831.02   842.19   879.05   879.12
eigval :      879.98   890.88   894.63   899.82   902.23   903.08
eigval :      905.37   907.00   910.52   910.93   913.86   914.68
eigval :      926.21   927.59   928.56   930.65   956.26   967.48
eigval :      973.06  1002.99  1007.39  1051.50  1061.97  1069.77
eigval :     1073.37  1076.59  1078.70  1099.10  1102.70  1119.06
eigval :     1124.99  1128.77  1136.89  1143.17  1157.76  1162.65
eigval :     1177.43  1178.01  1178.50  1179.09  1180.81  1201.26
eigval :     1208.58  1209.92  1223.51  1235.80  1243.04  1250.43
eigval :     1254.82  1260.27  1260.57  1270.18  1285.15  1303.50
eigval :     1321.08  1326.41  1327.69  1332.87  1339.90  1361.13
eigval :     1365.32  1381.47  1396.51  1402.24  1424.69  1427.30
eigval :     1429.24  1430.74  1444.29  1461.26  1465.07  1469.26
eigval :     1472.05  1500.75  1530.85  1563.59  1566.35  1574.72
eigval :     1582.71  1593.91  1594.71  1599.76  1602.59  1634.07
eigval :     3074.90  3076.04  3077.38  3078.44  3079.55  3079.76
eigval :     3080.39  3081.08  3086.10  3086.50  3088.34  3091.90
eigval :     3093.65  3094.25  3094.89  3095.41  3095.93  3099.29
eigval :     3101.57  3103.99  3105.95  3106.15  3111.37  3112.49

   temp. (K)  partition function   enthalpy   heat capacity  entropy
                                   cal/mol     cal/K/mol   cal/K/mol   J/K/mol
 298.15  VIB  0.235E+16            18732.267    117.548    117.275
         ROT  0.559E+08              888.752      2.981     38.431
         INT  0.132E+24            19621.020    120.529    155.706
         TR   0.119E+29             1481.254      4.968     44.684
         TOT                       21102.2736   125.4967   200.3897   838.4306

       T/K    H(0)-H(T)+PV         H(T)/Eh          T*S/Eh         G(T)/Eh
   ------------------------------------------------------------------------
    298.15    0.336286E-01    0.512503E+00    0.952116E-01    0.417292E+00
   ------------------------------------------------------------------------

         :::::::::::::::::::::::::::::::::::::::::::::::::::::
         ::                  THERMODYNAMIC                  ::
         :::::::::::::::::::::::::::::::::::::::::::::::::::::
         :: total free energy        -102.323402119339 Eh   ::
         ::.................................................::
         :: total energy             -102.740693933935 Eh   ::
         :: zero point energy           0.478874828755 Eh   ::
         :: G(RRHO) w/o ZPVE           -0.061583014159 Eh   ::
         :: G(RRHO) contrib.            0.417291814596 Eh   ::
         :::::::::::::::::::::::::::::::::::::::::::::::::::::

           -------------------------------------------------
          | TOTAL ENERGY             -102.740693933935 Eh   |
          | TOTAL ENTHALPY           -102.228190491627 Eh   |
          | TOTAL FREE ENERGY        -102.323402119339 Eh   |
          | GRADIENT NORM               0.000107963583 Eh/α |
           -------------------------------------------------

 * finished run on 2025/07/18 at 11:28:32.503
