   * xtb version 6.7.1 (edcfbbe) compiled by 'albert@albert-system' on 2024-07-22

   ID    Z sym.   atoms
    1    8 O      1, 3
    2   16 S      2
    3    6 C      4-40
    4    1 H      41-64

          program call               : xtb data2507/gas/PSPSF/PSPSF_gas_S0_finalOpt.xtbopt.xyz --gfn 2 --spinpol --tblite --uhf 2 --ohess vtight --parallel 40 --molden --ceasefiles --namespace data2507/gas/PSPSF/PSPSF_gas_T1_preOpt
 * total energy  :  -102.7258687 Eh     change        0.3093675E-07 Eh
 * total energy  :  -102.7355090 Eh     change       -0.9640325E-02 Eh
 * total energy  :  -102.7381753 Eh     change       -0.2666305E-02 Eh
 * total energy  :  -102.7385028 Eh     change       -0.3274159E-03 Eh
 * total energy  :  -102.7390668 Eh     change       -0.5640793E-03 Eh
 * total energy  :  -102.7393904 Eh     change       -0.3235919E-03 Eh
 * total energy  :  -102.7396769 Eh     change       -0.2864502E-03 Eh
 * total energy  :  -102.7398589 Eh     change       -0.1819875E-03 Eh
 * total energy  :  -102.7399580 Eh     change       -0.9908462E-04 Eh
 * total energy  :  -102.7400337 Eh     change       -0.7576907E-04 Eh
 * total energy  :  -102.7406100 Eh     change       -0.1370514E-05 Eh
 * total energy  :  -102.7406118 Eh     change       -0.1735209E-05 Eh
 * total energy  :  -102.7406137 Eh     change       -0.1921853E-05 Eh
 * total energy  :  -102.7406155 Eh     change       -0.1771948E-05 Eh
 * total energy  :  -102.7406170 Eh     change       -0.1510994E-05 Eh
 * total energy  :  -102.7406180 Eh     change       -0.1017766E-05 Eh
 * total energy  :  -102.7406187 Eh     change       -0.6996550E-06 Eh
 * total energy  :  -102.7406193 Eh     change       -0.6408566E-06 Eh
 * total energy  :  -102.7406193 Eh     change       -0.2957151E-08 Eh
   *** GEOMETRY OPTIMIZATION CONVERGED AFTER 94 ITERATIONS ***

 final structure:
================
64
 xtb: 6.7.1 (edcfbbe)
O            5.71837713221958        2.42180466805448        0.55760098915381
S            5.69618567074428        1.05789501779997        1.01960169952722
O            6.25928708256244        0.76106997254914        2.31187307104637
C            6.51232261700757        0.01874426544214       -0.20162398348329
C            7.27795059335084       -1.05201782287203        0.21610356528650
C            7.86077502050729       -1.87748294086831       -0.73116089287692
C            7.66559678378600       -1.62460656634482       -2.07991092812133
C            6.89465298831485       -0.54638839622293       -2.48779991281724
C            6.31070849228173        0.28038834428764       -1.54325186217572
C            4.02515791276331        0.44913591718510        0.94815193707788
C            3.72084306974231       -0.77751190704614        1.53675260409342
C            2.45881926912060       -1.29439890705752        1.43305492168178
C            1.42259281664890       -0.60001492729573        0.73714310451797
C            0.11329177925497       -1.12326701926691        0.63092693960560
C           -0.16170412472996       -2.52562806484174        0.85619528167538
C           -1.40120738037275       -3.05854702838680        0.74921087308331
C           -2.50270923060532       -2.21739539582588        0.42536405839433
C           -2.24894116278110       -0.81213876375025        0.20968870589229
C           -1.01022704527120       -0.28615728294380        0.29153990289032
C           -3.55038132263382       -0.10708886767782       -0.09182317043374
C           -3.54820135409650        0.64472631990072       -1.40078356366416
C           -3.30559562004491        0.15691990642877       -2.66622866365191
C           -3.36171964514765        1.03984936544425       -3.73618906550368
C           -3.65557689133745        2.38083325177906       -3.53633061441161
C           -3.89946571312330        2.87501013696885       -2.26504464797240
C           -3.84466465233545        2.00022630656686       -1.19228607744838
C           -4.04868558468137        2.21428173689089        0.23133469394728
C           -4.35840208876628        3.35812823742327        0.94883119920756
C           -4.49303953056141        3.26127274757786        2.32439999510968
C           -4.32197855027414        2.04768248497126        2.97430679137264
C           -4.01217357215473        0.89695642216717        2.26212652274523
C           -3.87804730787844        0.98985415125125        0.89424536264399
C           -4.53914267902466       -1.24632538623459       -0.05544454216606
C           -5.88889470118787       -1.21265073379335       -0.27306616524509
C           -6.61423815157595       -2.40377262037152       -0.17923001045065
C           -5.97534015741554       -3.60838660452643        0.13217963921084
C           -4.62139133531922       -3.66205442149664        0.35399509788452
C           -3.87017608413215       -2.47039131468862        0.26169672799844
C            1.77624263674327        0.65544371969925        0.15530107455633
C            3.04727372327084        1.15330517863333        0.24882619692674
H            7.41741725099911       -1.20855746260577        1.27436017755384
H            8.46741253431616       -2.71434279642106       -0.41902518608937
H            8.12043332388227       -2.26843462559390       -2.81818107466713
H            6.75121112694546       -0.35109774156897       -3.53995159794656
H            5.71581130788698        1.13413817100781       -1.82754366717395
H            4.49373892399978       -1.28849145853162        2.08973895552900
H            2.23373611047472       -2.22264473560792        1.93278618498302
H            0.66849839628699       -3.17861148666565        1.07278873857879
H           -1.56666102261642       -4.11483393596697        0.90063085957811
H           -0.86717797577183        0.77361871383926        0.15240451130111
H           -3.07740418367041       -0.88768034569342       -2.82136804351621
H           -3.17494901606177        0.67818758240625       -4.73652141566304
H           -3.69467288443985        3.04828362712063       -4.38476164039956
H           -4.12760278015166        3.91964969685898       -2.11484406672016
H           -4.49205828659758        4.30531662028936        0.44796223492079
H           -4.73404926344943        4.14277922300928        2.90023966848442
H           -4.43090082177570        1.99744252981461        4.04751399618944
H           -3.87880095226634       -0.04841786806451        2.76778724138657
H           -6.38811321489304       -0.28497741307677       -0.51231610946767
H           -7.67999898029486       -2.39423574533677       -0.34778779665023
H           -6.56538369974531       -4.51106240578537        0.19765074535431
H           -4.13065235308733       -4.59298548310287        0.59350610809705
H            1.03998401592472        1.20502158585265       -0.40867271686939
H            3.31923805919463        2.09830041929882       -0.19548952981055

 projected vibrational frequencies (cm⁻¹)
eigval :       -0.00    -0.00    -0.00     0.00     0.00     0.00
eigval :        6.80    11.05    19.92    21.49    24.17    34.67
eigval :       43.12    53.35    57.91    69.58    82.37   103.19
eigval :      119.67   129.18   135.09   141.73   145.12   171.97
eigval :      178.50   221.23   224.76   230.96   245.35   262.33
eigval :      284.34   290.10   304.95   331.52   340.40   354.05
eigval :      362.26   363.89   385.44   387.78   392.62   409.07
eigval :      414.19   435.01   441.19   443.81   457.31   463.86
eigval :      478.59   501.99   504.36   518.62   527.91   533.40
eigval :      540.16   584.81   587.98   588.22   598.41   601.78
eigval :      605.45   635.07   646.67   658.15   666.04   678.59
eigval :      687.12   687.64   696.58   714.47   730.42   742.62
eigval :      748.23   752.78   763.81   779.04   783.12   785.98
eigval :      789.52   814.85   834.81   841.44   879.06   879.44
eigval :      880.00   890.56   895.45   899.69   902.00   903.33
eigval :      905.01   906.76   910.95   913.60   913.64   914.62
eigval :      926.74   927.60   928.57   931.31   956.42   967.77
eigval :      974.18  1002.86  1007.32  1051.11  1061.90  1069.82
eigval :     1073.35  1076.98  1078.73  1099.14  1103.31  1118.49
eigval :     1125.57  1128.10  1136.59  1143.17  1157.64  1162.30
eigval :     1177.40  1177.90  1178.37  1179.13  1180.60  1200.81
eigval :     1207.55  1208.52  1223.34  1235.38  1243.14  1249.67
eigval :     1254.16  1260.40  1260.67  1269.25  1285.13  1302.16
eigval :     1320.92  1325.85  1327.68  1332.80  1338.71  1360.51
eigval :     1365.21  1380.78  1395.73  1401.57  1424.08  1427.11
eigval :     1428.03  1430.70  1444.68  1461.16  1465.67  1469.22
eigval :     1472.61  1500.18  1531.19  1563.55  1565.82  1575.15
eigval :     1582.54  1593.77  1595.26  1599.59  1602.43  1634.30
eigval :     3074.94  3075.86  3077.23  3078.47  3079.48  3079.77
eigval :     3080.34  3080.97  3086.08  3086.55  3088.31  3091.73
eigval :     3093.28  3093.64  3093.86  3094.48  3095.36  3099.19
eigval :     3099.85  3102.25  3104.25  3104.69  3108.63  3110.21

   temp. (K)  partition function   enthalpy   heat capacity  entropy
                                   cal/mol     cal/K/mol   cal/K/mol   J/K/mol
 298.15  VIB  0.177E+16            18722.123    117.555    116.963
         ROT  0.562E+08              888.752      2.981     38.444
         INT  0.993E+23            19610.875    120.536    155.407
         TR   0.119E+29             1481.254      4.968     44.684
         TOT                       21092.1290   125.5039   200.0903   837.1778

       T/K    H(0)-H(T)+PV         H(T)/Eh          T*S/Eh         G(T)/Eh
   ------------------------------------------------------------------------
    298.15    0.336124E-01    0.512476E+00    0.950694E-01    0.417407E+00
   ------------------------------------------------------------------------

         :::::::::::::::::::::::::::::::::::::::::::::::::::::
         ::                  THERMODYNAMIC                  ::
         :::::::::::::::::::::::::::::::::::::::::::::::::::::
         :: total free energy        -102.323212718643 Eh   ::
         ::.................................................::
         :: total energy             -102.740619350402 Eh   ::
         :: zero point energy           0.478863536248 Eh   ::
         :: G(RRHO) w/o ZPVE           -0.061456904489 Eh   ::
         :: G(RRHO) contrib.            0.417406631759 Eh   ::
         :::::::::::::::::::::::::::::::::::::::::::::::::::::

           -------------------------------------------------
          | TOTAL ENERGY             -102.740619350402 Eh   |
          | TOTAL ENTHALPY           -102.228143367001 Eh   |
          | TOTAL FREE ENERGY        -102.323212718643 Eh   |
          | GRADIENT NORM               0.000072020816 Eh/α |
           -------------------------------------------------

 * finished run on 2025/07/18 at 11:23:43.393
