   * xtb version 6.7.1 (edcfbbe) compiled by 'albert@albert-system' on 2024-07-22

   ID    Z sym.   atoms
    1    6 C      1-8, 10-38, 40-46, 48-55
    2    7 N      9, 39, 47
    3    1 H      56-92

          program call               : xtb data2507/toluene/BBA-Pyr/BBA-Pyr.xyz --gfn 2 --gbsa toluene --ohess vtight --parallel 40 --molden --ceasefiles --namespace data2507/toluene/BBA-Pyr/BBA-Pyr_toluene_S0_preOpt
      * Solvation model:               GBSA
        Solvent                        toluene
        Solvent mass                       9.2140E+01 g/mol
          :  Hamiltonian                  GFN2-xTB          :
 * total energy  :  -139.0195007 Eh     change       -0.2116991E-08 Eh
 * total energy  :  -139.0312122 Eh     change       -0.1171148E-01 Eh
 * total energy  :  -139.0353719 Eh     change       -0.4159621E-02 Eh
 * total energy  :  -139.0375211 Eh     change       -0.2149254E-02 Eh
 * total energy  :  -139.0390067 Eh     change       -0.1485644E-02 Eh
 * total energy  :  -139.0397973 Eh     change       -0.7905887E-03 Eh
 * total energy  :  -139.0401570 Eh     change       -0.3596129E-03 Eh
 * total energy  :  -139.0403392 Eh     change       -0.1822275E-03 Eh
 * total energy  :  -139.0405055 Eh     change       -0.1663300E-03 Eh
 * total energy  :  -139.0406793 Eh     change       -0.1738334E-03 Eh
 * total energy  :  -139.0413782 Eh     change       -0.1440291E-05 Eh
 * total energy  :  -139.0413795 Eh     change       -0.1345019E-05 Eh
 * total energy  :  -139.0413807 Eh     change       -0.1128507E-05 Eh
 * total energy  :  -139.0413815 Eh     change       -0.8911017E-06 Eh
 * total energy  :  -139.0413822 Eh     change       -0.6781535E-06 Eh
 * total energy  :  -139.0413829 Eh     change       -0.6435772E-06 Eh
 * total energy  :  -139.0413835 Eh     change       -0.6306107E-06 Eh
 * total energy  :  -139.0413841 Eh     change       -0.6326469E-06 Eh
 * total energy  :  -139.0413841 Eh     change       -0.2069925E-08 Eh
   *** GEOMETRY OPTIMIZATION CONVERGED AFTER 68 ITERATIONS ***

 final structure:
================
92
 xtb: 6.7.1 (edcfbbe)
C           -8.36521911292260       -7.24930517106303        0.49397547259976
C           -8.20214555642023       -6.61486647207621       -0.72660409242983
C           -7.49455910530539       -5.42959029951065       -0.80618353481780
C           -6.93202898244939       -4.85923233896967        0.33446684125881
C           -6.17330123162113       -3.60275311927713        0.24941258157492
C           -6.60979591927753       -2.55481239019930       -0.55998621898417
C           -5.89668387276364       -1.37735749798009       -0.64721436591191
C           -4.71653011668562       -1.20989278614452        0.07757574029151
N           -3.99078172493150       -0.01529137381300       -0.01128945374572
C           -4.67540036678297        1.20419594176907       -0.09158016850817
C           -4.20796470811966        2.23199388755784       -0.91086308545590
C           -4.88615917682824        3.43090260338621       -0.98351896281837
C           -6.04942297685731        3.64635615983771       -0.24577468800757
C           -6.76660686466189        4.92750894949572       -0.32294571197678
C           -7.29458809546246        5.51746894642189        0.82414481907564
C           -7.96641254210406        6.72379866589930        0.75153685155173
C           -8.12677639219672        7.36035303458908       -0.46830883183823
C           -7.60826997477420        6.78259389252888       -1.61559817980745
C           -6.93220006330782        5.57854880724768       -1.54408292234749
C           -6.51365075835487        2.61338970968088        0.56738565189319
C           -5.84116807047719        1.41167548768312        0.64590578062663
C           -2.59539672168730       -0.03916885112087       -0.01618318848421
C           -1.90178362640158       -1.08759404754516       -0.62445442622830
C           -0.52356978677332       -1.11304079291749       -0.61713372459395
C            0.21284257104143       -0.08662809051919       -0.02574151872916
C            1.67967295028489       -0.11062502403286       -0.02811963236509
C            2.37531930423202       -1.29646072729678        0.20816754443956
C            3.75481231820137       -1.32257247573798        0.21155886231579
C            4.48604319328680       -0.15937993143812       -0.02679828982077
C            5.95235027803158       -0.14569734020920       -0.02928313686728
C            6.72063538422667       -1.28213225707533       -0.28559578997094
C            8.10681694060728       -1.13886994327594       -0.25775827056269
C            9.02233201135921       -2.26153634760263       -0.50465445044779
C           10.28459289426163       -2.25342378583890        0.08699807940887
C           11.16332924466140       -3.29896833610190       -0.12227133561086
C           10.79783422738099       -4.36190868007765       -0.93318289744923
C            9.55039276165853       -4.37189838506422       -1.53607245430571
C            8.66535096979347       -3.33068652913565       -1.32380265725280
N            8.66749336476960        0.03863064366483        0.01554288989880
C            7.86384635612119        1.07449216212985        0.23326287152920
C            8.49117503948441        2.36928789370262        0.51967982412593
C            9.87337386267584        2.51885400004267        0.42106662761545
C           10.46142624090112        3.73894325375750        0.69587723970242
C            9.67890147766103        4.82053448304209        1.06995995073145
C            8.30330345016976        4.67873495299963        1.16843490609949
C            7.71012714497745        3.46090019873438        0.89517924141921
N            6.53684301007748        1.02768920412771        0.21466213565847
C            3.79223074207215        1.02920587544996       -0.25783648053200
C            2.41430154173253        1.05329060894349       -0.25876834432646
C           -0.48448603493739        0.96400057239280        0.57070430605110
C           -1.86251373216310        0.98509324715580        0.58726163180391
C           -4.27689944615949       -2.25255422304352        0.89353054649576
C           -4.99570121579601       -3.42694225052865        0.97495281131148
C           -7.10195459101412       -5.50745735164319        1.55657521548815
C           -7.81347500037710       -6.69044161497338        1.63510780198067
H           -8.91954925140938       -8.17458729051516        0.55549659150589
H           -8.62690903577924       -7.04743618409280       -1.62139072658892
H           -7.35704649122244       -4.95010011684750       -1.76478427882469
H           -7.52752660290709       -2.66008092254912       -1.11993230402466
H           -6.24921538910103       -0.57615710778048       -1.28061740965869
H           -3.30896218270965        2.08215932309012       -1.49106999717223
H           -4.50029503545327        4.21951359051970       -1.61292091214250
H           -7.15873661926856        5.03546023329339        1.78170870727219
H           -8.36507301879987        7.17123277582296        1.65100951671952
H           -8.65332138526607        8.30204386244102       -0.52460722983945
H           -7.73327386728151        7.27229967373361       -2.57097005580619
H           -6.54460401995912        5.12622901088241       -2.44566069177208
H           -7.42116873673110        2.74978564829949        1.13721325641096
H           -6.21461573138464        0.62265268673182        1.28253674534193
H           -2.45404524226383       -1.88037335052703       -1.10764404423378
H           -0.00708099388837       -1.92479827123852       -1.10822100596503
H            1.82531377402803       -2.20266035967496        0.41640362984639
H            4.26398024908719       -2.24997012355417        0.42944700524404
H            6.26313707639297       -2.23399779284519       -0.49501073508442
H           10.55449776921374       -1.41842695649873        0.71544935753619
H           12.13642369100342       -3.28513995460922        0.34645255956112
H           11.48484829237944       -5.17868360193463       -1.09879870098479
H            9.26638509957549       -5.19322242625113       -2.17779873367035
H            7.70434741913385       -3.33840581038192       -1.81715276173607
H           10.46770873943662        1.66843462516580        0.12446527172741
H           11.53331535705646        3.84910255637730        0.61763875316572
H           10.14071694889010        5.77328218365642        1.28457704116265
H            7.69282538579568        5.52083813066012        1.46058113939265
H            6.64156840914324        3.33236415447557        0.97217734329258
H            4.36021916231178        1.92778798406899       -0.44455002241560
H            1.89551864444740        1.97913466514673       -0.45966596733770
H            0.06265479400504        1.75733718783309        1.05844162681737
H           -2.38430751709319        1.79563777857796        1.07472224292291
H           -3.36756084894680       -2.13321679987096        1.46465624683138
H           -4.63076677889097       -4.22779795241414        1.60142709614237
H           -6.68862115902866       -5.06952639652662        2.45380219905691
H           -7.94068141658776       -7.17806740070560        2.59126983656328

          :  Hamiltonian                  GFN2-xTB          :
         :: gradient norm              0.000037166714 Eh/a0 ::
         :: HOMO-LUMO gap              1.818465864444 eV    ::
         :: SCC energy              -141.686147442832 Eh    ::
         :: -> dispersion             -0.119144638383 Eh    ::
         :: -> Gsolv                  -0.062331609381 Eh    ::
         :: repulsion energy           2.644763310184 Eh    ::

    * Orbital Energies and Occupations

         #    Occupation            Energy/Eh            Energy/eV
      -------------------------------------------------------------
         1        2.0000           -0.6739923             -18.3403
       ...           ...                  ...                  ...
       118        2.0000           -0.4072574             -11.0820
       119        2.0000           -0.4063769             -11.0581
       120        2.0000           -0.4061259             -11.0512
       121        2.0000           -0.4058405             -11.0435
       122        2.0000           -0.4033637             -10.9761
       123        2.0000           -0.4030556             -10.9677
       124        2.0000           -0.4007658             -10.9054
       125        2.0000           -0.3979399             -10.8285
       126        2.0000           -0.3958961             -10.7729
       127        2.0000           -0.3876964             -10.5498
       128        2.0000           -0.3867402             -10.5237
       129        2.0000           -0.3627338              -9.8705
       130        2.0000           -0.3481438              -9.4735 (HOMO)
       131                         -0.2813164              -7.6550 (LUMO)
       132                         -0.2728065              -7.4234
       133                         -0.2490880              -6.7780
       134                         -0.2488745              -6.7722
       135                         -0.2376553              -6.4669
       136                         -0.2292081              -6.2371
       137                         -0.2280870              -6.2066
       138                         -0.2271805              -6.1819
       139                         -0.2245522              -6.1104
       140                         -0.2226576              -6.0588
       141                         -0.2223511              -6.0505
       ...                                ...                  ...
       257                          0.6940275              18.8854
      -------------------------------------------------------------
                  HL-Gap            0.0668274 Eh            1.8185 eV

     #   Z          covCN         q      C6AA      α(0)
     1   6 C        2.920    -0.033    28.821     8.804
     2   6 C        2.918    -0.031    28.774     8.796
     3   6 C        2.925    -0.035    28.883     8.813
     4   6 C        2.976     0.010    27.800     8.649
     5   6 C        2.975     0.002    27.987     8.678
     6   6 C        2.924    -0.035    28.859     8.810
     7   6 C        2.920    -0.048    29.191     8.860
     8   6 C        2.924     0.063    26.586     8.456
     9   7 N        2.751    -0.074    22.670     7.071
    10   6 C        2.924     0.063    26.587     8.456
    11   6 C        2.920    -0.048    29.194     8.860
    12   6 C        2.924    -0.035    28.861     8.810
    13   6 C        2.975     0.002    27.983     8.677
    14   6 C        2.976     0.010    27.799     8.649
    15   6 C        2.925    -0.035    28.882     8.813
    16   6 C        2.918    -0.031    28.773     8.796
    17   6 C        2.920    -0.033    28.820     8.803
    18   6 C        2.918    -0.031    28.773     8.796
    19   6 C        2.925    -0.035    28.883     8.813
    20   6 C        2.924    -0.035    28.859     8.810
    21   6 C        2.920    -0.048    29.190     8.860
    22   6 C        2.923     0.065    26.547     8.449
    23   6 C        2.920    -0.049    29.219     8.864
    24   6 C        2.924    -0.034    28.845     8.808
    25   6 C        2.975     0.000    28.017     8.682
    26   6 C        2.976     0.015    27.667     8.628
    27   6 C        2.923    -0.035    28.880     8.813
    28   6 C        2.920    -0.033    28.830     8.805
    29   6 C        2.979    -0.005    28.130     8.700
    30   6 C        2.965     0.113    25.516     8.286
    31   6 C        2.912    -0.072    29.797     8.951
    32   6 C        2.967     0.112    25.521     8.286
    33   6 C        2.980    -0.000    28.029     8.684
    34   6 C        2.926    -0.025    28.620     8.773
    35   6 C        2.918    -0.028    28.694     8.784
    36   6 C        2.920    -0.026    28.661     8.779
    37   6 C        2.918    -0.029    28.721     8.788
    38   6 C        2.923    -0.032    28.805     8.801
    39   7 N        1.849    -0.296    28.531     7.916
    40   6 C        2.942     0.190    23.943     8.025
    41   6 C        2.984    -0.004    28.123     8.699
    42   6 C        2.924    -0.029    28.721     8.789
    43   6 C        2.918    -0.029    28.726     8.789
    44   6 C        2.920    -0.026    28.656     8.778
    45   6 C        2.918    -0.029    28.726     8.789
    46   6 C        2.924    -0.029    28.721     8.789
    47   7 N        1.850    -0.296    28.516     7.914
    48   6 C        2.924    -0.026    28.650     8.778
    49   6 C        2.923    -0.034    28.855     8.809
    50   6 C        2.924    -0.034    28.841     8.807
    51   6 C        2.920    -0.049    29.215     8.864
    52   6 C        2.920    -0.048    29.196     8.861
    53   6 C        2.924    -0.035    28.863     8.810
    54   6 C        2.925    -0.036    28.884     8.814
    55   6 C        2.918    -0.031    28.774     8.796
    56   1 H        0.926     0.029     2.594     2.519
    57   1 H        0.926     0.030     2.588     2.516
    58   1 H        0.926     0.032     2.564     2.504
    59   1 H        0.926     0.036     2.507     2.476
    60   1 H        0.926     0.033     2.548     2.496
    61   1 H        0.926     0.033     2.538     2.491
    62   1 H        0.926     0.036     2.504     2.475
    63   1 H        0.926     0.032     2.564     2.504
    64   1 H        0.926     0.030     2.587     2.515
    65   1 H        0.926     0.029     2.594     2.519
    66   1 H        0.926     0.030     2.587     2.515
    67   1 H        0.926     0.032     2.564     2.504
    68   1 H        0.926     0.036     2.508     2.476
    69   1 H        0.926     0.033     2.549     2.497
    70   1 H        0.926     0.034     2.531     2.488
    71   1 H        0.926     0.036     2.500     2.473
    72   1 H        0.926     0.039     2.457     2.451
    73   1 H        0.926     0.033     2.539     2.492
    74   1 H        0.926     0.035     2.510     2.478
    75   1 H        0.926     0.047     2.360     2.402
    76   1 H        0.926     0.041     2.438     2.442
    77   1 H        0.926     0.041     2.434     2.440
    78   1 H        0.926     0.039     2.456     2.451
    79   1 H        0.926     0.034     2.529     2.487
    80   1 H        0.926     0.049     2.328     2.386
    81   1 H        0.926     0.040     2.444     2.445
    82   1 H        0.926     0.042     2.429     2.437
    83   1 H        0.926     0.040     2.443     2.444
    84   1 H        0.926     0.049     2.328     2.386
    85   1 H        0.926     0.048     2.350     2.397
    86   1 H        0.926     0.041     2.437     2.441
    87   1 H        0.926     0.037     2.486     2.465
    88   1 H        0.926     0.034     2.526     2.485
    89   1 H        0.926     0.033     2.541     2.493
    90   1 H        0.926     0.036     2.508     2.476
    91   1 H        0.926     0.032     2.564     2.504
    92   1 H        0.926     0.030     2.588     2.516

molecular dipole:
                 x           y           z       tot (Debye)
 q only:       -0.567      -0.230      -0.046
   full:       -0.731      -0.601      -0.127       2.426

 projected vibrational frequencies (cm⁻¹)
eigval :       -0.00    -0.00    -0.00    -0.00     0.00     0.00
eigval :        8.53    10.34    10.59    19.40    22.92    26.17
eigval :       30.79    32.83    36.79    45.01    49.07    52.25
eigval :       55.44    65.83    67.90    75.53    85.73    87.84
eigval :       92.46    94.91   100.92   111.05   116.95   122.71
eigval :      151.81   174.45   184.89   185.27   203.08   219.77
eigval :      223.15   236.30   259.44   260.97   269.43   274.19
eigval :      301.72   312.23   328.89   356.52   366.28   367.93
eigval :      368.18   368.65   370.59   373.29   373.68   380.59
eigval :      382.00   388.67   394.37   402.77   414.45   424.98
eigval :      435.91   449.99   457.52   463.01   490.20   492.31
eigval :      496.81   530.10   534.12   535.36   550.95   583.98
eigval :      584.42   586.86   587.46   590.00   595.26   599.16
eigval :      604.40   609.21   609.71   610.69   619.28   624.84
eigval :      634.85   659.61   665.42   666.60   667.36   673.49
eigval :      677.63   684.28   686.43   705.43   732.41   736.31
eigval :      737.13   756.20   757.41   765.36   777.36   780.15
eigval :      807.18   819.06   820.63   828.01   833.48   841.83
eigval :      849.13   867.77   869.49   870.52   875.22   876.59
eigval :      878.55   878.87   879.72   899.39   900.56   906.65
eigval :      910.46   914.40   916.14   917.35   917.95   919.57
eigval :      923.90   925.95   926.61   928.33   929.56   931.37
eigval :      931.74   932.46   932.64   932.76   933.10   934.61
eigval :      935.70   963.47   967.78   971.41   987.42   989.59
eigval :     1005.35  1018.64  1020.71  1026.06  1074.51  1074.80
eigval :     1075.67  1078.05  1080.16  1087.41  1088.03  1088.24
eigval :     1104.24  1109.77  1120.53  1121.26  1124.17  1139.04
eigval :     1141.45  1144.84  1146.34  1170.00  1175.67  1180.06
eigval :     1180.75  1181.29  1185.25  1193.41  1194.15  1195.92
eigval :     1199.33  1201.19  1203.76  1204.56  1217.24  1222.79
eigval :     1247.76  1267.94  1268.39  1269.93  1271.83  1272.48
eigval :     1278.32  1281.12  1281.92  1282.19  1285.33  1300.02
eigval :     1310.01  1316.30  1316.38  1320.11  1320.76  1323.23
eigval :     1324.22  1325.99  1327.71  1329.44  1360.54  1365.31
eigval :     1392.28  1399.11  1403.23  1408.08  1417.90  1429.48
eigval :     1432.61  1433.94  1435.53  1463.39  1464.18  1467.50
eigval :     1473.29  1476.04  1499.04  1499.26  1501.50  1512.29
eigval :     1527.74  1548.06  1555.84  1559.46  1563.24  1580.62
eigval :     1580.72  1581.20  1582.42  1584.51  1589.63  1593.03
eigval :     1594.30  1595.33  1601.02  1601.56  1603.89  3065.31
eigval :     3065.38  3067.01  3067.02  3070.87  3072.81  3073.20
eigval :     3074.21  3074.83  3075.08  3075.27  3075.83  3075.86
eigval :     3076.63  3076.68  3077.19  3077.94  3078.97  3079.08
eigval :     3080.43  3082.75  3085.22  3085.45  3086.09  3086.27
eigval :     3087.09  3087.24  3087.46  3089.15  3089.68  3090.96
eigval :     3091.21  3097.95  3098.91  3100.51  3102.00  3110.47

   temp. (K)  partition function   enthalpy   heat capacity  entropy
                                   cal/mol     cal/K/mol   cal/K/mol   J/K/mol
 298.15  VIB  0.160E+23            26509.553    163.348    168.319
         ROT  0.281E+09              888.752      2.981     41.640
         INT  0.449E+31            27398.306    166.329    209.959
         TR   0.181E+29             1481.254      4.968     45.514
         TOT                       28879.5597   171.2968   255.4734  1068.9006

       T/K    H(0)-H(T)+PV         H(T)/Eh          T*S/Eh         G(T)/Eh
   ------------------------------------------------------------------------
    298.15    0.460225E-01    0.760760E+00    0.121384E+00    0.639377E+00
   ------------------------------------------------------------------------

         :::::::::::::::::::::::::::::::::::::::::::::::::::::
         ::                  THERMODYNAMIC                  ::
         :::::::::::::::::::::::::::::::::::::::::::::::::::::
         :: total free energy        -138.402007620039 Eh   ::
         ::.................................................::
         :: total energy             -139.041384127745 Eh   ::
         :: zero point energy           0.714737642038 Eh   ::
         :: G(RRHO) w/o ZPVE           -0.075361134332 Eh   ::
         :: G(RRHO) contrib.            0.639376507706 Eh   ::
         :::::::::::::::::::::::::::::::::::::::::::::::::::::

           -------------------------------------------------
          | TOTAL ENERGY             -139.041384127745 Eh   |
          | TOTAL ENTHALPY           -138.280623977827 Eh   |
          | TOTAL FREE ENERGY        -138.402007620039 Eh   |
          | GRADIENT NORM               0.000037171186 Eh/α |
          | HOMO-LUMO GAP               1.818465872244 eV   |
           -------------------------------------------------

 * finished run on 2025/07/17 at 05:53:10.224
