   * xtb version 6.7.1 (edcfbbe) compiled by 'albert@albert-system' on 2024-07-22

   ID    Z sym.   atoms
    1    6 C      1-8, 10-38, 40-46, 48-55
    2    7 N      9, 39, 47
    3    1 H      56-92

          program call               : xtb data2507/toluene/BBA-Pyr/BBA-Pyr_toluene_S0_crest.xyz --gfn 2 --gbsa toluene --ohess vtight --parallel 40 --molden --ceasefiles --namespace data2507/toluene/BBA-Pyr/BBA-Pyr_toluene_S0_finalOpt
      * Solvation model:               GBSA
        Solvent                        toluene
        Solvent mass                       9.2140E+01 g/mol
          :  Hamiltonian                  GFN2-xTB          :
 * total energy  :  -139.0416940 Eh     change       -0.2043606E-08 Eh
 * total energy  :  -139.0417353 Eh     change       -0.4129898E-04 Eh
 * total energy  :  -139.0417605 Eh     change       -0.2524928E-04 Eh
 * total energy  :  -139.0417677 Eh     change       -0.7150226E-05 Eh
 * total energy  :  -139.0417756 Eh     change       -0.7989483E-05 Eh
 * total energy  :  -139.0417785 Eh     change       -0.2845708E-05 Eh
 * total energy  :  -139.0417815 Eh     change       -0.2961530E-05 Eh
 * total energy  :  -139.0417815 Eh     change       -0.7969726E-07 Eh
 * total energy  :  -139.0417832 Eh     change       -0.1707894E-05 Eh
 * total energy  :  -139.0417851 Eh     change       -0.1852817E-05 Eh
 * total energy  :  -139.0417921 Eh     change       -0.9647056E-06 Eh
 * total energy  :  -139.0417928 Eh     change       -0.7052479E-06 Eh
 * total energy  :  -139.0417934 Eh     change       -0.6005742E-06 Eh
 * total energy  :  -139.0417939 Eh     change       -0.4612558E-06 Eh
 * total energy  :  -139.0417944 Eh     change       -0.5133394E-06 Eh
 * total energy  :  -139.0417947 Eh     change       -0.2925640E-06 Eh
 * total energy  :  -139.0417949 Eh     change       -0.2291974E-06 Eh
 * total energy  :  -139.0417952 Eh     change       -0.2553770E-06 Eh
 * total energy  :  -139.0417952 Eh     change       -0.5028824E-08 Eh
   *** GEOMETRY OPTIMIZATION CONVERGED AFTER 22 ITERATIONS ***

 final structure:
================
92
 xtb: 6.7.1 (edcfbbe)
C           -8.38988321213658       -7.25039854930628       -0.95415145158082
C           -9.07884066563251       -6.07237529615536       -0.71627299261135
C           -8.39070110529573       -4.88342873185613       -0.55939713462455
C           -6.99918677853321       -4.85212660556430       -0.63273838234845
C           -6.26756217062448       -3.58844086208891       -0.46588828885829
C           -6.73385868253669       -2.40948122918781       -1.04616612188119
C           -6.04656597625971       -1.22294145750563       -0.89900389852484
C           -4.87133297215580       -1.17484598314352       -0.14865934407299
N           -4.17637041636825        0.02956324205003        0.01151705693485
C           -4.88463123287934        1.22820171706085        0.15477944085332
C           -4.41771148146961        2.40500257866829       -0.43167961447871
C           -5.11773677156841        3.58423261323484       -0.28614526943362
C           -6.31169674539640        3.62918874950314        0.43273849738443
C           -7.05972463376966        4.88587436090421        0.57747970372353
C           -6.39433695110494        6.08857661880639        0.80912639156847
C           -7.09974757788071        7.26968066384119        0.94741412452479
C           -8.48183842207497        7.27183393286332        0.85325417553406
C           -9.15416936303765        6.08313258042394        0.62100826109522
C           -8.45059522336420        4.90048059083483        0.48675953820697
C           -6.77596978309169        2.44838845211850        1.01114983446384
C           -6.07404168221475        1.26820719418324        0.88298840273233
C           -2.77978101631532        0.03688563769238        0.01891275756834
C           -2.05792388466883       -0.82953456463824       -0.80415188626876
C           -0.67951961461678       -0.82052578747447       -0.79160642149796
C            0.02778269309835        0.06103328692152        0.02618633143206
C            1.49465668792572        0.07846842715450        0.02276458556586
C            2.22576588116547       -1.10866800560277       -0.03929620770536
C            3.60411493440422       -1.08897798173116       -0.04338268366276
C            4.29942359409765        0.11962843622107       -0.00356331022861
C            5.76566173362110        0.10915479566085       -0.02541310322267
C            6.51620827535876        1.16428990475570       -0.54520633154442
C            7.90388545930353        1.03672511850748       -0.51931003776880
C            8.80310679418445        2.07687162958132       -1.03743491724198
C           10.07948837245901        2.20734377142798       -0.49214833204576
C           10.94344159974946        3.18089012151641       -0.95580605280568
C           10.54802543260499        4.03194998159593       -1.97580333141779
C            9.28592919487205        3.90114970028747       -2.53233448667258
C            8.41588962980160        2.93208092644065       -2.06713203279233
N            8.48060237534093       -0.04536166036307        0.00238294051625
C            7.69223526378364       -1.00811318819266        0.46856620696556
C            8.33960548270578       -2.19652378930300        1.03451149454291
C            9.71862815296433       -2.36562268883607        0.92357493164916
C           10.32704858976588       -3.48353213253313        1.46204052302995
C            9.56810033111683       -4.44252642288577        2.11509629254968
C            8.19573301825458       -4.28079290356630        2.22753636476223
C            7.58200949585392       -3.16483037644055        1.69103804295375
N            6.36418145358427       -0.97641030437093        0.46425482782473
C            3.57288731173892        1.30754464721923        0.06324908553815
C            2.19354282232479        1.28440183584245        0.08234877901924
C           -0.69875213400673        0.92758977939587        0.84314368646566
C           -2.07711102557796        0.91271910954593        0.84862643445053
C           -4.40343373829250       -2.34956882974486        0.44103217751054
C           -5.08824130467728       -3.53524013200070        0.27605757952094
C           -6.31685789591502       -6.04420283585311       -0.86944128092081
C           -7.00686966275370       -7.23143809144524       -1.03102841373756
H           -8.92812222247767       -8.17880744409519       -1.07872349297521
H          -10.15768082665452       -6.08120070322353       -0.65081318756326
H           -8.93356118531894       -3.97106253577323       -0.35790093487738
H           -7.63153603771623       -2.43017084704154       -1.64683267626083
H           -6.41280699518575       -0.32253083545630       -1.37058708142061
H           -3.50441363761408        2.38485273887953       -1.00854121108925
H           -4.74997474684058        4.48017879091984       -0.76472101679155
H           -5.31766322006376        6.09256721973435        0.90090592922023
H           -6.56963857112085        8.19324491671605        1.13249810553544
H           -9.03213352877754        8.19542240414287        0.95966666067464
H          -10.23213540076983        6.07868046445826        0.54220621261251
H           -8.98064821541126        3.97987175572031        0.28879634633202
H           -7.68464033038116        2.46268579280042        1.59518665337918
H           -6.44001795865420        0.36628306470285        1.35190137989349
H           -2.58905787042032       -1.50411313643402       -1.45978956960879
H           -0.14005490289967       -1.48360176941809       -1.45186761520821
H            1.70449789865501       -2.05438246732703       -0.06263983818673
H            4.16969084918783       -2.00751551868151       -0.08464299966451
H            6.04195551630014        2.04131868225270       -0.95197216456680
H           10.37215919768168        1.53736454620866        0.30192288839944
H           11.92803759387877        3.27665425698089       -0.52199755093706
H           11.22292912092838        4.79256330556099       -2.33983756775452
H            8.97839469547147        4.55560141184940       -3.33498067656161
H            7.44286091376065        2.82510927010813       -2.52406856504402
H           10.29423146095108       -1.61173326397425        0.40901305545377
H           11.39630524941020       -3.60946974328762        1.37234585904863
H           10.04553522432725       -5.31550370063930        2.53585431140723
H            7.60364081894596       -5.02760947953438        2.73633506338664
H            6.51567342768180       -3.02177511868183        1.77426536056507
H            4.08788541342522        2.25530990694506        0.12366922544967
H            1.64629699631131        2.21482163100997        0.12392614779545
H           -0.17455222170408        1.59877993844021        1.50751380895621
H           -2.62332457239722        1.57748219528712        1.50192092804752
H           -3.50116893738557       -2.32301724722531        1.03474556298915
H           -4.72015488256161       -4.43024783831754        0.75608819788514
H           -5.23910232371844       -6.03462994582480       -0.94704434400481
H           -6.46389477760715       -8.14659304145536       -1.22037881755234

          :  Hamiltonian                  GFN2-xTB          :
         :: gradient norm              0.000052118946 Eh/a0 ::
         :: HOMO-LUMO gap              1.830262600703 eV    ::
         :: SCC energy              -141.686928941863 Eh    ::
         :: -> dispersion             -0.119234580163 Eh    ::
         :: -> Gsolv                  -0.062370330743 Eh    ::
         :: repulsion energy           2.645133765016 Eh    ::

    * Orbital Energies and Occupations

         #    Occupation            Energy/Eh            Energy/eV
      -------------------------------------------------------------
         1        2.0000           -0.6743715             -18.3506
       ...           ...                  ...                  ...
       118        2.0000           -0.4073452             -11.0844
       119        2.0000           -0.4067654             -11.0686
       120        2.0000           -0.4064876             -11.0611
       121        2.0000           -0.4059417             -11.0462
       122        2.0000           -0.4032622             -10.9733
       123        2.0000           -0.4029851             -10.9658
       124        2.0000           -0.4017847             -10.9331
       125        2.0000           -0.3985108             -10.8440
       126        2.0000           -0.3964023             -10.7867
       127        2.0000           -0.3879549             -10.5568
       128        2.0000           -0.3870686             -10.5327
       129        2.0000           -0.3629597              -9.8766
       130        2.0000           -0.3482478              -9.4763 (HOMO)
       131                         -0.2809869              -7.6460 (LUMO)
       132                         -0.2729182              -7.4265
       133                         -0.2494687              -6.7884
       134                         -0.2490566              -6.7772
       135                         -0.2371548              -6.4533
       136                         -0.2293039              -6.2397
       137                         -0.2282548              -6.2111
       138                         -0.2275591              -6.1922
       139                         -0.2246484              -6.1130
       140                         -0.2229443              -6.0666
       141                         -0.2221933              -6.0462
       ...                                ...                  ...
       257                          0.6937051              18.8767
      -------------------------------------------------------------
                  HL-Gap            0.0672609 Eh            1.8303 eV

     #   Z          covCN         q      C6AA      α(0)
     1   6 C        2.920    -0.033    28.823     8.804
     2   6 C        2.918    -0.031    28.775     8.796
     3   6 C        2.925    -0.036    28.886     8.814
     4   6 C        2.976     0.009    27.802     8.649
     5   6 C        2.975     0.001    27.992     8.679
     6   6 C        2.924    -0.035    28.861     8.810
     7   6 C        2.920    -0.048    29.196     8.861
     8   6 C        2.924     0.063    26.589     8.456
     9   7 N        2.752    -0.073    22.664     7.071
    10   6 C        2.924     0.063    26.587     8.456
    11   6 C        2.920    -0.048    29.203     8.862
    12   6 C        2.924    -0.035    28.863     8.810
    13   6 C        2.975     0.001    27.995     8.679
    14   6 C        2.976     0.009    27.802     8.649
    15   6 C        2.925    -0.036    28.886     8.814
    16   6 C        2.918    -0.031    28.776     8.797
    17   6 C        2.920    -0.033    28.824     8.804
    18   6 C        2.918    -0.031    28.774     8.796
    19   6 C        2.925    -0.036    28.886     8.814
    20   6 C        2.924    -0.035    28.861     8.810
    21   6 C        2.920    -0.048    29.195     8.861
    22   6 C        2.924     0.065    26.549     8.450
    23   6 C        2.920    -0.048    29.199     8.861
    24   6 C        2.924    -0.034    28.841     8.807
    25   6 C        2.975     0.001    28.001     8.680
    26   6 C        2.976     0.015    27.673     8.629
    27   6 C        2.923    -0.034    28.852     8.808
    28   6 C        2.923    -0.026    28.647     8.777
    29   6 C        2.980    -0.004    28.119     8.698
    30   6 C        2.966     0.113    25.507     8.284
    31   6 C        2.912    -0.072    29.798     8.951
    32   6 C        2.967     0.112    25.519     8.286
    33   6 C        2.980    -0.000    28.029     8.684
    34   6 C        2.926    -0.025    28.621     8.773
    35   6 C        2.918    -0.028    28.694     8.784
    36   6 C        2.920    -0.026    28.660     8.779
    37   6 C        2.918    -0.029    28.720     8.788
    38   6 C        2.923    -0.032    28.804     8.801
    39   7 N        1.849    -0.296    28.520     7.915
    40   6 C        2.943     0.190    23.942     8.025
    41   6 C        2.984    -0.004    28.121     8.699
    42   6 C        2.924    -0.029    28.721     8.789
    43   6 C        2.918    -0.029    28.725     8.789
    44   6 C        2.920    -0.026    28.655     8.778
    45   6 C        2.918    -0.029    28.725     8.789
    46   6 C        2.923    -0.029    28.720     8.788
    47   7 N        1.849    -0.296    28.516     7.914
    48   6 C        2.921    -0.033    28.830     8.805
    49   6 C        2.923    -0.035    28.877     8.812
    50   6 C        2.924    -0.034    28.842     8.807
    51   6 C        2.920    -0.048    29.199     8.861
    52   6 C        2.920    -0.048    29.200     8.861
    53   6 C        2.924    -0.035    28.861     8.810
    54   6 C        2.925    -0.036    28.885     8.814
    55   6 C        2.918    -0.031    28.774     8.796
    56   1 H        0.926     0.029     2.596     2.520
    57   1 H        0.926     0.030     2.590     2.517
    58   1 H        0.926     0.031     2.566     2.505
    59   1 H        0.926     0.035     2.511     2.478
    60   1 H        0.926     0.033     2.549     2.497
    61   1 H        0.926     0.033     2.548     2.496
    62   1 H        0.926     0.035     2.511     2.478
    63   1 H        0.926     0.031     2.567     2.505
    64   1 H        0.926     0.030     2.591     2.517
    65   1 H        0.926     0.029     2.597     2.520
    66   1 H        0.926     0.030     2.589     2.516
    67   1 H        0.926     0.032     2.565     2.504
    68   1 H        0.926     0.036     2.509     2.477
    69   1 H        0.926     0.033     2.546     2.495
    70   1 H        0.926     0.034     2.524     2.484
    71   1 H        0.926     0.037     2.484     2.464
    72   1 H        0.926     0.041     2.433     2.439
    73   1 H        0.926     0.046     2.367     2.406
    74   1 H        0.926     0.036     2.508     2.477
    75   1 H        0.926     0.047     2.358     2.401
    76   1 H        0.926     0.041     2.437     2.441
    77   1 H        0.926     0.041     2.433     2.439
    78   1 H        0.926     0.039     2.456     2.451
    79   1 H        0.926     0.034     2.528     2.486
    80   1 H        0.926     0.049     2.327     2.386
    81   1 H        0.926     0.040     2.443     2.444
    82   1 H        0.926     0.042     2.428     2.437
    83   1 H        0.926     0.040     2.442     2.444
    84   1 H        0.926     0.049     2.327     2.386
    85   1 H        0.926     0.033     2.540     2.492
    86   1 H        0.926     0.040     2.450     2.448
    87   1 H        0.926     0.037     2.491     2.468
    88   1 H        0.926     0.034     2.526     2.485
    89   1 H        0.926     0.033     2.542     2.493
    90   1 H        0.926     0.036     2.507     2.476
    91   1 H        0.926     0.032     2.564     2.504
    92   1 H        0.926     0.030     2.589     2.516

molecular dipole:
                 x           y           z       tot (Debye)
 q only:       -0.480       0.227      -0.108
   full:       -0.650       0.567      -0.268       2.296

 projected vibrational frequencies (cm⁻¹)
eigval :       -0.00    -0.00    -0.00     0.00     0.00     0.00
eigval :        8.32    10.09    11.53    17.79    20.70    24.63
eigval :       32.64    34.53    42.27    50.10    51.72    54.04
eigval :       57.33    63.27    67.23    75.02    82.64    86.89
eigval :       96.52    97.29   100.20   110.30   116.89   125.83
eigval :      139.34   184.80   188.27   197.12   200.97   207.51
eigval :      223.52   232.12   249.20   262.98   269.96   286.84
eigval :      288.65   326.46   345.60   350.60   352.53   367.86
eigval :      368.70   369.00   370.45   370.89   379.55   381.05
eigval :      382.21   388.37   389.44   402.56   427.21   428.53
eigval :      429.37   436.59   454.52   465.56   486.89   490.11
eigval :      497.84   530.49   535.20   536.68   553.15   585.39
eigval :      585.71   586.77   588.59   588.86   592.22   600.63
eigval :      604.82   608.10   609.07   609.66   619.96   624.87
eigval :      634.64   659.20   664.79   666.21   667.84   673.80
eigval :      679.29   684.18   686.80   705.71   733.19   736.73
eigval :      738.72   756.18   756.49   763.89   777.43   779.95
eigval :      805.84   817.31   818.98   827.43   834.72   843.90
eigval :      849.07   866.92   867.59   868.73   874.17   876.13
eigval :      877.49   877.77   879.05   898.67   898.84   905.19
eigval :      911.85   914.36   916.51   917.20   917.83   919.00
eigval :      921.74   924.93   925.37   927.11   930.38   930.48
eigval :      930.78   931.21   931.33   931.69   932.13   932.45
eigval :      933.30   963.44   967.74   971.45   987.38   989.74
eigval :     1005.17  1018.29  1020.71  1026.06  1074.53  1074.69
eigval :     1075.31  1077.84  1079.49  1087.63  1088.03  1088.10
eigval :     1105.05  1111.47  1121.26  1122.10  1124.47  1137.37
eigval :     1142.06  1144.00  1145.63  1170.95  1177.64  1179.01
eigval :     1180.91  1181.22  1185.27  1192.99  1194.34  1195.27
eigval :     1198.37  1201.13  1203.52  1204.45  1217.24  1223.27
eigval :     1247.40  1267.69  1269.20  1269.76  1271.37  1272.62
eigval :     1278.00  1281.37  1281.73  1282.73  1285.28  1300.16
eigval :     1309.84  1316.68  1316.82  1319.92  1320.66  1323.38
eigval :     1323.81  1325.68  1328.45  1329.32  1360.72  1365.79
eigval :     1392.29  1399.31  1403.24  1408.62  1417.56  1429.10
eigval :     1432.80  1434.17  1436.28  1463.38  1464.13  1467.75
eigval :     1473.29  1476.00  1499.24  1499.44  1502.14  1512.19
eigval :     1528.07  1548.12  1555.60  1559.01  1563.36  1580.58
eigval :     1580.77  1580.97  1582.37  1584.37  1588.06  1592.04
eigval :     1594.12  1595.09  1600.76  1601.52  1603.69  3064.96
eigval :     3065.29  3066.64  3067.27  3071.16  3071.87  3072.37
eigval :     3074.02  3074.61  3074.81  3074.99  3075.54  3075.88
eigval :     3076.46  3076.73  3076.86  3077.91  3078.74  3079.09
eigval :     3080.56  3081.67  3085.09  3085.34  3086.03  3086.55
eigval :     3086.69  3086.82  3087.60  3088.96  3089.42  3090.08
eigval :     3090.91  3096.67  3098.12  3100.33  3101.83  3109.00

   temp. (K)  partition function   enthalpy   heat capacity  entropy
                                   cal/mol     cal/K/mol   cal/K/mol   J/K/mol
 298.15  VIB  0.134E+23            26497.725    163.699    168.443
         ROT  0.280E+09              888.752      2.981     41.632
         INT  0.375E+31            27386.477    166.680    210.075
         TR   0.181E+29             1481.254      4.968     45.514
         TOT                       28867.7308   171.6479   255.5889  1069.3838

       T/K    H(0)-H(T)+PV         H(T)/Eh          T*S/Eh         G(T)/Eh
   ------------------------------------------------------------------------
    298.15    0.460037E-01    0.760671E+00    0.121439E+00    0.639233E+00
   ------------------------------------------------------------------------

         :::::::::::::::::::::::::::::::::::::::::::::::::::::
         ::                  THERMODYNAMIC                  ::
         :::::::::::::::::::::::::::::::::::::::::::::::::::::
         :: total free energy        -138.402562371722 Eh   ::
         ::.................................................::
         :: total energy             -139.041795177570 Eh   ::
         :: zero point energy           0.714667666417 Eh   ::
         :: G(RRHO) w/o ZPVE           -0.075434860569 Eh   ::
         :: G(RRHO) contrib.            0.639232805848 Eh   ::
         :::::::::::::::::::::::::::::::::::::::::::::::::::::

           -------------------------------------------------
          | TOTAL ENERGY             -139.041795177570 Eh   |
          | TOTAL ENTHALPY           -138.281123853840 Eh   |
          | TOTAL FREE ENERGY        -138.402562371722 Eh   |
          | GRADIENT NORM               0.000052114506 Eh/α |
          | HOMO-LUMO GAP               1.830262535005 eV   |
           -------------------------------------------------

 * finished run on 2025/07/17 at 06:04:14.965
