   * xtb version 6.7.1 (edcfbbe) compiled by 'albert@albert-system' on 2024-07-22

   ID    Z sym.   atoms
    1    6 C      1-8, 10-38, 40-46, 48-55
    2    7 N      9, 39, 47
    3    1 H      56-92

          program call               : xtb data2507/toluene/BBA-Pyr/BBA-Pyr_toluene_S0_finalOpt.xtbopt.xyz --gfn 2 --uhf 2 --gbsa toluene --ohess vtight --parallel 40 --molden --ceasefiles --namespace data2507/toluene/BBA-Pyr/BBA-Pyr_toluene_T1_preOpt
      * Solvation model:               GBSA
        Solvent                        toluene
        Solvent mass                       9.2140E+01 g/mol
          :  Hamiltonian                  GFN2-xTB          :
 * total energy  :  -138.9584278 Eh     change       -0.4799006E-09 Eh
 * total energy  :  -138.9615452 Eh     change       -0.3117449E-02 Eh
 * total energy  :  -138.9627473 Eh     change       -0.1202073E-02 Eh
 * total energy  :  -138.9628780 Eh     change       -0.1306913E-03 Eh
 * total energy  :  -138.9630679 Eh     change       -0.1899490E-03 Eh
 * total energy  :  -138.9631552 Eh     change       -0.8722112E-04 Eh
 * total energy  :  -138.9632639 Eh     change       -0.1086921E-03 Eh
 * total energy  :  -138.9633619 Eh     change       -0.9801551E-04 Eh
 * total energy  :  -138.9634335 Eh     change       -0.7161154E-04 Eh
 * total energy  :  -138.9635067 Eh     change       -0.7317720E-04 Eh
 * total energy  :  -138.9649073 Eh     change       -0.1059473E-05 Eh
 * total energy  :  -138.9649083 Eh     change       -0.9760194E-06 Eh
 * total energy  :  -138.9649092 Eh     change       -0.9520746E-06 Eh
 * total energy  :  -138.9649101 Eh     change       -0.8894408E-06 Eh
 * total energy  :  -138.9649109 Eh     change       -0.8344720E-06 Eh
 * total energy  :  -138.9649118 Eh     change       -0.8310216E-06 Eh
 * total energy  :  -138.9649126 Eh     change       -0.8077465E-06 Eh
 * total energy  :  -138.9649134 Eh     change       -0.8370866E-06 Eh
 * total energy  :  -138.9649134 Eh     change       -0.6683166E-08 Eh
   *** GEOMETRY OPTIMIZATION CONVERGED AFTER 152 ITERATIONS ***

 final structure:
================
92
 xtb: 6.7.1 (edcfbbe)
C           -8.34031897574144       -7.26496545741935       -0.84659452589800
C           -9.04456784874094       -6.07744269343832       -0.72876818102130
C           -8.37006432135961       -4.88130656909155       -0.57074706588419
C           -6.97636752563754       -4.85183474569552       -0.52200348173170
C           -6.25872014973116       -3.58229080247635       -0.35889081937153
C           -6.69863444402716       -2.42384960489853       -1.00365909240337
C           -6.02282619149050       -1.23188240388989       -0.86475508630160
C           -4.87665422442273       -1.15822737475468       -0.06766446411921
N           -4.18391355766959        0.04781664059833        0.06038855103003
C           -4.90161459421123        1.24159414287149        0.14491895425475
C           -4.43087467644513        2.40729426456989       -0.46684770090783
C           -5.14135980049919        3.58297123330679       -0.36350930453463
C           -6.34569435064254        3.63937968924638        0.34188608403503
C           -7.09649824118143        4.89518246500669        0.45481399345503
C           -6.43269843491696        6.10527446322221        0.65560711163543
C           -7.14146861818365        7.28670859417911        0.76889123159768
C           -8.52405798128975        7.28243579572648        0.67697433076158
C           -9.19424980646482        6.08685088458197        0.47359878136383
C           -8.48851009211635        4.90297151302448        0.36785156498565
C           -6.81537863745121        2.46822623828943        0.94080773704410
C           -6.10852899006473        1.28973424205093        0.84961547160349
C           -2.79426785393474        0.05670150751232        0.09129865062855
C           -2.05380990234471       -0.90488615277241       -0.61436262842099
C           -0.68298859354736       -0.89196991352952       -0.58563385657993
C            0.03196877105865        0.09002993873204        0.12815046962815
C            1.47496249086587        0.11589712978288        0.12740215837744
C            2.23539558502389       -1.06771424054359        0.02151619432788
C            3.60105378200479       -1.03963498242510        0.01831141150398
C            4.31781371089629        0.17907634364568        0.07809385876014
C            5.74588501003633        0.16222547563265        0.03090820946391
C            6.54325516371888        1.30332314048400       -0.18088257326191
C            7.91625176247705        1.15367203349768       -0.23812933474822
C            8.83735963173825        2.25611971480735       -0.47486868196561
C           10.19165696653759        2.09764647058019       -0.15309385977716
C           11.09486995020797        3.11701646953611       -0.36851464835372
C           10.67430708972765        4.32046344537152       -0.91591375883649
C            9.33786628461730        4.48890019899880       -1.24682566476771
C            8.42848427316543        3.47302970526945       -1.03187166057689
N            8.47113023560923       -0.07465320135694       -0.04985874055945
C            7.67955830869230       -1.11912269970737        0.14432784612771
C            8.30638476160450       -2.42982415286765        0.34687759445405
C            9.67425018103001       -2.59373527761197        0.14134856403218
C           10.26600683118483       -3.82634331144213        0.34309831770027
C            9.50007165764702       -4.90698506018080        0.75189966396658
C            8.13788772533702       -4.75118378097483        0.95759631270718
C            7.54255136152467       -3.52053225919805        0.75597068288495
N            6.36977316571781       -1.04192835237617        0.17364441324254
C            3.55557232862130        1.36427764377900        0.18054146912005
C            2.18856021972216        1.32777307609630        0.22404538959858
C           -0.72420063656263        1.04807750895630        0.83188905818461
C           -2.09546531088919        1.02867937819675        0.82445480649169
C           -4.43535823552367       -2.31063253332359        0.58869472125995
C           -5.11670975337653       -3.49893360627734        0.44130274377513
C           -6.27870450508010       -6.05418853452096       -0.63751470216352
C           -6.95557201120009       -7.24826152086524       -0.80133969492980
H           -8.86793444152755       -8.19897626879698       -0.97345803575977
H          -10.12477526446684       -6.08509751161834       -0.75852005002663
H           -8.92768038546986       -3.96270855964541       -0.46050530949366
H           -7.56328766856767       -2.46908176779623       -1.64849258369842
H           -6.36114522615907       -0.35100483108462       -1.39004671101314
H           -3.51422663337704        2.37439055721877       -1.03698398675567
H           -4.77497104219289        4.46765845752081       -0.86234218138918
H           -5.35624406639373        6.11497569635505        0.74682765915522
H           -6.61411115396634        8.21567391495946        0.93234527345942
H           -9.07646830032724        8.20671730236423        0.76294651454961
H          -10.27209880475523        6.07850998497572        0.39659744322081
H           -9.01713287802338        3.97746523547423        0.19174017846714
H           -7.73056121865585        2.49349396579201        1.51294444711197
H           -6.47205080555868        0.39922647644242        1.34071421513245
H           -2.57378069253737       -1.64199919429014       -1.20855440627086
H           -0.13894721005118       -1.62224888659273       -1.16482675063608
H            1.72773676080620       -2.02099074651766       -0.01510130681466
H            4.17086229860274       -1.95480700187299       -0.04310127282798
H            6.08817629641842        2.27191638343009       -0.30252396510536
H           10.50959426370057        1.15912826747855        0.27540008099143
H           12.13489469789684        2.97541138996550       -0.11040603431050
H           11.38139938828520        5.11869676493059       -1.08733008220002
H            9.00405080556435        5.42006405587966       -1.68289964159975
H            7.39775255893315        3.61948609353931       -1.31935076742621
H           10.25555789276010       -1.74226427910811       -0.17913165492860
H           11.32752020711379       -3.94632637492375        0.18136706853423
H            9.96428855989357       -5.86942399525749        0.91092627254518
H            7.53975025756772       -5.59225578226386        1.27732723380370
H            6.48419620008444       -3.38098885392857        0.91681253464287
H            4.05469157075472        2.32014053521219        0.24446615186473
H            1.64222832271798        2.25793367671241        0.29011986046120
H           -0.21308459431223        1.78883956975989        1.42771791521991
H           -2.64853944313345        1.75106255130336        1.40683912314990
H           -3.56540192471634       -2.25754468531948        1.22655694205233
H           -4.77673665850531       -4.37265434653521        0.97662709685985
H           -5.19851624888650       -6.04855876972464       -0.62408878758762
H           -6.40102680730652       -8.17078250628531       -0.89723316406960

          :  Hamiltonian                  GFN2-xTB          :
         :: gradient norm              0.000087775430 Eh/a0 ::
         :: HOMO-LUMO gap              0.387318061721 eV    ::
         :: SCC energy              -141.599024435560 Eh    ::
         :: -> dispersion             -0.119362116713 Eh    ::
         :: -> Gsolv                  -0.067520679634 Eh    ::
         :: repulsion energy           2.634111022738 Eh    ::

    * Orbital Energies and Occupations

         #    Occupation            Energy/Eh            Energy/eV
      -------------------------------------------------------------
         1        2.0000           -0.6832309             -18.5917
       ...           ...                  ...                  ...
       119        2.0000           -0.4075604             -11.0903
       120        2.0000           -0.4051840             -11.0256
       121        2.0000           -0.4027418             -10.9592
       122        2.0000           -0.4008113             -10.9066
       123        2.0000           -0.3976671             -10.8211
       124        2.0000           -0.3972314             -10.8092
       125        2.0000           -0.3942051             -10.7269
       126        2.0000           -0.3905314             -10.6269
       127        2.0000           -0.3886672             -10.5762
       128        2.0000           -0.3785192             -10.3000
       129        1.6132           -0.3573893              -9.7251
       130        1.3868           -0.3565139              -9.7012
       131        0.9994           -0.2768472              -7.5334 (HOMO)
       132        0.0005           -0.2626137              -7.1461 (LUMO)
       133        0.0000           -0.2596161              -7.0645
       134                         -0.2527686              -6.8782
       135                         -0.2391876              -6.5086
       136                         -0.2375109              -6.4630
       137                         -0.2329599              -6.3392
       138                         -0.2262156              -6.1556
       139                         -0.2256852              -6.1412
       140                         -0.2254432              -6.1346
       141                         -0.2225933              -6.0571
       142                         -0.2193839              -5.9697
       ...                                ...                  ...
       257                          0.7080930              19.2682
      -------------------------------------------------------------
                  HL-Gap            0.0142335 Eh            0.3873 eV

     #   Z          covCN         q      C6AA      α(0)
     1   6 C        2.920    -0.030    28.751     8.793
     2   6 C        2.918    -0.030    28.739     8.791
     3   6 C        2.924    -0.034    28.845     8.808
     4   6 C        2.976     0.010    27.779     8.645
     5   6 C        2.975     0.012    27.739     8.639
     6   6 C        2.923    -0.031    28.778     8.797
     7   6 C        2.919    -0.042    29.031     8.836
     8   6 C        2.928     0.061    26.644     8.465
     9   7 N        2.752    -0.025    21.729     6.923
    10   6 C        2.927     0.061    26.639     8.464
    11   6 C        2.918    -0.041    29.018     8.834
    12   6 C        2.923    -0.031    28.777     8.797
    13   6 C        2.975     0.012    27.744     8.640
    14   6 C        2.976     0.010    27.778     8.645
    15   6 C        2.924    -0.034    28.841     8.807
    16   6 C        2.918    -0.030    28.738     8.791
    17   6 C        2.920    -0.030    28.753     8.793
    18   6 C        2.918    -0.030    28.739     8.791
    19   6 C        2.924    -0.034    28.844     8.808
    20   6 C        2.923    -0.031    28.777     8.797
    21   6 C        2.919    -0.042    29.038     8.837
    22   6 C        2.924     0.053    26.808     8.491
    23   6 C        2.916    -0.043    29.074     8.842
    24   6 C        2.921    -0.036    28.898     8.815
    25   6 C        2.972     0.011    27.767     8.644
    26   6 C        2.973    -0.009    28.237     8.716
    27   6 C        2.918    -0.039    28.960     8.825
    28   6 C        2.920    -0.038    28.951     8.823
    29   6 C        2.974    -0.011    28.289     8.724
    30   6 C        2.940     0.078    26.268     8.406
    31   6 C        2.911    -0.062    29.547     8.913
    32   6 C        2.941     0.087    26.062     8.373
    33   6 C        2.976    -0.003    28.104     8.696
    34   6 C        2.926    -0.032    28.804     8.801
    35   6 C        2.917    -0.032    28.800     8.800
    36   6 C        2.919    -0.037    28.913     8.818
    37   6 C        2.917    -0.033    28.813     8.802
    38   6 C        2.922    -0.040    28.991     8.830
    39   7 N        1.850    -0.294    28.461     7.907
    40   6 C        2.898     0.193    23.896     8.015
    41   6 C        2.984    -0.003    28.095     8.695
    42   6 C        2.924    -0.029    28.721     8.789
    43   6 C        2.918    -0.030    28.741     8.791
    44   6 C        2.920    -0.028    28.703     8.786
    45   6 C        2.918    -0.030    28.744     8.792
    46   6 C        2.924    -0.029    28.723     8.789
    47   7 N        1.851    -0.279    28.082     7.854
    48   6 C        2.916    -0.046    29.133     8.851
    49   6 C        2.918    -0.038    28.956     8.824
    50   6 C        2.921    -0.036    28.902     8.816
    51   6 C        2.916    -0.043    29.074     8.842
    52   6 C        2.918    -0.041    29.008     8.832
    53   6 C        2.923    -0.031    28.776     8.797
    54   6 C        2.924    -0.034    28.840     8.807
    55   6 C        2.918    -0.029    28.736     8.791
    56   1 H        0.926     0.032     2.556     2.500
    57   1 H        0.926     0.033     2.542     2.493
    58   1 H        0.926     0.037     2.494     2.469
    59   1 H        0.926     0.047     2.360     2.402
    60   1 H        0.926     0.044     2.394     2.420
    61   1 H        0.926     0.044     2.392     2.419
    62   1 H        0.926     0.045     2.380     2.413
    63   1 H        0.926     0.035     2.513     2.479
    64   1 H        0.926     0.032     2.552     2.498
    65   1 H        0.926     0.032     2.557     2.501
    66   1 H        0.926     0.033     2.541     2.493
    67   1 H        0.926     0.037     2.494     2.470
    68   1 H        0.926     0.047     2.363     2.404
    69   1 H        0.926     0.044     2.392     2.419
    70   1 H        0.926     0.040     2.451     2.448
    71   1 H        0.926     0.039     2.463     2.454
    72   1 H        0.926     0.028     2.618     2.530
    73   1 H        0.926     0.031     2.575     2.509
    74   1 H        0.926     0.024     2.677     2.558
    75   1 H        0.926     0.037     2.486     2.465
    76   1 H        0.926     0.030     2.581     2.512
    77   1 H        0.926     0.030     2.587     2.515
    78   1 H        0.926     0.029     2.600     2.521
    79   1 H        0.926     0.024     2.680     2.560
    80   1 H        0.926     0.044     2.395     2.420
    81   1 H        0.926     0.039     2.461     2.453
    82   1 H        0.926     0.041     2.440     2.443
    83   1 H        0.926     0.040     2.455     2.450
    84   1 H        0.926     0.044     2.398     2.422
    85   1 H        0.926     0.016     2.794     2.614
    86   1 H        0.926     0.026     2.642     2.542
    87   1 H        0.926     0.038     2.474     2.460
    88   1 H        0.926     0.040     2.451     2.448
    89   1 H        0.926     0.045     2.389     2.417
    90   1 H        0.926     0.046     2.371     2.408
    91   1 H        0.926     0.036     2.507     2.476
    92   1 H        0.926     0.033     2.550     2.497

molecular dipole:
                 x           y           z       tot (Debye)
 q only:       -6.456      -0.425       0.079
   full:       -6.517      -0.082       0.023      16.566

 projected vibrational frequencies (cm⁻¹)
eigval :       -0.00    -0.00    -0.00    -0.00     0.00     0.00
eigval :        6.73     9.11    12.30    18.13    22.52    26.74
eigval :       29.31    31.81    35.94    42.92    48.45    52.05
eigval :       56.24    65.56    69.89    76.37    85.23    88.64
eigval :       98.31    99.66   102.03   112.20   113.01   128.98
eigval :      143.58   177.06   187.60   200.90   202.88   209.21
eigval :      215.93   221.26   246.44   262.53   268.90   280.69
eigval :      288.75   326.32   335.72   349.58   351.69   367.20
eigval :      367.32   368.04   368.40   373.49   380.95   381.94
eigval :      384.56   386.41   391.94   395.09   416.75   423.04
eigval :      428.29   438.88   444.90   464.52   469.16   483.86
eigval :      496.93   513.28   534.88   540.11   542.23   559.48
eigval :      578.78   582.56   585.26   587.68   588.22   588.40
eigval :      589.88   594.04   599.85   604.79   606.37   608.46
eigval :      626.36   650.56   653.43   658.29   662.35   663.88
eigval :      667.69   674.98   682.18   687.49   689.44   726.85
eigval :      735.76   749.22   755.13   756.28   768.44   772.66
eigval :      791.21   807.87   814.75   821.41   822.37   823.55
eigval :      831.16   838.22   846.85   861.48   863.15   864.08
eigval :      874.74   875.36   880.78   884.71   899.76   900.16
eigval :      900.52   908.02   908.76   910.96   912.70   914.46
eigval :      918.00   918.96   920.22   920.82   921.03   924.67
eigval :      926.31   930.74   931.23   931.92   932.31   932.51
eigval :      933.74   934.30   962.12   969.95   972.51   982.84
eigval :      984.16   996.31  1010.08  1014.32  1052.95  1058.06
eigval :     1071.85  1072.59  1073.55  1079.18  1084.20  1086.04
eigval :     1086.68  1107.21  1116.28  1120.85  1122.68  1128.32
eigval :     1140.07  1142.52  1143.47  1154.15  1165.55  1174.63
eigval :     1176.45  1178.57  1181.44  1181.62  1188.32  1191.00
eigval :     1195.04  1199.99  1201.97  1202.97  1213.42  1222.40
eigval :     1257.00  1265.02  1267.41  1267.82  1268.62  1276.84
eigval :     1279.62  1280.47  1281.02  1286.19  1288.07  1290.71
eigval :     1301.87  1309.07  1311.85  1314.62  1317.10  1317.89
eigval :     1323.16  1324.93  1325.32  1326.93  1334.98  1350.24
eigval :     1381.63  1393.11  1402.68  1408.59  1425.06  1425.98
eigval :     1431.52  1432.88  1433.69  1436.80  1444.43  1452.65
eigval :     1454.45  1455.95  1467.23  1468.71  1472.52  1487.22
eigval :     1489.34  1490.36  1490.86  1536.28  1540.92  1543.79
eigval :     1557.21  1563.04  1573.57  1576.39  1576.86  1582.30
eigval :     1584.03  1588.98  1593.80  1596.73  1597.65  3063.67
eigval :     3064.02  3066.26  3068.38  3068.41  3068.75  3069.16
eigval :     3069.84  3070.97  3073.80  3076.97  3077.66  3078.50
eigval :     3078.83  3078.93  3080.02  3081.37  3081.75  3082.99
eigval :     3083.52  3083.60  3083.79  3084.81  3084.92  3087.50
eigval :     3089.71  3089.76  3092.55  3093.06  3093.39  3093.48
eigval :     3093.78  3095.05  3095.33  3095.61  3096.48  3104.62

   temp. (K)  partition function   enthalpy   heat capacity  entropy
                                   cal/mol     cal/K/mol   cal/K/mol   J/K/mol
 298.15  VIB  0.264E+23            26740.599    165.074    169.587
         ROT  0.280E+09              888.752      2.981     41.632
         INT  0.738E+31            27629.351    168.055    211.219
         TR   0.181E+29             1481.254      4.968     45.514
         TOT                       29110.6053   173.0233   256.7329  1074.1704

       T/K    H(0)-H(T)+PV         H(T)/Eh          T*S/Eh         G(T)/Eh
   ------------------------------------------------------------------------
    298.15    0.463907E-01    0.757232E+00    0.121982E+00    0.635250E+00
   ------------------------------------------------------------------------

         :::::::::::::::::::::::::::::::::::::::::::::::::::::
         ::                  THERMODYNAMIC                  ::
         :::::::::::::::::::::::::::::::::::::::::::::::::::::
         :: total free energy        -138.329663325956 Eh   ::
         ::.................................................::
         :: total energy             -138.964913409209 Eh   ::
         :: zero point energy           0.710841455210 Eh   ::
         :: G(RRHO) w/o ZPVE           -0.075591371958 Eh   ::
         :: G(RRHO) contrib.            0.635250083253 Eh   ::
         :::::::::::::::::::::::::::::::::::::::::::::::::::::

           -------------------------------------------------
          | TOTAL ENERGY             -138.964913409209 Eh   |
          | TOTAL ENTHALPY           -138.207681251578 Eh   |
          | TOTAL FREE ENERGY        -138.329663325956 Eh   |
          | GRADIENT NORM               0.000089316884 Eh/α |
          | HOMO-LUMO GAP               0.387313762476 eV   |
           -------------------------------------------------

 * finished run on 2025/07/17 at 06:04:35.762
