   * xtb version 6.7.1 (edcfbbe) compiled by 'albert@albert-system' on 2024-07-22

   ID    Z sym.   atoms
    1    6 C      1-8, 10-38, 40-46, 48-55
    2    7 N      9, 39, 47
    3    1 H      56-92

          program call               : xtb data2507/toluene/BBA-Pyr/BBA-Pyr_toluene_T1_crest.xyz --gfn 2 --uhf 2 --gbsa toluene --ohess vtight --parallel 40 --molden --ceasefiles --namespace data2507/toluene/BBA-Pyr/BBA-Pyr_toluene_T1_finalOpt
      * Solvation model:               GBSA
        Solvent                        toluene
        Solvent mass                       9.2140E+01 g/mol
          :  Hamiltonian                  GFN2-xTB          :
 * total energy  :  -138.9652558 Eh     change       -0.1003627E-08 Eh
 * total energy  :  -138.9653709 Eh     change       -0.1151016E-03 Eh
 * total energy  :  -138.9654227 Eh     change       -0.5176355E-04 Eh
 * total energy  :  -138.9654282 Eh     change       -0.5467024E-05 Eh
 * total energy  :  -138.9654337 Eh     change       -0.5500909E-05 Eh
 * total energy  :  -138.9654369 Eh     change       -0.3270281E-05 Eh
 * total energy  :  -138.9654457 Eh     change       -0.8772421E-05 Eh
 * total energy  :  -138.9654497 Eh     change       -0.4019793E-05 Eh
 * total energy  :  -138.9654558 Eh     change       -0.6114612E-05 Eh
 * total energy  :  -138.9654627 Eh     change       -0.6885432E-05 Eh
 * total energy  :  -138.9655058 Eh     change       -0.6271082E-06 Eh
 * total energy  :  -138.9655063 Eh     change       -0.5266190E-06 Eh
 * total energy  :  -138.9655068 Eh     change       -0.5482050E-06 Eh
 * total energy  :  -138.9655074 Eh     change       -0.6184439E-06 Eh
 * total energy  :  -138.9655082 Eh     change       -0.7284651E-06 Eh
 * total energy  :  -138.9655090 Eh     change       -0.8082146E-06 Eh
 * total energy  :  -138.9655098 Eh     change       -0.8173760E-06 Eh
 * total energy  :  -138.9655106 Eh     change       -0.8236617E-06 Eh
 * total energy  :  -138.9655106 Eh     change       -0.7428071E-08 Eh
   *** GEOMETRY OPTIMIZATION CONVERGED AFTER 44 ITERATIONS ***

 final structure:
================
92
 xtb: 6.7.1 (edcfbbe)
C           -8.19507185193196       -7.44685047014139        0.22229411717141
C           -8.92079974818447       -6.26757592721799        0.27348713478401
C           -8.27083032167991       -5.04828031718215        0.23412242594499
C           -6.87989819214662       -4.98674562006246        0.15107797831329
C           -6.18810799722547       -3.69319056765409        0.11398759377901
C           -6.70537499377671       -2.62350025635372       -0.62044036031734
C           -6.05649164309230       -1.40939888783976       -0.66318031886133
C           -4.86319318343941       -1.22016960339281        0.04107686401684
N           -4.20122838631667        0.00655002009385       -0.00009374598360
C           -4.93219749521423        1.19335609733118       -0.03852095999989
C           -4.47297866733311        2.28769521625392       -0.77827451062517
C           -5.19130618008714        3.46247511612812       -0.80272558819898
C           -6.39261928868759        3.58963434338748       -0.10111410598016
C           -7.15202150802449        4.84486795468652       -0.12994155850424
C           -6.49427194360939        6.07405050245952       -0.08417720921317
C           -7.20896828843382        7.25692540043194       -0.10950164500229
C           -8.59219230243658        7.23443530547814       -0.18859792508164
C           -9.25664340596329        6.01947935711923       -0.23706770181565
C           -8.54480337402790        4.83499719835537       -0.20404018159566
C           -6.84925749875963        2.48978257725792        0.62895028125760
C           -6.13382074278905        1.31348412904720        0.66687883512618
C           -2.80925117258063        0.04622295540365       -0.00140815113681
C           -2.06286649985415       -0.93477501411176       -0.67177879630280
C           -0.69243218121157       -0.89389404139667       -0.66935829213379
C            0.01780064742293        0.12687291861777       -0.00405844245999
C            1.45909113393922        0.16694937710369       -0.00490590598678
C            2.23433222159375       -1.00591316567806       -0.13782169267324
C            3.59888507341799       -0.96643237428612       -0.12518466399499
C            4.30861699182866        0.25253707713456       -0.00016141398946
C            5.73623054210238        0.24230085433127       -0.00395988394852
C            6.54198929283652        1.39580405420050        0.08822938720912
C            7.91550372183857        1.25019678566071        0.07123276306106
C            8.84443042488808        2.36930149552583        0.16821142525941
C           10.17584610368720        2.12335062669582        0.52581437057986
C           11.08464053929137        3.15590211674637        0.62607791171377
C           10.69182006691573        4.46070845730382        0.36652000270651
C            9.37844252254274        4.71815988948156        0.00285817790594
C            8.46388706372830        3.68882324904662       -0.09748341689933
N            8.46579591677679        0.01013549724723       -0.01781207346866
C            7.66791305626050       -1.04525941886224       -0.10345646531088
C            8.28947666198333       -2.37061385336613       -0.19806117176811
C            9.67198947536790       -2.49017630991152       -0.32113644428354
C           10.25880997528189       -3.73865095203340       -0.40460724743092
C            9.47358403116080       -4.88028372475716       -0.36585327765560
C            8.09683569605262       -4.76899962664524       -0.24534328208479
C            7.50674711275500       -3.52232567506672       -0.16177634979010
N            6.35832501327585       -0.96679118797960       -0.10474481526902
C            3.53245415767842        1.42801812279611        0.12004198788274
C            2.16579811398937        1.38105092320350        0.12827499356768
C           -0.74825336666343        1.10527470145281        0.66292708457762
C           -2.11879618962805        1.06795396282996        0.66795127503069
C           -4.34221446431529       -2.28494838953385        0.78290794308985
C           -4.99411487817906       -3.49782749952995        0.81220489305352
C           -6.15990149899340       -6.18037746036401        0.10405776119187
C           -6.81296429534936       -7.39829947327693        0.13535554903569
H           -8.70399238021196       -8.39929186711201        0.24994181518425
H           -9.99852972361212       -6.29938582273600        0.34607346905682
H           -8.84280494983419       -4.13371790225235        0.29241781493636
H           -7.61180951912982       -2.75883902058928       -1.19108462533243
H           -6.45550284353063       -0.60164855116303       -1.25866019427713
H           -3.55873114393301        2.19773992805028       -1.34607532516591
H           -4.83351268040723        4.28812916493852       -1.39939574825195
H           -5.41720555010215        6.10013299061727       -0.00432976039389
H           -6.68567992455709        8.20144315141206       -0.06615904046458
H           -9.14953844046537        8.15947830021945       -0.21177950924006
H          -10.33504840169580        5.99654664193065       -0.30270332769954
H           -9.06969411536822        3.89251400653971       -0.26023616688289
H           -7.76116465650102        2.57242416247761        1.20088424694091
H           -6.48699270691546        0.48266103193190        1.25962486874602
H           -2.58013725192471       -1.71045458260580       -1.21767746452044
H           -0.14706566542518       -1.63893096896603       -1.22765193906086
H            1.73959832260651       -1.96366577586578       -0.20990929973686
H            4.17560106595629       -1.87519485819336       -0.20896933530626
H            6.09374622710600        2.36953847087199        0.19079209449904
H           10.47180862887811        1.10533617253518        0.72957682731630
H           12.10667620766218        2.94546337726278        0.90782918929081
H           11.40299386005454        5.26996986141233        0.44312385395267
H            9.06700497422597        5.73124506270778       -0.20982999175939
H            7.45258595448649        3.91104833270628       -0.40455682569775
H           10.26844458470638       -1.59094188991075       -0.35345248002211
H           11.33166215866948       -3.82344161106703       -0.50046983000259
H            9.93380276732752       -5.85550282292884       -0.43041086316801
H            7.48353605127772       -5.65801568578355       -0.21542112624205
H            6.43670656997768       -3.41888549950426       -0.06489636886203
H            4.01877369970962        2.38846614095061        0.20631966017516
H            1.61530877636487        2.30822881338764        0.19828443817464
H           -0.24573953419840        1.88010833985521        1.22102207819195
H           -2.67834591289921        1.81261442026781        1.21534829045522
H           -3.43345078648358       -2.14258520180860        1.34873367856148
H           -4.59010172041970       -4.30044278341796        1.41069029743733
H           -5.08337021962660       -6.15137577409726        0.01821745362407
H           -6.24222136826068       -8.31482151832082        0.09046673315339

          :  Hamiltonian                  GFN2-xTB          :
         :: gradient norm              0.000061966142 Eh/a0 ::
         :: HOMO-LUMO gap              0.408181106338 eV    ::
         :: SCC energy              -141.599520714370 Eh    ::
         :: -> dispersion             -0.119421545600 Eh    ::
         :: -> Gsolv                  -0.067341374987 Eh    ::
         :: repulsion energy           2.634010078372 Eh    ::

    * Orbital Energies and Occupations

         #    Occupation            Energy/Eh            Energy/eV
      -------------------------------------------------------------
         1        2.0000           -0.6830648             -18.5871
       ...           ...                  ...                  ...
       119        2.0000           -0.4075257             -11.0893
       120        2.0000           -0.4052076             -11.0263
       121        2.0000           -0.4032592             -10.9732
       122        2.0000           -0.4015065             -10.9255
       123        2.0000           -0.3975458             -10.8178
       124        2.0000           -0.3973013             -10.8111
       125        2.0000           -0.3941419             -10.7251
       126        2.0000           -0.3904698             -10.6252
       127        2.0000           -0.3888818             -10.5820
       128        2.0000           -0.3778328             -10.2814
       129        1.5888           -0.3571780              -9.7193
       130        1.4112           -0.3564962              -9.7008
       131        0.9996           -0.2779550              -7.5635 (HOMO)
       132        0.0004           -0.2629547              -7.1554 (LUMO)
       133        0.0000           -0.2594642              -7.0604
       134                         -0.2525002              -6.8709
       135                         -0.2395962              -6.5197
       136                         -0.2372689              -6.4564
       137                         -0.2327775              -6.3342
       138                         -0.2257789              -6.1438
       139                         -0.2256619              -6.1406
       140                         -0.2254135              -6.1338
       141                         -0.2225923              -6.0570
       142                         -0.2196245              -5.9763
       ...                                ...                  ...
       257                          0.7096919              19.3117
      -------------------------------------------------------------
                  HL-Gap            0.0150003 Eh            0.4082 eV

     #   Z          covCN         q      C6AA      α(0)
     1   6 C        2.920    -0.030    28.751     8.793
     2   6 C        2.918    -0.030    28.739     8.791
     3   6 C        2.924    -0.034    28.844     8.807
     4   6 C        2.976     0.011    27.776     8.645
     5   6 C        2.975     0.012    27.742     8.640
     6   6 C        2.923    -0.031    28.777     8.797
     7   6 C        2.919    -0.042    29.044     8.838
     8   6 C        2.927     0.061    26.633     8.463
     9   7 N        2.752    -0.025    21.724     6.922
    10   6 C        2.927     0.061    26.633     8.463
    11   6 C        2.919    -0.041    29.020     8.834
    12   6 C        2.923    -0.031    28.775     8.797
    13   6 C        2.975     0.012    27.746     8.640
    14   6 C        2.976     0.011    27.777     8.645
    15   6 C        2.925    -0.034    28.841     8.807
    16   6 C        2.918    -0.030    28.737     8.791
    17   6 C        2.920    -0.030    28.752     8.793
    18   6 C        2.918    -0.030    28.738     8.791
    19   6 C        2.924    -0.034    28.843     8.807
    20   6 C        2.923    -0.031    28.778     8.797
    21   6 C        2.919    -0.042    29.045     8.838
    22   6 C        2.926     0.052    26.841     8.496
    23   6 C        2.916    -0.043    29.057     8.839
    24   6 C        2.921    -0.037    28.915     8.818
    25   6 C        2.971     0.011    27.773     8.644
    26   6 C        2.972    -0.009    28.250     8.718
    27   6 C        2.918    -0.039    28.967     8.826
    28   6 C        2.920    -0.038    28.957     8.824
    29   6 C        2.973    -0.012    28.304     8.727
    30   6 C        2.939     0.078    26.262     8.405
    31   6 C        2.911    -0.063    29.560     8.915
    32   6 C        2.942     0.088    26.033     8.368
    33   6 C        2.976    -0.003    28.091     8.694
    34   6 C        2.926    -0.032    28.789     8.799
    35   6 C        2.917    -0.032    28.794     8.799
    36   6 C        2.919    -0.036    28.894     8.815
    37   6 C        2.917    -0.032    28.807     8.801
    38   6 C        2.922    -0.039    28.975     8.827
    39   7 N        1.850    -0.294    28.483     7.910
    40   6 C        2.898     0.192    23.902     8.016
    41   6 C        2.983    -0.003    28.099     8.695
    42   6 C        2.924    -0.029    28.724     8.789
    43   6 C        2.918    -0.030    28.741     8.791
    44   6 C        2.920    -0.028    28.703     8.786
    45   6 C        2.918    -0.030    28.745     8.792
    46   6 C        2.924    -0.029    28.720     8.788
    47   7 N        1.851    -0.278    28.062     7.851
    48   6 C        2.916    -0.046    29.136     8.851
    49   6 C        2.918    -0.039    28.963     8.825
    50   6 C        2.921    -0.037    28.919     8.819
    51   6 C        2.916    -0.043    29.059     8.840
    52   6 C        2.919    -0.041    29.018     8.834
    53   6 C        2.923    -0.031    28.773     8.796
    54   6 C        2.924    -0.034    28.839     8.807
    55   6 C        2.918    -0.029    28.736     8.791
    56   1 H        0.926     0.032     2.556     2.500
    57   1 H        0.926     0.033     2.541     2.493
    58   1 H        0.926     0.037     2.495     2.470
    59   1 H        0.926     0.047     2.362     2.403
    60   1 H        0.926     0.045     2.387     2.416
    61   1 H        0.926     0.044     2.398     2.422
    62   1 H        0.926     0.045     2.381     2.413
    63   1 H        0.926     0.035     2.512     2.479
    64   1 H        0.926     0.032     2.552     2.498
    65   1 H        0.926     0.032     2.556     2.500
    66   1 H        0.926     0.033     2.541     2.493
    67   1 H        0.926     0.037     2.493     2.469
    68   1 H        0.926     0.047     2.362     2.404
    69   1 H        0.926     0.045     2.386     2.416
    70   1 H        0.926     0.039     2.459     2.452
    71   1 H        0.926     0.039     2.463     2.454
    72   1 H        0.926     0.028     2.621     2.532
    73   1 H        0.926     0.031     2.572     2.508
    74   1 H        0.926     0.024     2.678     2.559
    75   1 H        0.926     0.038     2.479     2.462
    76   1 H        0.926     0.031     2.570     2.507
    77   1 H        0.926     0.031     2.575     2.509
    78   1 H        0.926     0.030     2.589     2.516
    79   1 H        0.926     0.024     2.672     2.556
    80   1 H        0.926     0.045     2.389     2.417
    81   1 H        0.926     0.039     2.462     2.454
    82   1 H        0.926     0.041     2.441     2.443
    83   1 H        0.926     0.039     2.455     2.450
    84   1 H        0.926     0.043     2.403     2.424
    85   1 H        0.926     0.015     2.805     2.619
    86   1 H        0.926     0.026     2.646     2.544
    87   1 H        0.926     0.038     2.478     2.462
    88   1 H        0.926     0.039     2.464     2.455
    89   1 H        0.926     0.044     2.395     2.420
    90   1 H        0.926     0.046     2.376     2.411
    91   1 H        0.926     0.036     2.509     2.477
    92   1 H        0.926     0.033     2.549     2.497

molecular dipole:
                 x           y           z       tot (Debye)
 q only:       -6.333      -0.467       0.005
   full:       -6.393      -0.117       0.026      16.252

 projected vibrational frequencies (cm⁻¹)
eigval :       -0.00    -0.00     0.00     0.00     0.00     0.00
eigval :      -20.67     9.21     9.52    14.10    18.37    23.51
eigval :       30.36    34.26    36.25    40.40    52.31    53.41
eigval :       54.49    62.44    71.32    75.08    84.76    86.34
eigval :       96.82    99.69   100.71   110.09   112.10   130.19
eigval :      148.24   172.38   187.06   200.15   200.54   208.34
eigval :      218.11   222.75   245.36   262.69   269.11   279.84
eigval :      288.51   326.50   335.90   348.46   353.40   366.24
eigval :      367.17   369.58   370.61   371.14   381.38   381.95
eigval :      383.80   389.25   390.67   394.19   412.41   422.04
eigval :      428.17   439.28   443.37   463.74   467.86   483.93
eigval :      497.67   512.77   534.26   538.47   542.58   558.93
eigval :      578.85   582.04   585.55   587.76   588.23   588.64
eigval :      590.12   594.73   599.66   605.10   607.09   607.67
eigval :      626.93   650.56   653.25   659.74   662.06   666.11
eigval :      667.13   675.37   682.34   686.15   687.27   726.56
eigval :      735.81   752.59   756.79   757.32   766.30   772.65
eigval :      788.77   801.60   813.13   820.44   821.11   823.65
eigval :      826.19   837.93   845.60   862.11   865.02   866.47
eigval :      875.27   876.12   877.04   888.69   897.49   901.03
eigval :      901.11   905.00   906.97   909.51   911.06   914.75
eigval :      918.08   918.34   920.63   922.68   925.09   925.23
eigval :      926.32   929.04   930.58   931.00   931.90   932.84
eigval :      933.33   935.33   961.95   969.87   971.88   983.58
eigval :      984.52   995.84  1010.09  1014.05  1050.74  1056.94
eigval :     1071.78  1072.34  1073.68  1079.92  1084.52  1086.32
eigval :     1086.62  1108.08  1118.22  1120.86  1122.34  1130.16
eigval :     1140.69  1142.86  1144.06  1156.23  1166.13  1175.83
eigval :     1177.34  1180.31  1181.44  1181.78  1188.50  1190.57
eigval :     1195.81  1200.00  1201.43  1202.52  1213.90  1225.48
eigval :     1256.21  1264.70  1267.33  1267.72  1269.65  1277.21
eigval :     1280.31  1280.68  1281.02  1287.12  1287.64  1291.30
eigval :     1302.04  1309.57  1312.65  1312.99  1317.56  1317.91
eigval :     1322.74  1324.72  1325.66  1327.06  1334.94  1348.99
eigval :     1382.40  1394.31  1403.01  1409.12  1425.73  1426.75
eigval :     1431.53  1433.09  1434.27  1437.33  1447.06  1452.33
eigval :     1454.83  1455.98  1466.84  1468.83  1472.51  1487.73
eigval :     1489.67  1490.47  1492.51  1535.83  1540.58  1544.31
eigval :     1560.01  1563.52  1574.10  1576.83  1576.91  1581.98
eigval :     1585.01  1589.52  1593.95  1596.93  1597.74  3064.83
eigval :     3065.58  3066.99  3068.50  3068.55  3069.64  3069.81
eigval :     3070.66  3070.86  3074.53  3076.83  3077.67  3078.52
eigval :     3078.81  3078.85  3079.74  3081.46  3081.64  3083.39
eigval :     3083.92  3084.08  3084.24  3085.09  3085.51  3089.64
eigval :     3089.75  3090.79  3093.62  3094.03  3094.19  3094.22
eigval :     3095.20  3095.78  3096.16  3096.63  3097.85  3106.70

   temp. (K)  partition function   enthalpy   heat capacity  entropy
                                   cal/mol     cal/K/mol   cal/K/mol   J/K/mol
 298.15  VIB  0.185E+22            26191.198    164.076    164.928
         ROT  0.280E+09              888.752      2.981     41.632
         INT  0.518E+30            27079.950    167.057    206.560
         TR   0.181E+29             1481.254      4.968     45.514
         TOT                       28561.2039   172.0250   252.0741  1054.6781

       T/K    H(0)-H(T)+PV         H(T)/Eh          T*S/Eh         G(T)/Eh
   ------------------------------------------------------------------------
    298.15    0.455152E-01    0.756363E+00    0.119769E+00    0.636594E+00
   ------------------------------------------------------------------------

         :::::::::::::::::::::::::::::::::::::::::::::::::::::
         ::                  THERMODYNAMIC                  ::
         :::::::::::::::::::::::::::::::::::::::::::::::::::::
         :: total free energy        -138.328916290933 Eh   ::
         ::.................................................::
         :: total energy             -138.965510636197 Eh   ::
         :: zero point energy           0.710847719826 Eh   ::
         :: G(RRHO) w/o ZPVE           -0.074253374561 Eh   ::
         :: G(RRHO) contrib.            0.636594345265 Eh   ::
         :::::::::::::::::::::::::::::::::::::::::::::::::::::

           -------------------------------------------------
          | TOTAL ENERGY             -138.965510636197 Eh   |
          | TOTAL ENTHALPY           -138.209147740857 Eh   |
          | TOTAL FREE ENERGY        -138.328916290933 Eh   |
          | GRADIENT NORM               0.000062444084 Eh/α |
          | HOMO-LUMO GAP               0.408179723331 eV   |
           -------------------------------------------------

 * finished run on 2025/07/17 at 06:16:22.999
