   * xtb version 6.7.1 (edcfbbe) compiled by 'albert@albert-system' on 2024-07-22

   ID    Z sym.   atoms
    1   35 Br     1, 12
    2    6 C      2-5, 7-11, 13-21, 23, 24
    3    7 N      6, 22
    4    1 H      25-34

          program call               : xtb data2507/gas/phenazasiline/phenazasiline_gas_T1_crest.xyz --gfn 2 --spinpol --tblite --uhf 2 --ohess vtight --parallel 40 --molden --ceasefiles --namespace data2507/gas/phenazasiline/phenazasiline_gas_T1_finalOpt
 * total energy  :   -61.9273625 Eh     change        0.2489497E-07 Eh
 * total energy  :   -61.9273954 Eh     change       -0.3296150E-04 Eh
 * total energy  :   -61.9274086 Eh     change       -0.1322225E-04 Eh
 * total energy  :   -61.9274099 Eh     change       -0.1240477E-05 Eh
 * total energy  :   -61.9274101 Eh     change       -0.1694860E-06 Eh
 * total energy  :   -61.9274101 Eh     change       -0.5204127E-07 Eh
   *** GEOMETRY OPTIMIZATION CONVERGED AFTER 6 ITERATIONS ***

 final structure:
================
34
 xtb: 6.7.1 (edcfbbe)
Br           6.63529103283072        0.41971400388088       -0.00008310692257
C            4.75466640364388        0.70557807947462        0.00230346296310
C            4.26396381149785        2.00100480015978        0.00609848535449
C            2.89632896576413        2.20830924119275        0.00722938667872
C            2.00224308206024        1.14097940864051        0.00473095215314
N            0.68429836854111        1.29191870666155        0.00484271694618
C           -0.16450806479824        0.27500833550959        0.00281565890880
C           -1.57618112048089        0.47608088935670        0.00182659522833
C           -2.07599156744394        1.79046141569957        0.00133472144057
C           -3.42303559867519        2.03494576108751       -0.00010655786139
C           -4.29823413353297        0.94830127509210       -0.00084241374763
Br          -6.17624729692523        1.27476511114340       -0.00280296176165
C           -3.84299567890393       -0.34789512748055       -0.00033776080856
C           -2.46850808631427       -0.62232905862036        0.00089465755867
C           -1.94282481800258       -1.96739519954409        0.00100382563483
C           -2.75957194689753       -3.10799924569786        0.00121999803216
C           -2.22405384311261       -4.37359372530342        0.00098320201695
C           -0.84088272368130       -4.55543715621565        0.00048272692998
C           -0.01280590389756       -3.46350430535793        0.00038395546445
C           -0.54251548380629       -2.16191030831314        0.00074563157586
C            0.35659429928805       -1.05213205480877        0.00123459466921
N            1.66821703569042       -1.21984509086159        0.00045043684430
C            2.53273192121418       -0.21194959909599        0.00167732386719
C            3.91063352964032       -0.39275523106388        0.00025287674795
H            4.94125297490611        2.83999012330887        0.00801433934607
H            2.49457672016132        3.20892732643904        0.00993775487766
H           -1.36729713720109        2.60412326557848        0.00193478986669
H           -3.80751683483182        3.04274606826363       -0.00070914142594
H           -4.56214324995993       -1.15024030863247       -0.00110633740738
H           -3.83242269352612       -3.00378667434168        0.00169057925004
H           -2.87811589648386       -5.23253843433074        0.00118579207466
H           -0.42709431601678       -5.55236907560764        0.00024635009406
H            1.06082372090939       -3.57357639980674        0.00014670608618
H            4.30214475154440       -1.39736899580646       -0.00240455107512

 projected vibrational frequencies (cm⁻¹)
eigval :       -0.00    -0.00    -0.00    -0.00     0.00     0.00
eigval :       21.48    51.00    61.90    66.69    82.02   119.58
eigval :      123.22   141.85   148.31   196.59   216.75   232.97
eigval :      249.63   274.11   301.92   329.65   347.95   370.72
eigval :      385.43   406.85   414.95   417.23   450.38   478.65
eigval :      518.60   532.69   541.63   547.88   572.59   592.10
eigval :      606.38   612.04   613.35   663.12   669.37   677.70
eigval :      708.91   720.61   772.17   781.25   793.75   804.22
eigval :      814.36   831.13   855.61   868.67   872.23   875.57
eigval :      910.73   912.68   912.86   923.17  1012.33  1058.79
eigval :     1084.00  1085.28  1107.29  1134.30  1146.40  1151.50
eigval :     1179.56  1216.54  1219.87  1231.78  1242.00  1250.33
eigval :     1267.05  1293.86  1300.19  1321.92  1343.69  1362.20
eigval :     1363.91  1386.30  1403.83  1408.35  1415.70  1458.22
eigval :     1470.03  1486.30  1522.76  1525.59  1529.32  1548.15
eigval :     1565.54  1588.53  3084.58  3091.93  3096.48  3100.81
eigval :     3101.02  3107.49  3107.84  3107.94  3112.29  3119.42

   temp. (K)  partition function   enthalpy   heat capacity  entropy
                                   cal/mol     cal/K/mol   cal/K/mol   J/K/mol
 298.15  VIB  0.491E+07            10120.261     66.775     61.239
         ROT  0.263E+08              888.752      2.981     36.934
         INT  0.129E+15            11009.014     69.755     98.173
         TR   0.887E+28             1481.254      4.968     44.102
         TOT                       12490.2675    74.7236   142.2746   595.2770

       T/K    H(0)-H(T)+PV         H(T)/Eh          T*S/Eh         G(T)/Eh
   ------------------------------------------------------------------------
    298.15    0.199045E-01    0.252520E+00    0.675993E-01    0.184921E+00
   ------------------------------------------------------------------------

         :::::::::::::::::::::::::::::::::::::::::::::::::::::
         ::                  THERMODYNAMIC                  ::
         :::::::::::::::::::::::::::::::::::::::::::::::::::::
         :: total free energy         -61.742489274131 Eh   ::
         ::.................................................::
         :: total energy              -61.927410104256 Eh   ::
         :: zero point energy           0.232615586365 Eh   ::
         :: G(RRHO) w/o ZPVE           -0.047694756241 Eh   ::
         :: G(RRHO) contrib.            0.184920830125 Eh   ::
         :::::::::::::::::::::::::::::::::::::::::::::::::::::

           -------------------------------------------------
          | TOTAL ENERGY              -61.927410104256 Eh   |
          | TOTAL ENTHALPY            -61.674890009635 Eh   |
          | TOTAL FREE ENERGY         -61.742489274131 Eh   |
          | GRADIENT NORM               0.000082376298 Eh/α |
           -------------------------------------------------

 * finished run on 2025/09/02 at 18:24:45.669
