   * xtb version 6.7.1 (edcfbbe) compiled by 'albert@albert-system' on 2024-07-22

   ID    Z sym.   atoms
    1   35 Br     1, 12
    2    6 C      2-5, 7-11, 13-21, 23, 24
    3    7 N      6, 22
    4    1 H      25-34

          program call               : xtb data2507/gas/phenazasiline/phenazasiline_gas_S0_crest.xyz --gfn 2 --ohess vtight --parallel 40 --molden --ceasefiles --namespace data2507/gas/phenazasiline/phenazasiline_gas_S0_finalOpt
          :  Hamiltonian                  GFN2-xTB          :
 * total energy  :   -61.9705242 Eh     change       -0.1756739E-08 Eh
 * total energy  :   -61.9705250 Eh     change       -0.8646375E-06 Eh
 * total energy  :   -61.9705257 Eh     change       -0.6993182E-06 Eh
 * total energy  :   -61.9705265 Eh     change       -0.7558522E-06 Eh
 * total energy  :   -61.9705272 Eh     change       -0.7374289E-06 Eh
 * total energy  :   -61.9705279 Eh     change       -0.6920607E-06 Eh
 * total energy  :   -61.9705286 Eh     change       -0.6702865E-06 Eh
 * total energy  :   -61.9705292 Eh     change       -0.6194742E-06 Eh
 * total energy  :   -61.9705297 Eh     change       -0.5377744E-06 Eh
 * total energy  :   -61.9705302 Eh     change       -0.4757291E-06 Eh
 * total energy  :   -61.9705306 Eh     change       -0.4051461E-06 Eh
 * total energy  :   -61.9705309 Eh     change       -0.3308453E-06 Eh
 * total energy  :   -61.9705312 Eh     change       -0.2321860E-06 Eh
 * total energy  :   -61.9705313 Eh     change       -0.1453413E-06 Eh
 * total energy  :   -61.9705314 Eh     change       -0.7362340E-07 Eh
   *** GEOMETRY OPTIMIZATION CONVERGED AFTER 15 ITERATIONS ***

 final structure:
================
34
 xtb: 6.7.1 (edcfbbe)
Br           6.61114438756140        0.43110704448891        0.01270643930931
C            4.72382196799958        0.67658041342372        0.01701714866263
C            4.22598297434913        1.99394722302427        0.02486438130385
C            2.87947843875200        2.21141171645796        0.02773232489340
C            1.98524423317863        1.11809015838323        0.02265662583915
N            0.66375787906968        1.33463243941248        0.02426961610174
C           -0.13650398390411        0.28534281951015        0.01884895311907
C           -1.56660010955192        0.49522036344276        0.01877246567777
C           -2.06600323156100        1.80127052460563        0.02421276254238
C           -3.41866347836047        2.04366581379406        0.02301706406031
C           -4.28296695175925        0.95511063749811        0.01617489394607
Br          -6.16388547601549        1.26373255907066        0.01347331001828
C           -3.81929154856387       -0.34197742001236        0.01108015041425
C           -2.44557730798054       -0.60652168444088        0.01241851859204
C           -1.91704690087807       -1.96378216018655        0.00731953018370
C           -2.74215857890534       -3.09416195949508        0.00235057010153
C           -2.21513265525711       -4.36763732144217       -0.00256850362250
C           -0.83855343556214       -4.56134447373883       -0.00266105653229
C           -0.00248821570427       -3.46909597481351        0.00227428087185
C           -0.52327441442375       -2.17215810729993        0.00729172082767
C            0.38375651237808       -1.04566091759036        0.01233381381586
N            1.68359900428839       -1.26990758426104        0.01058147204232
C            2.50488184327036       -0.21108192120984        0.01519678787351
C            3.90103926363417       -0.41271044046597        0.01239891647870
H            4.92129612838400        2.81944517198522        0.02839612583269
H            2.46924726506015        3.20883787345851        0.03357904194869
H           -1.35664725566831        2.61345126521434        0.02919675155981
H           -3.80720039514291        3.04995174646936        0.02706446788672
H           -4.53684135532350       -1.14570591382527        0.00583097921740
H           -3.81462383830376       -2.98589791959557        0.00240648543750
H           -2.87913296068482       -5.21927965742504       -0.00635026563443
H           -0.43153365132605       -5.56103840815660       -0.00653774972319
H            1.07015634626589       -3.58098765762243        0.00244047233651
H            4.28062136678521       -1.42212256025792        0.00648683641767

          :  Hamiltonian                  GFN2-xTB          :
         :: gradient norm              0.000012441984 Eh/a0 ::
         :: HOMO-LUMO gap              1.284336412358 eV    ::
         :: SCC energy               -62.966558485466 Eh    ::
         :: -> dispersion             -0.048203394469 Eh    ::
         :: repulsion energy           0.996027091599 Eh    ::

    * Orbital Energies and Occupations

         #    Occupation            Energy/Eh            Energy/eV
      -------------------------------------------------------------
         1        2.0000           -0.8449264             -22.9916
       ...           ...                  ...                  ...
        45        2.0000           -0.4527930             -12.3211
        46        2.0000           -0.4443347             -12.0910
        47        2.0000           -0.4442725             -12.0893
        48        2.0000           -0.4368642             -11.8877
        49        2.0000           -0.4362747             -11.8716
        50        2.0000           -0.4287200             -11.6661
        51        2.0000           -0.4195686             -11.4170
        52        2.0000           -0.4176881             -11.3659
        53        2.0000           -0.4173288             -11.3561
        54        2.0000           -0.4135853             -11.2542
        55        2.0000           -0.4101793             -11.1615
        56        2.0000           -0.4010853             -10.9141
        57        2.0000           -0.3681441             -10.0177 (HOMO)
        58                         -0.3209456              -8.7334 (LUMO)
        59                         -0.2865731              -7.7981
        60                         -0.2742953              -7.4640
        61                         -0.2477649              -6.7420
        62                         -0.2392688              -6.5108
        63                         -0.2240101              -6.0956
        64                         -0.2168197              -5.9000
        65                         -0.2137102              -5.8153
        66                         -0.2121331              -5.7724
        67                         -0.1751171              -4.7652
        68                         -0.1295866              -3.5262
       ...                                ...                  ...
       116                          0.6961006              18.9419
      -------------------------------------------------------------
                  HL-Gap            0.0471985 Eh            1.2843 eV

     #   Z          covCN         q      C6AA      α(0)
     1  35 Br       1.075    -0.151   189.220    22.179
     2   6 C        2.914     0.084    26.120     8.381
     3   6 C        2.988    -0.032    28.793     8.802
     4   6 C        2.919    -0.037    28.924     8.819
     5   6 C        2.967     0.081    26.189     8.394
     6   7 N        1.848    -0.234    26.979     7.698
     7   6 C        2.962     0.085    26.098     8.379
     8   6 C        2.987    -0.002    28.069     8.691
     9   6 C        2.928    -0.026    28.644     8.777
    10   6 C        2.987    -0.034    28.845     8.810
    11   6 C        2.916     0.085    26.104     8.378
    12  35 Br       1.072    -0.161   189.509    22.196
    13   6 C        3.000    -0.041    28.994     8.833
    14   6 C        2.978     0.010    27.782     8.646
    15   6 C        2.976     0.009    27.823     8.652
    16   6 C        2.922    -0.031    28.784     8.798
    17   6 C        2.918    -0.024    28.600     8.770
    18   6 C        2.917    -0.025    28.629     8.774
    19   6 C        2.924    -0.025    28.618     8.773
    20   6 C        2.988     0.001    27.998     8.680
    21   6 C        2.962     0.087    26.065     8.374
    22   7 N        1.849    -0.233    26.964     7.696
    23   6 C        2.971     0.083    26.140     8.386
    24   6 C        2.997    -0.046    29.136     8.854
    25   1 H        0.926     0.062     2.171     2.304
    26   1 H        0.926     0.065     2.145     2.290
    27   1 H        0.926     0.071     2.072     2.251
    28   1 H        0.926     0.058     2.217     2.328
    29   1 H        0.926     0.058     2.220     2.330
    30   1 H        0.926     0.042     2.424     2.435
    31   1 H        0.926     0.042     2.426     2.435
    32   1 H        0.926     0.043     2.410     2.428
    33   1 H        0.926     0.064     2.153     2.294
    34   1 H        0.926     0.072     2.064     2.247

molecular dipole:
                 x           y           z       tot (Debye)
 q only:       -0.271      -0.428       0.001
   full:       -0.298      -0.422       0.002       1.313

 projected vibrational frequencies (cm⁻¹)
eigval :       -0.00    -0.00    -0.00     0.00     0.00     0.00
eigval :       18.95    46.21    56.63    68.30    77.64   114.81
eigval :      121.14   148.69   150.16   199.34   218.89   247.41
eigval :      250.26   284.08   303.28   344.86   352.39   374.62
eigval :      384.61   408.28   414.49   424.23   443.11   477.78
eigval :      514.52   551.56   551.98   557.69   575.18   593.49
eigval :      604.03   620.26   663.60   681.39   699.72   707.95
eigval :      732.81   768.79   779.50   783.74   811.33   823.33
eigval :      838.70   859.89   868.75   876.91   877.72   914.82
eigval :      920.42   920.78   930.71   940.32  1027.14  1059.19
eigval :     1067.07  1086.54  1110.06  1143.57  1149.27  1152.27
eigval :     1180.47  1205.57  1227.50  1236.80  1253.90  1281.63
eigval :     1288.99  1299.11  1317.71  1333.46  1339.86  1363.42
eigval :     1394.70  1408.89  1421.03  1428.54  1456.97  1469.94
eigval :     1483.04  1503.89  1532.06  1547.78  1564.75  1571.93
eigval :     1586.35  1593.76  3083.36  3094.01  3096.12  3101.74
eigval :     3107.18  3108.11  3108.82  3112.45  3114.61  3119.60

   temp. (K)  partition function   enthalpy   heat capacity  entropy
                                   cal/mol     cal/K/mol   cal/K/mol   J/K/mol
 298.15  VIB  0.568E+07             9984.576     65.525     60.620
         ROT  0.262E+08              888.752      2.981     36.922
         INT  0.149E+15            10873.328     68.506     97.543
         TR   0.887E+28             1481.254      4.968     44.102
         TOT                       12354.5823    73.4744   141.6444   592.6400

       T/K    H(0)-H(T)+PV         H(T)/Eh          T*S/Eh         G(T)/Eh
   ------------------------------------------------------------------------
    298.15    0.196883E-01    0.254415E+00    0.672998E-01    0.187115E+00
   ------------------------------------------------------------------------

         :::::::::::::::::::::::::::::::::::::::::::::::::::::
         ::                  THERMODYNAMIC                  ::
         :::::::::::::::::::::::::::::::::::::::::::::::::::::
         :: total free energy         -61.783416089749 Eh   ::
         ::.................................................::
         :: total energy              -61.970531393930 Eh   ::
         :: zero point energy           0.234726829476 Eh   ::
         :: G(RRHO) w/o ZPVE           -0.047611525295 Eh   ::
         :: G(RRHO) contrib.            0.187115304181 Eh   ::
         :::::::::::::::::::::::::::::::::::::::::::::::::::::

           -------------------------------------------------
          | TOTAL ENERGY              -61.970531393930 Eh   |
          | TOTAL ENTHALPY            -61.716116284326 Eh   |
          | TOTAL FREE ENERGY         -61.783416089749 Eh   |
          | GRADIENT NORM               0.000012462177 Eh/α |
          | HOMO-LUMO GAP               1.284336056051 eV   |
           -------------------------------------------------

 * finished run on 2025/09/02 at 18:23:22.244
