   * xtb version 6.7.1 (edcfbbe) compiled by 'albert@albert-system' on 2024-07-22

   ID    Z sym.   atoms
    1   35 Br     1, 12
    2    6 C      2-5, 7-11, 13-21, 23, 24
    3    7 N      6, 22
    4    1 H      25-34

          program call               : xtb data2507/gas/phenazasiline/phenazasiline_gas_S0_finalOpt.xtbopt.xyz --gfn 2 --spinpol --tblite --uhf 2 --ohess vtight --parallel 40 --molden --ceasefiles --namespace data2507/gas/phenazasiline/phenazasiline_gas_T1_preOpt
 * total energy  :   -61.9217427 Eh     change        0.1939377E-07 Eh
 * total energy  :   -61.9258726 Eh     change       -0.4129926E-02 Eh
 * total energy  :   -61.9272105 Eh     change       -0.1337892E-02 Eh
 * total energy  :   -61.9273629 Eh     change       -0.1524171E-03 Eh
 * total energy  :   -61.9274087 Eh     change       -0.4579112E-04 Eh
 * total energy  :   -61.9274100 Eh     change       -0.1269089E-05 Eh
 * total energy  :   -61.9274102 Eh     change       -0.1935118E-06 Eh
 * total energy  :   -61.9274102 Eh     change       -0.2905571E-07 Eh
   *** GEOMETRY OPTIMIZATION CONVERGED AFTER 8 ITERATIONS ***

 final structure:
================
34
 xtb: 6.7.1 (edcfbbe)
Br           6.63747245553837        0.41664791673792        0.01496111652467
C            4.75695502242189        0.70326640383124        0.01799452904150
C            4.26679049121651        1.99889166342350        0.02494277228550
C            2.89925088050182        2.20675950583408        0.02686245722688
C            2.00476001425786        1.13980246081460        0.02191874493419
N            0.68685960993052        1.29125721257220        0.02298835712129
C           -0.16243411907270        0.27475767074443        0.01792810094315
C           -1.57399500004974        0.47648717049191        0.01804091101525
C           -2.07319846347152        1.79109916547816        0.02355416608343
C           -3.42012203479605        2.03622325126061        0.02304262191548
C           -4.29581782262447        0.94999469375488        0.01685202975396
Br          -6.17367919701766        1.27734973978489        0.01550050248180
C           -3.84118119553043       -0.34639607055385        0.01165773013033
C           -2.46681239282881       -0.62148622679733        0.01224990074089
C           -1.94174296838499       -1.96677429164649        0.00709380030747
C           -2.75902356562093       -3.10699436417128        0.00235072965366
C           -2.22411473528203       -4.37282777234329       -0.00248282898895
C           -0.84102550137497       -4.55533353069630       -0.00281011403361
C           -0.01244277434419       -3.46379526551955        0.00178482149888
C           -0.54152442731199       -2.16194427245382        0.00682865073572
C            0.35808774611681       -1.05260068239949        0.01170991195312
N            1.66967128337602       -1.22085411072483        0.01061726096411
C            2.53466750792616       -0.21332871401350        0.01498109948572
C            3.91247306989829       -0.39470863129195        0.01313355493596
H            4.94445079798995        2.83757450441345        0.02874413599949
H            2.49787532008677        3.20752795399612        0.03214210462907
H           -1.36410435662020        2.60439749865988        0.02809094109247
H           -3.80415037196104        3.04418796027967        0.02718731085518
H           -4.56070459806804       -1.14839400384625        0.00695135380345
H           -3.83182826319629       -3.00226797881697        0.00257127155835
H           -2.87858470033953       -5.23145595165593       -0.00601908486154
H           -0.42771872203248       -5.55245531900397       -0.00661439304763
H            1.06113369085570       -3.57436699715995        0.00173750511623
H            4.30357108320127       -1.39947923527790        0.00783650429273

 projected vibrational frequencies (cm⁻¹)
eigval :       -0.00    -0.00    -0.00     0.00     0.00     0.00
eigval :       21.49    51.01    61.90    66.68    82.02   119.59
eigval :      123.24   141.85   148.30   196.60   216.77   232.98
eigval :      249.59   274.11   301.86   329.65   347.95   370.73
eigval :      385.40   406.86   415.01   417.23   450.39   478.68
eigval :      518.60   532.70   541.62   547.88   572.63   592.09
eigval :      606.43   612.05   613.37   663.12   669.37   677.75
eigval :      708.95   720.61   772.17   781.29   793.79   804.27
eigval :      814.37   831.15   855.62   868.65   872.24   875.60
eigval :      910.73   912.64   912.87   923.18  1012.26  1058.83
eigval :     1084.03  1085.33  1107.30  1134.31  1146.39  1151.49
eigval :     1179.56  1216.57  1219.80  1231.74  1241.96  1250.33
eigval :     1266.97  1293.75  1300.29  1321.93  1343.57  1362.16
eigval :     1363.87  1386.39  1403.89  1408.35  1415.74  1458.18
eigval :     1470.04  1486.43  1522.78  1525.59  1529.24  1548.12
eigval :     1565.58  1588.54  3084.61  3091.94  3096.50  3100.85
eigval :     3100.98  3107.49  3107.75  3107.94  3112.24  3119.39

   temp. (K)  partition function   enthalpy   heat capacity  entropy
                                   cal/mol     cal/K/mol   cal/K/mol   J/K/mol
 298.15  VIB  0.491E+07            10120.126     66.774     61.238
         ROT  0.263E+08              888.752      2.981     36.934
         INT  0.129E+15            11008.878     69.755     98.172
         TR   0.887E+28             1481.254      4.968     44.102
         TOT                       12490.1324    74.7231   142.2738   595.2736

       T/K    H(0)-H(T)+PV         H(T)/Eh          T*S/Eh         G(T)/Eh
   ------------------------------------------------------------------------
    298.15    0.199043E-01    0.252520E+00    0.675989E-01    0.184922E+00
   ------------------------------------------------------------------------

         :::::::::::::::::::::::::::::::::::::::::::::::::::::
         ::                  THERMODYNAMIC                  ::
         :::::::::::::::::::::::::::::::::::::::::::::::::::::
         :: total free energy         -61.742488680901 Eh   ::
         ::.................................................::
         :: total energy              -61.927410193527 Eh   ::
         :: zero point energy           0.232616096227 Eh   ::
         :: G(RRHO) w/o ZPVE           -0.047694583601 Eh   ::
         :: G(RRHO) contrib.            0.184921512626 Eh   ::
         :::::::::::::::::::::::::::::::::::::::::::::::::::::

           -------------------------------------------------
          | TOTAL ENERGY              -61.927410193527 Eh   |
          | TOTAL ENTHALPY            -61.674889804344 Eh   |
          | TOTAL FREE ENERGY         -61.742488680901 Eh   |
          | GRADIENT NORM               0.000024542047 Eh/α |
           -------------------------------------------------

 * finished run on 2025/09/02 at 18:23:23.646
