   * xtb version 6.7.1 (edcfbbe) compiled by 'albert@albert-system' on 2024-07-22

   ID    Z sym.   atoms
    1    6 C      1-9, 11-15, 17-21, 23-39, 41-45, 47-63, 65-72
    2    7 N      10, 16, 22, 40, 46, 64
    3    1 H      73-126

          program call               : xtb data2507/gas/BmPyPhB/BmPyPhB_gas_S0_finalOpt.xtbopt.xyz --gfn 2 --spinpol --tblite --uhf 2 --ohess vtight --parallel 40 --molden --ceasefiles --namespace data2507/gas/BmPyPhB/BmPyPhB_gas_T1_preOpt
 * total energy  :  -186.4686710 Eh     change       -0.3128213E-07 Eh
 * total energy  :  -186.4701568 Eh     change       -0.1485753E-02 Eh
 * total energy  :  -186.4705941 Eh     change       -0.4373560E-03 Eh
 * total energy  :  -186.4706232 Eh     change       -0.2907618E-04 Eh
 * total energy  :  -186.4706699 Eh     change       -0.4671220E-04 Eh
 * total energy  :  -186.4706900 Eh     change       -0.2007697E-04 Eh
 * total energy  :  -186.4707300 Eh     change       -0.3996721E-04 Eh
 * total energy  :  -186.4707607 Eh     change       -0.3071761E-04 Eh
 * total energy  :  -186.4707739 Eh     change       -0.1318322E-04 Eh
 * total energy  :  -186.4708011 Eh     change       -0.2722007E-04 Eh
 * total energy  :  -186.4711798 Eh     change       -0.5773624E-06 Eh
 * total energy  :  -186.4711806 Eh     change       -0.8243463E-06 Eh
 * total energy  :  -186.4711812 Eh     change       -0.5862490E-06 Eh
 * total energy  :  -186.4711819 Eh     change       -0.6891889E-06 Eh
 * total energy  :  -186.4711824 Eh     change       -0.5665233E-06 Eh
 * total energy  :  -186.4711830 Eh     change       -0.5751835E-06 Eh
 * total energy  :  -186.4711836 Eh     change       -0.5453331E-06 Eh
 * total energy  :  -186.4711840 Eh     change       -0.4674855E-06 Eh
 * total energy  :  -186.4711841 Eh     change       -0.3787122E-07 Eh
   *** GEOMETRY OPTIMIZATION CONVERGED AFTER 152 ITERATIONS ***

 final structure:
================
126
 xtb: 6.7.1 (edcfbbe)
C           -1.21141745930200       10.78713816543919        0.25669156421539
C           -2.21304109756309        9.64917999323987       -0.01505091573671
C           -3.61416361623608       10.22727162117662       -0.28836742395714
C           -1.75923489303489        8.88256222340998       -1.24106064763760
C           -1.63990885016759        9.54121065467064       -2.45685017452015
C           -1.24475534529774        8.88711908247351       -3.60919676607496
C           -0.96601443210169        7.53145429884785       -3.55955224180164
C           -1.07471505516765        6.85194636115627       -2.36659984083850
C           -1.46092634066869        7.51407593789853       -1.19443653532114
N           -1.55065895037981        6.80658292805656       -0.01230394979387
C           -1.22802744085921        5.41857295813910       -0.01104624432435
C            0.10486417784623        5.01199636150870        0.05358821438510
C            0.41748011751885        3.67373944690079        0.05281249368953
C           -0.59609553235406        2.70364983615986       -0.00656013269021
C           -0.27322177535800        1.30436954396444       -0.00368865068995
N            0.99873997912684        0.92699012432940        0.00162093297679
C            1.27686060894210       -0.37040460362928        0.00429756439989
C            2.64698769707584       -0.80031800156670        0.01010739107773
C            2.96538984065158       -2.16664100886068        0.07059004973216
C            4.27671679176899       -2.57961285203066        0.07836067583622
C            5.30500869154089       -1.64005715394343        0.01949472815965
N            6.66397326749484       -2.06896355559945        0.02254137425623
C            7.37318647965375       -2.03934001855979        1.20664419698052
C            6.73971807394379       -1.60839168277858        2.37904874431077
C            7.42238706083006       -1.55794604846905        3.57408150254728
C            8.75233991276608       -1.94079893552264        3.62554337486263
C            9.37711779381825       -2.37987527501269        2.47282510727798
C            8.71448954463301       -2.44243893217951        1.25495696973886
C            9.44718617763370       -2.94799026418640        0.02844597227034
C            9.91534830025956       -4.39062637225515        0.29612283641059
C           10.65934833313893       -2.03537209696474       -0.23581727499854
C            8.56165011753731       -2.94290750705235       -1.20141018519820
C            9.07277197712825       -3.37648844303374       -2.41671304924122
C            8.31363175213510       -3.37853062063034       -3.57239082787405
C            7.00502388251508       -2.92749038297443       -3.52666260538740
C            6.47065184854392       -2.49228923379587       -2.33430383139288
C            7.23206669585791       -2.50209145138792       -1.15884137021253
C            5.00275596534189       -0.27961797852378       -0.04315588370681
C            3.69263790851460        0.13541728343743       -0.04477848562583
N            0.29541205969114       -1.31565633333364        0.00183020872014
C           -0.95535557434260       -0.88183225155730       -0.00369810532825
C           -2.02741958341006       -1.87420783380994       -0.00654216705522
C           -3.35890103233035       -1.47219670603187        0.10535657173223
C           -4.37100614089545       -2.40823938274300        0.10702886408229
C           -4.06570475396689       -3.76119471606772       -0.01107439745998
N           -5.11014113450399       -4.72818185721393       -0.01283829657694
C           -5.36998874999369       -5.43660387024502        1.14614691951853
C           -4.62250718213375       -5.17254639505684        2.29959479236828
C           -4.85097466164594       -5.86931877778452        3.46608759898351
C           -5.83545511528236       -6.84155830969996        3.50698855091012
C           -6.58754372005507       -7.09209715650456        2.37424736190870
C           -6.38048308499948       -6.40528134676590        1.18596056062023
C           -7.25235602779673       -6.71048854149253       -0.01602027654070
C           -7.07902951660991       -8.19421845159145       -0.39016912077206
C           -8.71865592502373       -6.42269958064822        0.35632042604137
C           -6.87842756748399       -5.86330909983900       -1.21624271752227
C           -7.57715687733615       -6.01495401159396       -2.40594482361119
C           -7.26714464910728       -5.28300880028545       -3.53716635125710
C           -6.22168072609661       -4.37680477534433       -3.49322297945006
C           -5.51138284877549       -4.20449841322413       -2.32523941623738
C           -5.83453487315715       -4.93085576204676       -1.17334204155941
C           -2.73999605059498       -4.16945750325527       -0.12716630362909
C           -1.72884182043385       -3.23241922205193       -0.12100088314193
N           -1.29136666998226        0.39877504061378       -0.00668948359016
C           -1.93361293703206        3.12671671956671       -0.06871939567002
C           -2.24406147521195        4.46604282058076       -0.07407379460205
C           -1.94432188646099        7.40372480053922        1.16857606382123
C           -1.99821739400944        6.64136317055979        2.34222954835770
C           -2.39672611179467        7.20499157874418        3.53394682790863
C           -2.74647141990059        8.54419177971351        3.58086951009941
C           -2.68079406954298        9.30340366306758        2.42710755429280
C           -2.28194893351084        8.76313877279007        1.21251385386541
H           -1.14218643156250       11.45499311681302       -0.59735547443903
H           -1.51326258926813       11.37077545338894        1.12185101291853
H           -0.22384984463274       10.37236972587344        0.44972669592364
H           -3.97162948545525       10.79731582708408        0.56456082561969
H           -3.60075313190546       10.88279066179741       -1.15459613145791
H           -4.31692610543884        9.41866101827274       -0.48037889496564
H           -1.86154658757705       10.59622743439759       -2.51357012941880
H           -1.16032942100475        9.43053348521715       -4.53787360781963
H           -0.66470269938695        7.00204238841722       -4.45084985254670
H           -0.86258230738096        5.79496679292581       -2.33101527483688
H            0.88158452321150        5.76173045237297        0.10235501220261
H            1.44308579258792        3.34387467673457        0.10262168128102
H            2.15891161327871       -2.88136629928309        0.11614587181282
H            4.52573068120002       -3.63006478338795        0.12766293241718
H            5.70240475980706       -1.31498472566337        2.34192405216459
H            6.91546290964410       -1.22069132314935        4.46557704335450
H            9.29815004262762       -1.90287374684728        4.55587768843097
H           10.41176181539208       -2.68242927955446        2.53091025262730
H           10.56760484521004       -4.43171048133035        1.16393950630690
H            9.05469376817142       -5.03019558281225        0.48271764033001
H           10.45861637599813       -4.78667313680683       -0.55723612518919
H           11.32837848631435       -2.02175508762643        0.62000589019703
H           11.22027529498523       -2.37693889145784       -1.10122886318146
H           10.32209639933222       -1.01795348043323       -0.42477874927317
H           10.09367579041282       -3.72329242616922       -2.47037661958339
H            8.74216037041547       -3.72448459361175       -4.50058636984770
H            6.39987457657760       -2.91328440470962       -4.42057575866470
H            5.45307176023769       -2.13599763887654       -2.30176904109010
H            5.81036206928209        0.43696822783408       -0.08863409256969
H            3.44313101728970        1.18353788064671       -0.09319574305605
H           -3.57581713968230       -0.41943551253533        0.19561009713215
H           -5.40426784259357       -2.10578238005799        0.19636682466044
H           -3.85934432762097       -4.41045038168402        2.27514456952051
H           -4.26052560224195       -5.65075596423858        4.34309813174959
H           -6.02145049931873       -7.39610724537800        4.41400437082246
H           -7.35869960846450       -7.84585378537488        2.42434629905800
H           -7.70369966156782       -8.45550987805710       -1.23973541183992
H           -6.04140456234112       -8.39044674696527       -0.65372850890003
H           -7.34933101599611       -8.83830776579571        0.44189164282163
H           -8.83395645585689       -5.37326436132636        0.62094947288954
H           -9.38058916270465       -6.64109063506152       -0.47698314526824
H           -9.02897999691973       -7.02614784936244        1.20473239851280
H           -8.38830415920206       -6.72532689475626       -2.45839575813144
H           -7.83283964901358       -5.42429987097624       -4.44536423364901
H           -5.95652181580980       -3.80389927357103       -4.36901863839986
H           -4.69255141146605       -3.50263837210473       -2.29835963103499
H           -2.51776388449439       -5.22273742325908       -0.21829881471299
H           -0.69568577039908       -3.52951436526604       -0.20946007627521
H           -2.70837063001795        2.37792568847423       -0.11756394242439
H           -3.27204126744823        4.79553342125220       -0.12472376844204
H           -1.72064599013839        5.59958149185932        2.30882564559829
H           -2.43298724158625        6.59866534337203        4.42643951193610
H           -3.06294847864093        8.99599010410301        4.50854870001444
H           -2.94854540204461       10.34778080931082        2.48174504809992

 projected vibrational frequencies (cm⁻¹)
eigval :       -0.00    -0.00    -0.00     0.00     0.00     0.00
eigval :        4.18     5.18     5.34     8.02    10.24    10.72
eigval :       19.83    21.25    21.36    27.40    27.48    37.07
eigval :       44.98    45.09    51.24    56.91    63.20    64.05
eigval :       84.38    95.56    96.31    97.38    98.48    99.01
eigval :      102.15   102.41   104.52   129.14   129.72   129.76
eigval :      132.36   139.01   143.82   166.96   174.48   190.57
eigval :      191.59   191.79   193.65   199.09   199.18   216.28
eigval :      218.17   218.32   218.51   231.59   232.94   233.58
eigval :      247.68   278.22   293.83   297.99   300.82   302.88
eigval :      317.71   324.44   328.57   328.67   329.52   334.58
eigval :      337.95   342.13   343.17   347.52   357.66   371.53
eigval :      374.30   374.97   376.74   377.59   378.32   391.13
eigval :      393.38   400.89   409.32   409.98   411.62   414.94
eigval :      416.07   418.88   451.00   451.13   451.32   463.90
eigval :      473.98   488.73   497.60   502.11   504.21   510.06
eigval :      510.44   511.95   512.22   540.00   545.23   545.27
eigval :      545.95   551.19   552.30   559.67   565.98   572.69
eigval :      578.04   585.62   588.24   590.74   595.82   597.19
eigval :      598.57   601.77   610.88   613.57   617.39   636.20
eigval :      657.41   659.94   664.17   670.55   680.79   684.71
eigval :      685.34   685.40   686.95   695.54   696.05   697.52
eigval :      697.58   708.96   723.81   724.10   744.36   775.39
eigval :      775.48   775.84   777.02   777.05   777.31   804.79
eigval :      805.69   813.25   814.96   817.42   825.91   825.99
eigval :      827.51   853.66   855.64   867.53   867.57   868.10
eigval :      868.12   868.16   868.66   868.67   902.30   903.44
eigval :      908.83   912.10   913.69   913.76   913.77   914.37
eigval :      914.50   914.57   914.60   915.29   915.31   915.84
eigval :      917.98   921.59   921.68   921.72   921.77   921.88
eigval :      921.88   921.91   923.64   924.55   938.02   938.26
eigval :      938.55   957.34   957.36   957.37   973.50  1005.34
eigval :     1006.06  1010.92  1013.75  1013.76  1013.99  1070.00
eigval :     1076.63  1076.64  1076.96  1085.22  1085.36  1086.06
eigval :     1109.20  1109.52  1111.16  1113.62  1115.68  1115.88
eigval :     1115.99  1117.37  1119.25  1132.30  1139.39  1139.39
eigval :     1140.16  1155.95  1155.95  1157.47  1158.73  1168.88
eigval :     1169.34  1171.22  1174.10  1176.11  1185.30  1185.35
eigval :     1185.64  1185.66  1185.83  1186.47  1186.84  1202.11
eigval :     1203.06  1211.95  1241.30  1242.55  1243.93  1245.45
eigval :     1245.46  1247.12  1249.66  1250.89  1252.26  1261.98
eigval :     1262.43  1264.83  1272.88  1294.91  1294.91  1294.95
eigval :     1309.68  1311.43  1312.71  1318.48  1320.64  1321.43
eigval :     1325.39  1325.65  1326.26  1335.16  1335.32  1335.52
eigval :     1335.61  1335.68  1338.08  1343.34  1355.70  1396.03
eigval :     1401.66  1401.67  1401.99  1408.25  1412.33  1417.16
eigval :     1419.61  1419.63  1419.96  1433.48  1433.58  1433.82
eigval :     1434.26  1435.06  1437.98  1458.71  1464.65  1464.71
eigval :     1468.60  1469.12  1482.57  1486.23  1487.47  1488.73
eigval :     1488.73  1488.99  1489.60  1489.61  1489.90  1493.66
eigval :     1499.31  1499.32  1499.57  1503.14  1503.15  1503.62
eigval :     1514.82  1515.81  1547.98  1563.87  1563.87  1567.58
eigval :     1567.87  1570.42  1578.29  1578.72  1581.78  1584.82
eigval :     1584.84  1587.19  1587.96  1595.72  1596.13  1597.93
eigval :     3027.53  3027.87  3027.89  3029.54  3029.84  3029.86
eigval :     3040.54  3040.75  3040.76  3043.04  3043.23  3043.24
eigval :     3049.48  3049.58  3049.59  3052.83  3052.90  3053.05
eigval :     3075.99  3076.10  3077.38  3077.58  3080.44  3080.51
eigval :     3080.51  3080.59  3080.66  3080.69  3082.43  3083.51
eigval :     3085.35  3085.53  3085.77  3085.79  3085.90  3085.94
eigval :     3096.06  3096.19  3096.33  3096.35  3096.37  3096.84
eigval :     3103.08  3103.41  3104.49  3104.82  3104.87  3105.47
eigval :     3105.68  3106.71  3106.99  3107.06  3107.11  3107.28

   temp. (K)  partition function   enthalpy   heat capacity  entropy
                                   cal/mol     cal/K/mol   cal/K/mol   J/K/mol
 298.15  VIB  0.109E+33            37562.812    230.845    238.585
         ROT  0.260E+09              888.752      2.981     41.489
         INT  0.283E+41            38451.565    233.826    280.074
         TR   0.275E+29             1481.254      4.968     46.348
         TOT                       39932.8185   238.7941   326.4221  1365.7502

       T/K    H(0)-H(T)+PV         H(T)/Eh          T*S/Eh         G(T)/Eh
   ------------------------------------------------------------------------
    298.15    0.636370E-01    0.105726E+01    0.155094E+00    0.902163E+00
   ------------------------------------------------------------------------

         :::::::::::::::::::::::::::::::::::::::::::::::::::::
         ::                  THERMODYNAMIC                  ::
         :::::::::::::::::::::::::::::::::::::::::::::::::::::
         :: total free energy        -185.569021282722 Eh   ::
         ::.................................................::
         :: total energy             -186.471183986202 Eh   ::
         :: zero point energy           0.993619394201 Eh   ::
         :: G(RRHO) w/o ZPVE           -0.091456690721 Eh   ::
         :: G(RRHO) contrib.            0.902162703480 Eh   ::
         :::::::::::::::::::::::::::::::::::::::::::::::::::::

           -------------------------------------------------
          | TOTAL ENERGY             -186.471183986202 Eh   |
          | TOTAL ENTHALPY           -185.413927594979 Eh   |
          | TOTAL FREE ENERGY        -185.569021282722 Eh   |
          | GRADIENT NORM               0.000186280246 Eh/α |
           -------------------------------------------------

 * finished run on 2025/07/17 at 02:24:04.349
