   * xtb version 6.7.1 (edcfbbe) compiled by 'albert@albert-system' on 2024-07-22

   ID    Z sym.   atoms
    1    6 C      1-9, 11-15, 17-21, 23-39, 41-45, 47-63, 65-72
    2    7 N      10, 16, 22, 40, 46, 64
    3    1 H      73-126

          program call               : xtb data2507/gas/BmPyPhB/BmPyPhB_gas_S0_crest.xyz --gfn 2 --ohess vtight --parallel 40 --molden --ceasefiles --namespace data2507/gas/BmPyPhB/BmPyPhB_gas_S0_finalOpt
          :  Hamiltonian                  GFN2-xTB          :
 * total energy  :  -186.5378831 Eh     change       -0.1323144E-08 Eh
 * total energy  :  -186.5378836 Eh     change       -0.4971625E-06 Eh
 * total energy  :  -186.5378842 Eh     change       -0.5442679E-06 Eh
 * total energy  :  -186.5378859 Eh     change       -0.1707223E-05 Eh
 * total energy  :  -186.5378875 Eh     change       -0.1661340E-05 Eh
 * total energy  :  -186.5378884 Eh     change       -0.8975589E-06 Eh
 * total energy  :  -186.5378888 Eh     change       -0.3739824E-06 Eh
 * total energy  :  -186.5378890 Eh     change       -0.2158777E-06 Eh
 * total energy  :  -186.5378892 Eh     change       -0.2119648E-06 Eh
 * total energy  :  -186.5378895 Eh     change       -0.2807825E-06 Eh
 * total energy  :  -186.5378904 Eh     change       -0.1442610E-06 Eh
 * total energy  :  -186.5378905 Eh     change       -0.1582680E-06 Eh
 * total energy  :  -186.5378907 Eh     change       -0.1768643E-06 Eh
 * total energy  :  -186.5378909 Eh     change       -0.1844241E-06 Eh
 * total energy  :  -186.5378911 Eh     change       -0.2155790E-06 Eh
 * total energy  :  -186.5378913 Eh     change       -0.2441053E-06 Eh
 * total energy  :  -186.5378916 Eh     change       -0.2680370E-06 Eh
 * total energy  :  -186.5378919 Eh     change       -0.2765594E-06 Eh
 * total energy  :  -186.5378919 Eh     change       -0.7221530E-08 Eh
   *** GEOMETRY OPTIMIZATION CONVERGED AFTER 22 ITERATIONS ***

 final structure:
================
126
 xtb: 6.7.1 (edcfbbe)
C           -1.23366313734545       10.75509841714193        0.44442382242166
C           -2.19143887427141        9.63283467242749        0.00428522063708
C           -3.54188965248173       10.22617085512795       -0.43705439013604
C           -1.57856913259016        8.90130669062640       -1.17434509647856
C           -1.30444398805429        9.60072889137066       -2.34191303300468
C           -0.77661514816910        8.98459196990168       -3.46096544672822
C           -0.52902531364864        7.62433361931652       -3.42848321469150
C           -0.79068891098053        6.90564706645346       -2.28127800338824
C           -1.29587038591791        7.53205681109682       -1.13791430482770
N           -1.54015775412461        6.78442369030013        0.00566177638767
C           -1.22584410625119        5.40252557302431        0.00604895426573
C            0.10323077492573        4.98874566077514        0.04547124624883
C            0.40860413534316        3.64388149399392        0.04515771578738
C           -0.61011897484085        2.69283148214813        0.00675003643229
C           -0.28653617017496        1.26742838514641        0.00603333035719
N            0.99690148221738        0.91869541844946        0.00589320681169
C            1.24530259227854       -0.38786731959551        0.00185353938426
C            2.64163875050607       -0.82027155938413        0.00097405461083
C            2.95578897081613       -2.17847246839217        0.01875789161626
C            4.27324579416337       -2.58633120094375        0.01804740548070
C            5.29595801912431       -1.64151873157198       -0.00084975610418
N            6.65018418191089       -2.06010056039801       -0.00239356686083
C            7.40626817088492       -1.90247132335678        1.15056428788852
C            6.81094959174688       -1.38347991684419        2.30429209640636
C            7.53910023594734       -1.20730878550209        3.46180134198858
C            8.87709689167724       -1.55576723285725        3.49387256034368
C            9.46058356975724       -2.09605102322768        2.36328050959353
C            8.75093571724564       -2.28548161444912        1.18514716914128
C            9.44374727112504       -2.91551347523692       -0.00778969538080
C            9.93633043716191       -4.31713147167174        0.39634159661809
C           10.63425552714061       -2.02838649416369       -0.41547259124238
C            8.51248825577318       -3.04902225189223       -1.19732715327806
C            8.99021113447449       -3.60245644344797       -2.37757478747174
C            8.20019254040217       -3.72279498621299       -3.50540059694510
C            6.89653959133848       -3.26261455652292       -3.46824879777890
C            6.39603645462423       -2.70963082566044       -2.30860669072158
C            7.18404933297949       -2.61342245717038       -1.15769295749619
C            4.98547497874584       -0.28422513966899       -0.01854700673759
C            3.66793559195013        0.12318573727420       -0.01748282816402
N            0.30167012887879       -1.32503846517037       -0.00154236470238
C           -0.95409066014810       -0.88688328675919        0.00165446923982
C           -2.02693827317347       -1.87955433040501        0.00105060353427
C           -3.35949917078878       -1.47238822951148        0.04926382171806
C           -4.37191352424981       -2.40873695648370        0.04909814630205
C           -4.06676455237269       -3.76656371984877       -0.00091846902310
N           -5.10760307951131       -4.72829681557280       -0.00338319441268
C           -5.32451506413233       -5.49209070007650        1.13504088080957
C           -4.54591357430802       -5.27368965881317        2.27563579684574
C           -4.73212839042090       -6.02358966612548        3.41757707731577
C           -5.70886776322463       -7.00222468450132        3.44763508202416
C           -6.50008383763054       -7.19955330000835        2.33160394138930
C           -6.33505693260163       -6.45839373940135        1.16927354571018
C           -7.26208218220579       -6.70210190920309       -0.00594773455368
C           -7.11487827285073       -8.16621855240863       -0.45893552257438
C           -8.70779623198583       -6.42590074906659        0.44588749571796
C           -6.93608117294728       -5.79944962804574       -1.18015656042063
C           -7.68670056565204       -5.89830842671961       -2.34393032594883
C           -7.41870588852190       -5.12684124075440       -3.45905989673994
C           -6.35826810601363       -4.23967055473085       -3.42658373839215
C           -5.59726399456204       -4.12026952184489       -2.28306639765063
C           -5.88536133530795       -4.87715868372728       -1.14330142070590
C           -2.73676174698082       -4.17637828257062       -0.04946636088941
C           -1.72456570364580       -3.23969080346800       -0.04768380356383
N           -1.29380427518165        0.39896486372951        0.00520029045020
C           -1.93980385785694        3.11024918744814       -0.03191819959679
C           -2.24558092393311        4.45498296987801       -0.03289593716805
C           -2.08482895133456        7.35281166477197        1.14873807211454
C           -2.26727418204438        6.57021950545420        2.29293595088638
C           -2.81509141632813        7.10485571561002        3.43970904153693
C           -3.18345265300757        8.43751999035913        3.47090280393680
C           -2.97609248366570        9.22072180771942        2.35103600234134
C           -2.42530482089980        8.70886507623938        1.18390180470810
H           -1.04473104171794       11.44669122968441       -0.37192069022201
H           -1.64909459704319       11.31671977680791        1.27648953023073
H           -0.28344238184964       10.32770458890873        0.75937575237722
H           -4.01549930454660       10.76354044702815        0.37984822710789
H           -3.41113998778544       10.91530995267004       -1.26672788718967
H           -4.20975851789923        9.42804145904291       -0.75599088210404
H           -1.50981371498313       10.65961849151719       -2.38610607710679
H           -0.57214421333774        9.55951228756034       -4.35120891403102
H           -0.13536060705216        7.11761712959091       -4.29698723712540
H           -0.60821187888207        5.84218271357076       -2.27152426000908
H            0.88627253956562        5.73211702897274        0.07504529187500
H            1.43272408446867        3.30808503736521        0.07999549996077
H            2.15279406799364       -2.89793758379596        0.03819749784435
H            4.52564249222362       -3.63645081131959        0.03108533622391
H            5.76403936917459       -1.12215635366642        2.29398019477794
H            7.05697624335410       -0.80105452432910        4.33847328336173
H            9.45934362143574       -1.41916631184416        4.39232277396897
H           10.50131951435538       -2.37957838671869        2.40670256327034
H           10.62536323752253       -4.26043272472377        1.23441129037363
H            9.09018292594573       -4.93607319561574        0.68912335379404
H           10.44640834226351       -4.80287938204945       -0.43087342853297
H           11.33166363475979       -1.91142816788772        0.40937073035924
H           11.17083497438053       -2.45994468047510       -1.25582648571963
H           10.27765073133504       -1.04193299506844       -0.70620393453340
H           10.01120877916495       -3.94989727542850       -2.42495676998767
H            8.60294525506973       -4.16126588510401       -4.40563070445611
H            6.26636671789820       -3.32888664217776       -4.34262215310108
H            5.38230108890529       -2.34012984425324       -2.29454093130905
H            5.78681002146077        0.43986011832398       -0.03215673980746
H            3.41146097479722        1.17040162183959       -0.03606891352909
H           -3.57997359114860       -0.41771390222788        0.09230632497123
H           -5.40688270305001       -2.10197465940449        0.08620146242995
H           -3.79139197366279       -4.50234532898112        2.26799613596954
H           -4.11487036919608       -5.83797136847466        4.28392902190131
H           -5.86211510215821       -7.59902024886034        4.33376093710265
H           -7.27077458848018       -7.95428268591773        2.37408300932249
H           -7.78278966164871       -8.38598532457426       -1.28714637463098
H           -6.09274215643086       -8.35149565911563       -0.78402867887126
H           -7.34522479194912       -8.84923985844434        0.35397285645536
H           -8.80243635687751       -5.39117220815327        0.77017232101855
H           -9.40788541690876       -6.59564352461460       -0.36743126347307
H           -8.98618180458420       -7.07121756397922        1.27439031122643
H           -8.50609239522473       -6.59974165446347       -2.38819517823013
H           -8.02495566099708       -5.22670681573503       -4.34638874549162
H           -6.11746065953263       -3.64073572855680       -4.29221314649372
H           -4.76282702930635       -3.43619163972077       -2.27355073923086
H           -2.51123910259710       -5.23199234207430       -0.08760755253076
H           -0.69014447366904       -3.54136580244584       -0.08979584298858
H           -2.71814359489650        2.36475661032422       -0.06683096638132
H           -3.27296161646049        4.78697310123859       -0.06284335503093
H           -1.96936881220703        5.53314540069175        2.28416976261893
H           -2.94913668901189        6.47825883218266        4.30886777138535
H           -3.61740640778538        8.86728005020801        4.36076923729751
H           -3.25154448919660       10.26363233807747        2.39423198856171

          :  Hamiltonian                  GFN2-xTB          :
         :: gradient norm              0.000051480352 Eh/a0 ::
         :: HOMO-LUMO gap              1.452061084826 eV    ::
         :: SCC energy              -189.884517113549 Eh    ::
         :: -> dispersion             -0.178209659391 Eh    ::
         :: repulsion energy           3.346625217581 Eh    ::

    * Orbital Energies and Occupations

         #    Occupation            Energy/Eh            Energy/eV
      -------------------------------------------------------------
         1        2.0000           -0.6879327             -18.7196
       ...           ...                  ...                  ...
       162        2.0000           -0.4018281             -10.9343
       163        2.0000           -0.4017245             -10.9315
       164        2.0000           -0.3962972             -10.7838
       165        2.0000           -0.3962815             -10.7834
       166        2.0000           -0.3961952             -10.7810
       167        2.0000           -0.3910443             -10.6409
       168        2.0000           -0.3910278             -10.6404
       169        2.0000           -0.3909426             -10.6381
       170        2.0000           -0.3754087             -10.2154
       171        2.0000           -0.3753996             -10.2151
       172        2.0000           -0.3455881              -9.4039
       173        2.0000           -0.3455151              -9.4019
       174        2.0000           -0.3453250              -9.3968 (HOMO)
       175                         -0.2919628              -7.9447 (LUMO)
       176                         -0.2919361              -7.9440
       177                         -0.2534247              -6.8960
       178                         -0.2380857              -6.4786
       179                         -0.2380269              -6.4770
       180                         -0.2380072              -6.4765
       181                         -0.2226651              -6.0590
       182                         -0.2226469              -6.0585
       183                         -0.2225303              -6.0554
       184                         -0.2177399              -5.9250
       185                         -0.2176721              -5.9232
       ...                                ...                  ...
       342                          0.6891155              18.7518
      -------------------------------------------------------------
                  HL-Gap            0.0533623 Eh            1.4521 eV

     #   Z          covCN         q      C6AA      α(0)
     1   6 C        3.761    -0.103    22.513     6.764
     2   6 C        3.909     0.021    20.157     6.381
     3   6 C        3.761    -0.103    22.513     6.764
     4   6 C        2.980    -0.014    28.348     8.734
     5   6 C        2.928    -0.036    28.899     8.816
     6   6 C        2.917    -0.044    29.102     8.846
     7   6 C        2.920    -0.033    28.818     8.803
     8   6 C        2.924    -0.059    29.463     8.901
     9   6 C        2.927     0.058    26.703     8.474
    10   7 N        2.754    -0.069    22.576     7.057
    11   6 C        2.928     0.075    26.314     8.412
    12   6 C        2.920    -0.037    28.929     8.820
    13   6 C        2.923    -0.024    28.599     8.770
    14   6 C        2.984    -0.002    28.079     8.692
    15   6 C        2.983     0.202    23.705     7.986
    16   7 N        1.844    -0.295    28.491     7.911
    17   6 C        2.983     0.202    23.705     7.986
    18   6 C        2.984    -0.002    28.078     8.692
    19   6 C        2.923    -0.024    28.598     8.770
    20   6 C        2.920    -0.037    28.927     8.820
    21   6 C        2.928     0.076    26.312     8.412
    22   7 N        2.754    -0.069    22.580     7.058
    23   6 C        2.928     0.058    26.702     8.474
    24   6 C        2.924    -0.059    29.463     8.901
    25   6 C        2.920    -0.033    28.818     8.803
    26   6 C        2.917    -0.044    29.103     8.846
    27   6 C        2.928    -0.036    28.899     8.816
    28   6 C        2.980    -0.014    28.349     8.734
    29   6 C        3.909     0.021    20.157     6.381
    30   6 C        3.761    -0.103    22.513     6.764
    31   6 C        3.761    -0.103    22.512     6.764
    32   6 C        2.980    -0.014    28.349     8.734
    33   6 C        2.928    -0.036    28.899     8.816
    34   6 C        2.917    -0.044    29.103     8.846
    35   6 C        2.920    -0.033    28.818     8.803
    36   6 C        2.924    -0.059    29.464     8.902
    37   6 C        2.928     0.058    26.702     8.474
    38   6 C        2.920    -0.037    28.927     8.820
    39   6 C        2.923    -0.024    28.598     8.770
    40   7 N        1.844    -0.295    28.491     7.911
    41   6 C        2.983     0.202    23.705     7.986
    42   6 C        2.984    -0.002    28.080     8.692
    43   6 C        2.923    -0.024    28.599     8.770
    44   6 C        2.920    -0.037    28.929     8.820
    45   6 C        2.928     0.075    26.314     8.413
    46   7 N        2.754    -0.069    22.575     7.057
    47   6 C        2.927     0.058    26.703     8.474
    48   6 C        2.924    -0.059    29.463     8.901
    49   6 C        2.920    -0.033    28.818     8.803
    50   6 C        2.917    -0.044    29.102     8.846
    51   6 C        2.928    -0.036    28.899     8.816
    52   6 C        2.980    -0.014    28.348     8.734
    53   6 C        3.909     0.021    20.157     6.381
    54   6 C        3.761    -0.103    22.513     6.764
    55   6 C        3.761    -0.103    22.512     6.764
    56   6 C        2.980    -0.014    28.348     8.734
    57   6 C        2.928    -0.036    28.899     8.816
    58   6 C        2.917    -0.044    29.102     8.846
    59   6 C        2.920    -0.033    28.818     8.803
    60   6 C        2.924    -0.059    29.462     8.901
    61   6 C        2.928     0.058    26.703     8.474
    62   6 C        2.920    -0.037    28.930     8.820
    63   6 C        2.923    -0.024    28.599     8.770
    64   7 N        1.844    -0.295    28.491     7.911
    65   6 C        2.923    -0.024    28.599     8.770
    66   6 C        2.920    -0.037    28.929     8.820
    67   6 C        2.928     0.058    26.703     8.474
    68   6 C        2.924    -0.059    29.463     8.901
    69   6 C        2.920    -0.033    28.818     8.803
    70   6 C        2.917    -0.044    29.102     8.846
    71   6 C        2.928    -0.036    28.899     8.816
    72   6 C        2.980    -0.014    28.348     8.734
    73   1 H        0.925     0.039     2.460     2.453
    74   1 H        0.925     0.039     2.460     2.453
    75   1 H        0.925     0.031     2.569     2.506
    76   1 H        0.925     0.039     2.460     2.453
    77   1 H        0.925     0.039     2.460     2.453
    78   1 H        0.925     0.031     2.569     2.506
    79   1 H        0.926     0.030     2.587     2.515
    80   1 H        0.926     0.026     2.641     2.541
    81   1 H        0.926     0.027     2.624     2.533
    82   1 H        0.926     0.024     2.667     2.554
    83   1 H        0.926     0.047     2.357     2.401
    84   1 H        0.926     0.061     2.186     2.312
    85   1 H        0.926     0.061     2.185     2.312
    86   1 H        0.926     0.047     2.357     2.401
    87   1 H        0.926     0.024     2.670     2.555
    88   1 H        0.926     0.027     2.625     2.533
    89   1 H        0.926     0.026     2.642     2.542
    90   1 H        0.926     0.030     2.587     2.515
    91   1 H        0.925     0.039     2.461     2.453
    92   1 H        0.925     0.031     2.569     2.506
    93   1 H        0.925     0.039     2.460     2.453
    94   1 H        0.925     0.039     2.460     2.453
    95   1 H        0.925     0.039     2.461     2.453
    96   1 H        0.925     0.031     2.569     2.507
    97   1 H        0.926     0.030     2.587     2.515
    98   1 H        0.926     0.026     2.642     2.542
    99   1 H        0.926     0.027     2.625     2.534
   100   1 H        0.926     0.024     2.669     2.555
   101   1 H        0.926     0.047     2.358     2.401
   102   1 H        0.926     0.061     2.185     2.311
   103   1 H        0.926     0.061     2.186     2.312
   104   1 H        0.926     0.047     2.358     2.401
   105   1 H        0.926     0.024     2.666     2.554
   106   1 H        0.926     0.027     2.624     2.533
   107   1 H        0.926     0.026     2.641     2.541
   108   1 H        0.926     0.030     2.587     2.515
   109   1 H        0.925     0.039     2.460     2.453
   110   1 H        0.925     0.031     2.569     2.506
   111   1 H        0.925     0.039     2.460     2.453
   112   1 H        0.925     0.031     2.569     2.506
   113   1 H        0.925     0.039     2.460     2.453
   114   1 H        0.925     0.039     2.460     2.453
   115   1 H        0.926     0.030     2.586     2.515
   116   1 H        0.926     0.026     2.641     2.541
   117   1 H        0.926     0.027     2.624     2.533
   118   1 H        0.926     0.024     2.667     2.554
   119   1 H        0.926     0.047     2.357     2.401
   120   1 H        0.926     0.061     2.186     2.312
   121   1 H        0.926     0.061     2.185     2.312
   122   1 H        0.926     0.047     2.358     2.401
   123   1 H        0.926     0.024     2.667     2.554
   124   1 H        0.926     0.027     2.624     2.533
   125   1 H        0.926     0.026     2.641     2.541
   126   1 H        0.926     0.030     2.587     2.515

molecular dipole:
                 x           y           z       tot (Debye)
 q only:       -0.014       0.003      -0.000
   full:       -0.014       0.004      -0.000       0.037

 projected vibrational frequencies (cm⁻¹)
eigval :       -0.00    -0.00     0.00     0.00     0.00     0.00
eigval :        3.30     4.84     4.93     8.29    10.64    10.68
eigval :       18.83    21.92    21.98    27.13    27.20    38.53
eigval :       40.73    41.37    51.16    59.34    62.45    62.56
eigval :       85.22    95.00    95.08    99.82    99.92   100.06
eigval :      100.54   103.54   103.59   128.22   128.26   128.35
eigval :      136.68   147.79   147.91   167.13   167.25   184.51
eigval :      189.81   189.86   190.42   201.42   201.59   218.24
eigval :      218.42   219.03   219.07   233.66   235.28   235.41
eigval :      289.98   290.13   294.81   299.06   299.27   304.48
eigval :      318.61   318.68   331.57   331.63   331.74   342.39
eigval :      342.46   343.09   355.30   355.47   364.67   368.99
eigval :      369.82   369.98   377.79   379.16   379.23   388.35
eigval :      405.61   405.83   410.33   410.37   412.18   420.25
eigval :      450.64   450.73   452.17   452.34   452.35   479.71
eigval :      479.72   489.88   493.89   494.13   504.59   515.04
eigval :      515.06   515.08   547.41   547.42   547.42   551.95
eigval :      552.00   553.57   554.61   576.00   576.04   580.35
eigval :      590.07   590.08   592.62   609.69   609.72   612.80
eigval :      623.76   623.77   638.39   639.91   640.04   667.72
eigval :      667.77   682.12   682.72   682.76   683.14   693.73
eigval :      693.82   693.85   694.62   717.48   717.58   732.86
eigval :      732.93   748.06   776.65   777.16   777.21   778.29
eigval :      778.31   778.35   779.92   820.89   821.00   821.45
eigval :      830.47   830.52   830.71   845.38   845.42   867.16
eigval :      867.33   867.36   867.44   867.56   867.61   870.89
eigval :      873.49   873.58   913.20   913.21   913.25   914.06
eigval :      914.09   914.12   915.49   915.57   915.59   916.09
eigval :      920.86   920.88   921.18   921.31   921.33   921.36
eigval :      922.86   923.00   924.65   928.70   929.74   929.78
eigval :      930.68   930.77   938.82   939.34   939.37   957.21
eigval :      957.24   957.27  1004.40  1014.45  1014.46  1014.47
eigval :     1017.28  1017.30  1046.85  1077.24  1077.26  1077.26
eigval :     1085.38  1085.46  1085.50  1088.15  1114.17  1114.22
eigval :     1114.35  1114.99  1119.91  1119.96  1120.26  1121.00
eigval :     1121.07  1141.20  1141.21  1141.22  1159.93  1160.02
eigval :     1160.39  1160.40  1160.42  1172.01  1172.07  1173.20
eigval :     1178.89  1186.92  1186.93  1187.63  1188.44  1188.49
eigval :     1188.54  1189.51  1189.63  1205.11  1208.32  1213.59
eigval :     1213.62  1245.43  1246.39  1246.45  1249.23  1249.97
eigval :     1249.99  1252.21  1254.53  1254.63  1269.20  1269.24
eigval :     1269.35  1295.24  1295.26  1295.27  1314.29  1314.31
eigval :     1314.40  1318.31  1319.29  1319.34  1327.20  1327.27
eigval :     1327.65  1334.72  1334.95  1335.01  1341.89  1342.05
eigval :     1342.46  1371.27  1371.33  1383.57  1402.97  1403.00
eigval :     1403.00  1405.67  1405.73  1405.79  1421.02  1421.04
eigval :     1421.11  1436.67  1436.69  1436.79  1443.31  1443.37
eigval :     1443.60  1477.76  1477.86  1480.02  1480.09  1480.38
eigval :     1485.78  1490.07  1490.10  1490.11  1491.15  1491.21
eigval :     1491.22  1497.06  1497.12  1498.77  1500.69  1500.75
eigval :     1500.76  1505.37  1505.39  1505.43  1509.16  1509.22
eigval :     1562.03  1566.63  1566.75  1575.83  1575.87  1575.88
eigval :     1588.13  1588.36  1588.41  1592.02  1592.32  1592.36
eigval :     1593.28  1593.29  1593.40  1602.94  1602.96  1603.06
eigval :     3026.52  3026.54  3026.61  3028.74  3028.75  3028.79
eigval :     3039.41  3039.43  3039.47  3042.18  3042.21  3042.25
eigval :     3048.48  3048.52  3048.53  3052.90  3052.93  3052.97
eigval :     3078.28  3078.35  3078.39  3078.41  3078.48  3078.53
eigval :     3083.11  3083.17  3083.22  3083.30  3083.39  3083.46
eigval :     3087.37  3087.52  3087.56  3088.35  3088.41  3088.78
eigval :     3094.18  3094.30  3094.36  3094.60  3094.72  3094.96
eigval :     3100.89  3101.08  3101.16  3101.72  3101.91  3102.00
eigval :     3110.22  3110.54  3110.59  3112.14  3112.22  3112.82

   temp. (K)  partition function   enthalpy   heat capacity  entropy
                                   cal/mol     cal/K/mol   cal/K/mol   J/K/mol
 298.15  VIB  0.103E+33            37060.801    226.938    236.215
         ROT  0.260E+09              888.752      2.981     41.483
         INT  0.269E+41            37949.553    229.919    277.698
         TR   0.275E+29             1481.254      4.968     46.348
         TOT                       39430.8072   234.8873   324.0459  1355.8079

       T/K    H(0)-H(T)+PV         H(T)/Eh          T*S/Eh         G(T)/Eh
   ------------------------------------------------------------------------
    298.15    0.628370E-01    0.106409E+01    0.153965E+00    0.910124E+00
   ------------------------------------------------------------------------

         :::::::::::::::::::::::::::::::::::::::::::::::::::::
         ::                  THERMODYNAMIC                  ::
         :::::::::::::::::::::::::::::::::::::::::::::::::::::
         :: total free energy        -185.627767628123 Eh   ::
         ::.................................................::
         :: total energy             -186.537891895967 Eh   ::
         :: zero point energy           1.001251923518 Eh   ::
         :: G(RRHO) w/o ZPVE           -0.091127655673 Eh   ::
         :: G(RRHO) contrib.            0.910124267844 Eh   ::
         :::::::::::::::::::::::::::::::::::::::::::::::::::::

           -------------------------------------------------
          | TOTAL ENERGY             -186.537891895967 Eh   |
          | TOTAL ENTHALPY           -185.473802981419 Eh   |
          | TOTAL FREE ENERGY        -185.627767628123 Eh   |
          | GRADIENT NORM               0.000051469898 Eh/α |
          | HOMO-LUMO GAP               1.452060767439 eV   |
           -------------------------------------------------

 * finished run on 2025/07/17 at 02:22:41.031
