   * xtb version 6.7.1 (edcfbbe) compiled by 'albert@albert-system' on 2024-07-22

   ID    Z sym.   atoms
    1    6 C      1-9, 11-15, 17-21, 23-39, 41-45, 47-63, 65-72
    2    7 N      10, 16, 22, 40, 46, 64
    3    1 H      73-126

          program call               : xtb data2507/gas/BmPyPhB/BmPyPhB_gas_T1_crest.xyz --gfn 2 --spinpol --tblite --uhf 2 --ohess vtight --parallel 40 --molden --ceasefiles --namespace data2507/gas/BmPyPhB/BmPyPhB_gas_T1_finalOpt
 * total energy  :  -186.4713204 Eh     change        0.2222558E-07 Eh
 * total energy  :  -186.4713342 Eh     change       -0.1388066E-04 Eh
 * total energy  :  -186.4713396 Eh     change       -0.5333138E-05 Eh
 * total energy  :  -186.4713402 Eh     change       -0.6212080E-06 Eh
 * total energy  :  -186.4713420 Eh     change       -0.1793352E-05 Eh
 * total energy  :  -186.4713435 Eh     change       -0.1509394E-05 Eh
 * total energy  :  -186.4713446 Eh     change       -0.1123010E-05 Eh
 * total energy  :  -186.4713460 Eh     change       -0.1401927E-05 Eh
 * total energy  :  -186.4713482 Eh     change       -0.2216083E-05 Eh
 * total energy  :  -186.4713503 Eh     change       -0.2081745E-05 Eh
 * total energy  :  -186.4714107 Eh     change        0.1320923E-06 Eh
 * total energy  :  -186.4714110 Eh     change       -0.2801282E-06 Eh
 * total energy  :  -186.4714113 Eh     change       -0.3206970E-06 Eh
 * total energy  :  -186.4714115 Eh     change       -0.2085657E-06 Eh
 * total energy  :  -186.4714120 Eh     change       -0.5507409E-06 Eh
 * total energy  :  -186.4714130 Eh     change       -0.9820356E-06 Eh
 * total energy  :  -186.4714130 Eh     change        0.1248637E-07 Eh
 * total energy  :  -186.4714133 Eh     change       -0.2826028E-06 Eh
 * total energy  :  -186.4714134 Eh     change       -0.6985115E-07 Eh
   *** GEOMETRY OPTIMIZATION CONVERGED AFTER 63 ITERATIONS ***

 final structure:
================
126
 xtb: 6.7.1 (edcfbbe)
C            7.11522415182271        8.18716817016088       -0.11009056849321
C            5.57629279983730        8.17273966607746       -0.05085594603933
C            5.03245752471099        9.61250135037714        0.00602016404678
C            5.04940250280237        7.50316865270487       -1.30434029003128
C            5.34663372474356        8.04242494737207       -2.54809432062527
C            4.89447713279483        7.46920682251345       -3.72244585997652
C            4.12271272361416        6.32061857461964       -3.66555698961566
C            3.81189046503470        5.76293857041382       -2.44527929054137
C            4.26544597899174        6.34271318605763       -1.25390617200084
N            3.93462113729390        5.76037960259089       -0.04726342909552
C            3.13513160351569        4.57994318618678       -0.04522218650623
C            3.74457376700998        3.32540672093209       -0.05468688231632
C            2.97532589863723        2.18645846984440       -0.04968913998109
C            1.57377190518272        2.27156309771230       -0.03599054731637
C            0.76691758086597        1.08338395584584       -0.02697281704502
N            1.35617150799535       -0.10665547252873       -0.02551489269018
C            0.59301349602435       -1.19200960969593       -0.00886269492052
C            1.21083937484704       -2.48931191526541       -0.00340719477851
C            0.42596087290694       -3.65305527229785        0.02239940160063
C            1.01648761417496       -4.89483617140565        0.03044085714482
C            2.40570709465008       -5.00674490905019        0.01172547892994
N            3.01763502852222       -6.29440353596658        0.02110638667457
C            3.35780314554835       -6.86451806879158        1.23110104622750
C            3.09236224971743       -6.17029907733418        2.41803554019481
C            3.42108785645982       -6.71077706125123        3.64137570345122
C            4.02142018564638       -7.95717557963934        3.70584848424444
C            4.28237385568005       -8.64654475890318        2.53590077036551
C            3.96236292060770       -8.12740221653983        1.28923703483843
C            4.26926194262333       -8.93030257015370        0.04090251843640
C            3.50704427885716      -10.26654952859601        0.11466722314292
C            5.78675112322218       -9.18598358081264       -0.02086568233218
C            3.84889990926926       -8.20010262238328       -1.21897040813767
C            4.05654764537488       -8.79121025413310       -2.45733695532536
C            3.69482888256932       -8.16727498097129       -3.63715707804430
C            3.10856311139028       -6.91336733147302       -3.59144931057304
C            2.88989336611098       -6.30237068229766       -2.37670490175004
C            3.25224427192668       -6.93273261020790       -1.17982088583629
C            3.19751712582546       -3.85889607659810       -0.01541284334177
C            2.60889412588326       -2.61686739576389       -0.02243418232690
N           -0.76569712936094       -1.11548312453022        0.00499101584460
C           -1.29949137897432        0.09747948800650       -0.00285726022611
C           -2.75485438148113        0.21015686903381        0.00725035399572
C           -3.36339461499242        1.46613702747150       -0.01629774805334
C           -4.73749163543209        1.57457503914418       -0.00666976074558
C           -5.52359241329589        0.42647928996937        0.02846679780558
N           -6.94371655295097        0.53745238668221        0.04073415069161
C           -7.59202858951395        0.69812611497778        1.25061972775360
C           -6.84432897236494        0.74178148020873        2.43291779632803
C           -7.46136914042582        0.90417911667296        3.65405462773116
C           -8.83894713347790        1.02404460652791        3.71978557789101
C           -9.58048963777558        0.97512768636169        2.55375343198853
C           -8.98648836791294        0.81277560744615        1.30990802374165
C           -9.85264322098580        0.75924815708660        0.06675869197368
C          -10.82128270759484       -0.43123630338207        0.19322998193259
C          -10.64085464420316        2.07758063197297       -0.04342054905232
C           -9.02648568813849        0.58172821533345       -1.19198610829532
C           -9.65995377153336        0.51639167752395       -2.42518829700437
C           -8.95485791442222        0.36158735593750       -3.60450206776453
C           -7.57405237601548        0.27151660492140       -3.56339987087484
C           -6.91829337633798        0.33227058768492       -2.35320228707851
C           -7.62997565079761        0.48301677045283       -1.15756888593178
C           -4.92483792206993       -0.82973102166086        0.05230028473748
C           -3.55046268321418       -0.93616964706934        0.04085368777498
N           -0.58768128777527        1.21413389662720       -0.01809156571137
C            0.97365922142950        3.54103294345389       -0.02842963614291
C            1.74480376919183        4.67932059722279       -0.03238186735780
C            4.35451106224176        6.28573458625763        1.15789460422984
C            3.98179962817117        5.65460341588891        2.35121530447400
C            4.38597949426194        6.15247272697463        3.57001244887105
C            5.17087061036137        7.29228931385582        3.62347358105583
C            5.53824857617247        7.91959404284958        2.44719397340909
C            5.14565335697792        7.44144115661445        1.20488955137652
H            7.46420915309618        8.71728130822059       -0.99182381701852
H            7.53233884795256        8.67345819146743        0.76729334759646
H            7.49335155515771        7.16737198943647       -0.15017222479108
H            5.40156088678945       10.13188823819074        0.88591475051068
H            5.33333347363997       10.17563597933596       -0.87293533823852
H            3.94501350408401        9.59571847724249        0.04783151272080
H            5.94897246577734        8.93619326099551       -2.60965242942635
H            5.14403750928678        7.91523852354533       -4.67305178782349
H            3.76270949526475        5.85819437720362       -4.57222126687616
H            3.21199921387954        4.86744750351171       -2.40154937981174
H            4.82342003928711        3.26482948021177       -0.06498964986065
H            3.43141498416234        1.20919917125358       -0.05622567564514
H           -0.64751341363469       -3.54963986929683        0.03685018895145
H            0.41616085379720       -5.79314399655443        0.05112432726833
H            2.62380498032503       -5.19989447007140        2.36860285630193
H            3.20838356860681       -6.15882183570942        4.54447453385717
H            4.28388698424101       -8.39041002425743        4.65889742037082
H            4.74919102249880       -9.61760754397415        2.60331968471445
H            3.79340285194087      -10.82776803119344        0.99969700769239
H            2.43574343519070      -10.07945511802654        0.15813072862884
H            3.71317722577408      -10.87909091504749       -0.75857235089585
H            6.12569170609173       -9.72229788495564        0.86101847788926
H            6.04547253165257       -9.77360675198927       -0.89722129612279
H            6.31973558899709       -8.23846315687753       -0.07286662082548
H            4.51403002590587       -9.76760536497186       -2.51014951884645
H            3.87057022407957       -8.65592075255223       -4.58332026087413
H            2.82159225319052       -6.41029799271931       -4.50252271445622
H            2.43442761599126       -5.32511652789904       -2.34178226201957
H            4.27307609142119       -3.96201446968531       -0.03005910851456
H            3.20711842087300       -1.71974800531166       -0.04301479466261
H           -2.73692830575657        2.34377138966917       -0.04317649094011
H           -5.21677342274489        2.54256057485782       -0.02471570428405
H           -5.77076933376426        0.64564064155583        2.38529376104814
H           -6.86555677015837        0.93619711364011        4.55378627355335
H           -9.33336210225895        1.15241976606927        4.67051539158337
H          -10.65399880974029        1.06627334837634        2.62185769166184
H          -11.47112912498873       -0.49630444412521       -0.67496958275852
H          -10.25835245298228       -1.35948007675293        0.27137942656187
H          -11.44378447929654       -0.33227565599614        1.07810011177041
H           -9.95097752073173        2.91460063631857       -0.13329137253011
H          -11.28759141736562        2.07110789460542       -0.91629808982490
H          -11.25839218109376        2.23508260126423        0.83638845739615
H          -10.73597252396890        0.58826489346343       -2.47404471341257
H           -9.47958958559883        0.31391645009456       -4.54641514983542
H           -7.00581064412612        0.15427126332133       -4.47382581752957
H           -5.84190235157772        0.26423462496939       -2.32457859978221
H           -5.54831033167141       -1.71155806013789        0.07877733586297
H           -3.06768944647563       -1.90055389267813        0.05896650989064
H           -0.10314458497809        3.60104737472015       -0.01767650009140
H            1.28699235922798        5.65816997965378       -0.02546097879609
H            3.36966403595724        4.76731716682244        2.31029869044118
H            4.08799204319297        5.65056906370290        4.47818178112850
H            5.49405951028338        7.69110047772390        4.57288202108212
H            6.14892545892758        8.80787084858178        2.50603096406431

 projected vibrational frequencies (cm⁻¹)
eigval :       -0.00    -0.00     0.00     0.00     0.00     0.00
eigval :        1.86     3.26     3.37     7.84    10.29    10.69
eigval :       20.33    20.36    20.64    27.40    27.52    30.50
eigval :       40.72    41.32    51.42    55.81    63.10    63.84
eigval :       84.48    95.35    95.76    96.32    97.94    99.12
eigval :      101.98   102.04   103.28   129.30   129.74   129.77
eigval :      132.46   139.34   142.90   168.11   173.43   190.43
eigval :      191.70   191.87   193.39   197.20   198.34   215.00
eigval :      218.47   218.48   218.75   230.62   231.48   232.81
eigval :      237.44   273.57   293.64   297.67   300.38   302.61
eigval :      317.96   325.66   328.34   328.39   329.09   329.44
eigval :      336.05   342.14   342.71   345.15   357.31   371.25
eigval :      374.62   375.32   375.39   376.73   378.28   391.27
eigval :      391.95   400.27   409.18   409.80   411.46   413.57
eigval :      414.74   419.15   450.40   450.85   450.88   464.18
eigval :      473.58   489.00   491.27   498.70   503.50   504.08
eigval :      510.42   510.45   511.86   539.09   545.17   545.20
eigval :      545.81   549.86   551.32   553.06   566.25   572.20
eigval :      577.82   582.59   585.79   588.16   590.73   596.47
eigval :      597.12   599.40   610.85   612.63   614.33   624.48
eigval :      640.38   659.68   660.71   670.64   680.21   684.24
eigval :      685.21   685.23   687.72   695.98   696.01   697.38
eigval :      697.40   709.01   723.36   724.04   744.22   775.07
eigval :      775.18   775.29   776.70   776.76   776.78   804.11
eigval :      805.09   813.71   813.92   816.28   825.74   825.83
eigval :      827.11   852.75   854.84   865.29   866.70   867.59
eigval :      867.63   867.69   868.20   868.25   901.32   902.56
eigval :      908.62   910.89   913.31   913.50   913.56   913.58
eigval :      914.09   914.32   914.35   915.02   915.31   915.50
eigval :      917.58   921.19   921.31   921.44   921.46   921.58
eigval :      921.60   921.74   922.67   923.94   937.95   938.19
eigval :      938.50   957.19   957.23   957.24   974.06  1006.04
eigval :     1006.11  1010.68  1013.57  1013.57  1013.71  1069.50
eigval :     1076.57  1076.57  1076.86  1085.15  1085.25  1085.97
eigval :     1108.62  1108.95  1110.22  1112.65  1115.40  1115.46
eigval :     1115.56  1116.65  1118.66  1134.43  1139.03  1139.06
eigval :     1139.74  1155.95  1155.97  1157.38  1157.48  1168.25
eigval :     1168.69  1170.41  1173.91  1175.54  1184.67  1184.74
eigval :     1185.25  1185.29  1185.46  1185.74  1186.16  1201.92
eigval :     1202.58  1211.42  1240.98  1241.95  1243.54  1245.01
eigval :     1245.08  1246.70  1248.55  1250.26  1251.54  1261.62
eigval :     1262.07  1264.26  1272.94  1294.59  1294.60  1294.61
eigval :     1310.10  1311.32  1311.93  1319.25  1322.28  1323.11
eigval :     1323.91  1324.00  1324.99  1335.13  1335.33  1335.57
eigval :     1335.98  1336.14  1338.90  1340.85  1355.19  1394.95
eigval :     1401.27  1401.29  1401.53  1407.90  1411.87  1416.58
eigval :     1419.13  1419.16  1419.38  1433.47  1433.47  1433.65
eigval :     1434.09  1434.90  1437.76  1458.82  1464.54  1464.65
eigval :     1467.94  1468.69  1481.84  1486.08  1487.97  1488.23
eigval :     1488.24  1488.46  1489.20  1489.22  1489.51  1493.64
eigval :     1498.87  1498.90  1499.15  1502.67  1502.68  1503.07
eigval :     1515.15  1516.36  1545.66  1563.84  1563.92  1567.40
eigval :     1567.45  1570.24  1578.13  1578.35  1581.65  1584.67
eigval :     1584.77  1586.78  1588.03  1595.42  1595.74  1597.66
eigval :     3027.38  3027.84  3027.90  3029.37  3029.80  3029.88
eigval :     3040.39  3040.60  3040.61  3042.89  3043.07  3043.09
eigval :     3049.08  3049.25  3049.25  3052.49  3052.60  3052.73
eigval :     3076.30  3076.42  3077.73  3077.97  3080.22  3080.23
eigval :     3080.27  3080.37  3080.39  3080.43  3082.27  3083.35
eigval :     3085.16  3085.32  3085.44  3085.47  3085.56  3085.59
eigval :     3095.66  3095.82  3095.93  3095.97  3096.00  3096.44
eigval :     3103.35  3103.59  3103.80  3103.92  3104.56  3105.54
eigval :     3105.70  3105.85  3105.94  3105.95  3106.17  3106.98

   temp. (K)  partition function   enthalpy   heat capacity  entropy
                                   cal/mol     cal/K/mol   cal/K/mol   J/K/mol
 298.15  VIB  0.106E+34            37666.560    230.846    240.915
         ROT  0.521E+09              888.752      2.981     42.868
         INT  0.551E+42            38555.312    233.827    283.783
         TR   0.275E+29             1481.254      4.968     46.348
         TOT                       40036.5661   238.7949   330.1306  1381.2664

       T/K    H(0)-H(T)+PV         H(T)/Eh          T*S/Eh         G(T)/Eh
   ------------------------------------------------------------------------
    298.15    0.638023E-01    0.105690E+01    0.156856E+00    0.900040E+00
   ------------------------------------------------------------------------

         :::::::::::::::::::::::::::::::::::::::::::::::::::::
         ::                  THERMODYNAMIC                  ::
         :::::::::::::::::::::::::::::::::::::::::::::::::::::
         :: total free energy        -185.571372890095 Eh   ::
         ::.................................................::
         :: total energy             -186.471413293037 Eh   ::
         :: zero point energy           0.993093772348 Eh   ::
         :: G(RRHO) w/o ZPVE           -0.093053369406 Eh   ::
         :: G(RRHO) contrib.            0.900040402941 Eh   ::
         :::::::::::::::::::::::::::::::::::::::::::::::::::::

           -------------------------------------------------
          | TOTAL ENERGY             -186.471413293037 Eh   |
          | TOTAL ENTHALPY           -185.414517191412 Eh   |
          | TOTAL FREE ENERGY        -185.571372890095 Eh   |
          | GRADIENT NORM               0.000199196468 Eh/α |
           -------------------------------------------------

 * finished run on 2025/07/17 at 02:44:24.306
