   * xtb version 6.7.1 (edcfbbe) compiled by 'albert@albert-system' on 2024-07-22

   ID    Z sym.   atoms
    1    6 C      1-9, 11-15, 17-21, 23-39, 41-45, 47-63, 65-72
    2    7 N      10, 16, 22, 40, 46, 64
    3    1 H      73-126

          program call               : xtb data2507/gas/BmPyPhB/BmPyPhB.xyz --gfn 2 --ohess vtight --parallel 40 --molden --ceasefiles --namespace data2507/gas/BmPyPhB/BmPyPhB_gas_S0_preOpt
          :  Hamiltonian                  GFN2-xTB          :
 * total energy  :  -186.4942932 Eh     change       -0.2315574E-08 Eh
 * total energy  :  -186.5197887 Eh     change       -0.2549551E-01 Eh
 * total energy  :  -186.5295602 Eh     change       -0.9771461E-02 Eh
 * total energy  :  -186.5321160 Eh     change       -0.2555808E-02 Eh
 * total energy  :  -186.5339143 Eh     change       -0.1798264E-02 Eh
 * total energy  :  -186.5351014 Eh     change       -0.1187086E-02 Eh
 * total energy  :  -186.5359275 Eh     change       -0.8261547E-03 Eh
 * total energy  :  -186.5364903 Eh     change       -0.5628289E-03 Eh
 * total energy  :  -186.5368439 Eh     change       -0.3535324E-03 Eh
 * total energy  :  -186.5370430 Eh     change       -0.1991128E-03 Eh
 * total energy  :  -186.5378284 Eh     change       -0.1627388E-05 Eh
 * total energy  :  -186.5378298 Eh     change       -0.1341600E-05 Eh
 * total energy  :  -186.5378304 Eh     change       -0.6535795E-06 Eh
 * total energy  :  -186.5378304 Eh     change       -0.8917681E-08 Eh
 * total energy  :  -186.5378310 Eh     change       -0.5499372E-06 Eh
 * total energy  :  -186.5378314 Eh     change       -0.3903629E-06 Eh
 * total energy  :  -186.5378320 Eh     change       -0.6025258E-06 Eh
 * total energy  :  -186.5378321 Eh     change       -0.1829101E-06 Eh
 * total energy  :  -186.5378322 Eh     change       -0.9407785E-07 Eh
   *** GEOMETRY OPTIMIZATION CONVERGED AFTER 48 ITERATIONS ***

 final structure:
================
126
 xtb: 6.7.1 (edcfbbe)
C          -10.69684584787850        1.70111383297768        0.33110121948815
C           -9.87421669846663        0.44048157386630        0.00767849698665
C          -10.80977435505728       -0.73923427329232       -0.31402407028676
C           -9.01257036738027        0.71861513739936       -1.20902535923139
C           -9.61967374049171        1.05402964281867       -2.41167266681083
C           -8.89069992915363        1.29020892622696       -3.56210893698459
C           -7.51316729441553        1.17346095676114       -3.52409688780983
C           -6.88417679968552        0.84278423204175       -2.34252646810125
C           -7.61725697408790        0.63099479330448       -1.17098370621757
N           -6.95584517001119        0.30743270545554        0.00515667381774
C           -5.53954344002252        0.24465599051088        0.00417981660755
C           -4.78953020310307        1.41663669702785       -0.04785638880616
C           -3.41171833264575        1.35559708329844       -0.04837212359365
C           -2.76401751953520        0.12204842624782        0.00188100219543
C           -1.30361597845487        0.05763313257515        0.00060752670304
N           -0.62850293209745        1.20352013580707        0.00152879717028
C            0.69723423442373        1.09823037387532        0.00026500044622
C            1.48359247323546        2.33052245806305        0.00139966014770
C            2.87529361370987        2.27414226629560       -0.05926535615767
C            3.61771455253563        3.43639559314428       -0.05870989237788
C            2.97886064430305        4.67199284324911        0.00396897084130
N            3.74227431689869        5.86657651615252        0.00516325112322
C            3.86777021190622        6.58587995156399        1.18512059702228
C            3.27787015120757        6.10312104877119        2.35717844011902
C            3.37891753192105        6.80013582107003        3.54252832869978
C            4.08073424355646        7.99110701502492        3.58382056979620
C            4.68821113953050        8.45632564861695        2.43263409786023
C            4.60348826608904        7.77461484055451        1.22618198630259
C            5.32182117330986        8.32411486879583        0.00870811920229
C            6.82731338503059        8.40135196110393        0.32182333197719
C            4.76871780471954        9.72696749808375       -0.30204124749773
C            5.12127792012181        7.44538813483143       -1.21103592197442
C            5.70742443297706        7.80822835668986       -2.41611515057775
C            5.53757269324616        7.06497291009098       -3.56911769063798
C            4.74549867548112        5.93190221770180       -3.53112860023933
C            4.15235907199038        5.54783350942403       -2.34717061663737
C            4.34556739288562        6.28226637946995       -1.17326374171692
C            1.58911384969062        4.73175456872700        0.06524178424212
C            0.84694202758561        3.56925775809105        0.06323639188008
N            1.35195933531019       -0.05937631060096       -0.00193762279954
C            0.59797107804675       -1.15489137580597       -0.00277470815884
C            1.27277817595746       -2.45162173370081       -0.00520937714449
C            0.52919944756375       -3.62944903498383       -0.06386424091339
C            1.16595632161447       -4.85284282469771       -0.06682822147710
C            2.55574875569128       -4.91585542020543       -0.00976390373937
N            3.21040900131055       -6.17330967979392       -0.01154193313611
C            3.77765332938569       -6.63992769860560        1.16575294663596
C            3.65737018849673       -5.88829402041067        2.33850701984548
C            4.21752749343965       -6.32253672570866        3.52119114738488
C            4.90235731359245       -7.52346418820380        3.55913686348920
C            4.99862124698422       -8.28172882429537        2.40742127954390
C            4.44354904976870       -7.86923292248829        1.20360027921601
C            4.55748129631064       -8.76560075936137       -0.01447876769959
C            6.04818257272522       -8.98326174374598       -0.33216442626586
C            3.87736023679810      -10.11020117242012        0.30173884982039
C            3.88913917335493       -8.15458111542668       -1.23108422809555
C            3.90707066489300       -8.84341436833148       -2.43633353839240
C            3.34146765147562       -8.32636048148439       -3.58673921422039
C            2.75238925309183       -7.07576002317839       -3.54594582973695
C            2.71939493551155       -6.37031298919399       -2.36174006432514
C            3.26581932212988       -6.90324706195551       -1.19034178513401
C            3.30127177144193       -3.74134898895857        0.04944850851053
C            2.66421843391171       -2.51814378262221        0.05105063379820
N           -0.73192402240317       -1.14316148526439       -0.00148808242507
C           -3.51788177759230       -1.04957928756711        0.05330798441328
C           -4.89573354783721       -0.98889957382377        0.05508259640971
C           -7.64191097762030        0.04484429411066        1.18236551020528
C           -6.92918083920154       -0.23328118727820        2.35258916199525
C           -7.58366345349508       -0.50584605706059        3.53515150949171
C           -8.96603597970000       -0.49675218731641        3.57550898366643
C           -9.67242957859403       -0.19479498177028        2.42637179406674
C           -9.03935733170364        0.08440972380367        1.22275240604640
H          -11.31773402048127        1.98673860718804       -0.51349942631267
H          -11.34393403070518        1.53394942388466        1.18765986323255
H          -10.02906704498240        2.52908706895435        0.56199703407350
H          -11.45270085146819       -0.96666207827992        0.53175733322261
H          -11.44041278147251       -0.51330885095425       -1.16936304845734
H          -10.22131283165209       -1.62503461226419       -0.54607461976034
H          -10.69532131824001        1.13258074585331       -2.45876976613961
H           -9.39502280930456        1.55216080816184       -4.47967392696263
H           -6.92422166963567        1.33553659276643       -4.41455633275401
H           -5.81008674315320        0.74014019238341       -2.32649492164891
H           -5.29968323137620        2.36778674863538       -0.08865691100893
H           -2.81697483414258        2.25435356893405       -0.08485462507810
H            3.35541152258346        1.30962004246228       -0.10392063771786
H            4.69616017250433        3.40224602590155       -0.10769040845781
H            2.74024872253763        5.16766829112768        2.33852881512886
H            2.91129469736092        6.40792913011759        4.43334178874680
H            4.16426899996825        8.54825988714772        4.50441236470890
H            5.24673779649189        9.37881972994834        2.48221465214722
H            7.01358614658030        9.04064612509801        1.18029023911876
H            7.20993222648190        7.40708659771692        0.54503167058542
H            7.37995704171939        8.79926217793961       -0.52475122656364
H            5.27459389674325       10.16336084299127       -1.15877922908562
H            3.70561315696140        9.66365896823070       -0.52693385406920
H            4.90062087592095       10.39294373282810        0.54619182491290
H            6.31485253247634        8.69942310851643       -2.46309934054802
H            6.01063721164039        7.37434822215022       -4.48856351474170
H            4.58366819324707        5.34566695266624       -4.42341916035563
H            3.52464130167256        4.67023748082725       -2.33103433798248
H            1.10439807621120        5.69569343453960        0.11504405276720
H           -0.23011433101924        3.59909794033694        0.10670641650611
H           -0.54641698765785       -3.56422920561994       -0.10393233893059
H            0.59797033061583       -5.77031669981782       -0.11406507862245
H            3.11274192966956       -4.95685863866675        2.32259040164446
H            4.11377835182048       -5.72190916683731        4.41255290794273
H            5.34864833991062       -7.87294605111322        4.47759722341416
H            5.52165775751235       -9.22492683716024        2.45445732743736
H            6.17129389639131       -9.63907143322369       -1.18954695627663
H            6.52085266811199       -8.02940621698307       -0.55914428830126
H            6.56432152337850       -9.42895729812650        0.51363555480406
H            2.82554721975312       -9.94775442611238        0.52995445466148
H            3.94375572789648      -10.78746214741586       -0.54522308693268
H            4.34345195614121      -10.58977748853736        1.15796743856769
H            4.37805886592441       -9.81354584472262       -2.48554579469016
H            3.37053885631032       -8.89052756667746       -4.50639018875701
H            2.32024764575811       -6.64376114073762       -4.43626896866446
H            2.27019112022273       -5.38931868490872       -2.34345717664434
H            4.37868402038464       -3.80235637769279        0.09494216883486
H            3.22769413623612       -1.59970103067975        0.09314980477647
H           -3.00467486170878       -1.99730111754385        0.08883034154301
H           -5.48768163808527       -1.89138242203913        0.09669016142947
H           -5.85023722425529       -0.22877779952797        2.33475596257218
H           -7.01041302522472       -0.72119769096949        4.42456247917882
H           -9.49055789319914       -0.71200951961637        4.49389183017825
H          -10.75067755390556       -0.17503664515592        2.47532528548701

          :  Hamiltonian                  GFN2-xTB          :
         :: gradient norm              0.000041788688 Eh/a0 ::
         :: HOMO-LUMO gap              1.440593600753 eV    ::
         :: SCC energy              -189.884547049885 Eh    ::
         :: -> dispersion             -0.178168466793 Eh    ::
         :: repulsion energy           3.346714809748 Eh    ::

    * Orbital Energies and Occupations

         #    Occupation            Energy/Eh            Energy/eV
      -------------------------------------------------------------
         1        2.0000           -0.6883862             -18.7319
       ...           ...                  ...                  ...
       162        2.0000           -0.4017317             -10.9317
       163        2.0000           -0.4017302             -10.9316
       164        2.0000           -0.3962205             -10.7817
       165        2.0000           -0.3962137             -10.7815
       166        2.0000           -0.3962128             -10.7815
       167        2.0000           -0.3909694             -10.6388
       168        2.0000           -0.3909635             -10.6387
       169        2.0000           -0.3909590             -10.6385
       170        2.0000           -0.3758167             -10.2265
       171        2.0000           -0.3758140             -10.2264
       172        2.0000           -0.3454314              -9.3997
       173        2.0000           -0.3454244              -9.3995
       174        2.0000           -0.3452640              -9.3951 (HOMO)
       175                         -0.2923231              -7.9545 (LUMO)
       176                         -0.2923159              -7.9543
       177                         -0.2536921              -6.9033
       178                         -0.2383818              -6.4867
       179                         -0.2383500              -6.4858
       180                         -0.2383474              -6.4858
       181                         -0.2225336              -6.0554
       182                         -0.2225244              -6.0552
       183                         -0.2225242              -6.0552
       184                         -0.2176184              -5.9217
       185                         -0.2176125              -5.9215
       ...                                ...                  ...
       342                          0.6887003              18.7405
      -------------------------------------------------------------
                  HL-Gap            0.0529408 Eh            1.4406 eV

     #   Z          covCN         q      C6AA      α(0)
     1   6 C        3.761    -0.103    22.512     6.764
     2   6 C        3.909     0.021    20.157     6.381
     3   6 C        3.761    -0.103    22.513     6.764
     4   6 C        2.980    -0.014    28.350     8.734
     5   6 C        2.928    -0.036    28.899     8.816
     6   6 C        2.917    -0.044    29.104     8.847
     7   6 C        2.920    -0.033    28.818     8.803
     8   6 C        2.924    -0.059    29.464     8.902
     9   6 C        2.928     0.058    26.702     8.474
    10   7 N        2.754    -0.069    22.584     7.058
    11   6 C        2.928     0.076    26.308     8.412
    12   6 C        2.920    -0.037    28.925     8.819
    13   6 C        2.923    -0.024    28.597     8.770
    14   6 C        2.984    -0.002    28.075     8.692
    15   6 C        2.983     0.203    23.703     7.986
    16   7 N        1.844    -0.295    28.485     7.910
    17   6 C        2.983     0.203    23.703     7.986
    18   6 C        2.984    -0.002    28.075     8.692
    19   6 C        2.923    -0.024    28.597     8.770
    20   6 C        2.920    -0.037    28.924     8.819
    21   6 C        2.928     0.076    26.308     8.412
    22   7 N        2.754    -0.069    22.584     7.058
    23   6 C        2.928     0.058    26.702     8.474
    24   6 C        2.924    -0.059    29.464     8.902
    25   6 C        2.920    -0.033    28.818     8.803
    26   6 C        2.917    -0.044    29.104     8.847
    27   6 C        2.928    -0.036    28.899     8.816
    28   6 C        2.980    -0.014    28.350     8.734
    29   6 C        3.909     0.021    20.157     6.381
    30   6 C        3.761    -0.103    22.512     6.764
    31   6 C        3.761    -0.103    22.513     6.764
    32   6 C        2.980    -0.014    28.350     8.734
    33   6 C        2.928    -0.036    28.899     8.816
    34   6 C        2.917    -0.044    29.104     8.847
    35   6 C        2.920    -0.033    28.818     8.803
    36   6 C        2.924    -0.059    29.464     8.902
    37   6 C        2.928     0.058    26.702     8.474
    38   6 C        2.920    -0.037    28.925     8.820
    39   6 C        2.923    -0.024    28.597     8.770
    40   7 N        1.844    -0.295    28.485     7.910
    41   6 C        2.983     0.203    23.703     7.986
    42   6 C        2.984    -0.002    28.076     8.692
    43   6 C        2.923    -0.024    28.597     8.770
    44   6 C        2.920    -0.037    28.925     8.820
    45   6 C        2.928     0.076    26.308     8.412
    46   7 N        2.754    -0.069    22.584     7.058
    47   6 C        2.928     0.058    26.702     8.474
    48   6 C        2.924    -0.059    29.464     8.902
    49   6 C        2.920    -0.033    28.818     8.803
    50   6 C        2.917    -0.044    29.104     8.847
    51   6 C        2.928    -0.036    28.899     8.816
    52   6 C        2.980    -0.014    28.350     8.734
    53   6 C        3.909     0.021    20.157     6.381
    54   6 C        3.761    -0.103    22.513     6.764
    55   6 C        3.761    -0.103    22.512     6.764
    56   6 C        2.980    -0.014    28.350     8.734
    57   6 C        2.928    -0.036    28.899     8.816
    58   6 C        2.917    -0.044    29.104     8.847
    59   6 C        2.920    -0.033    28.818     8.803
    60   6 C        2.924    -0.059    29.464     8.902
    61   6 C        2.928     0.058    26.702     8.474
    62   6 C        2.920    -0.037    28.925     8.820
    63   6 C        2.923    -0.024    28.597     8.770
    64   7 N        1.844    -0.295    28.485     7.910
    65   6 C        2.923    -0.024    28.597     8.770
    66   6 C        2.920    -0.037    28.925     8.820
    67   6 C        2.928     0.058    26.702     8.474
    68   6 C        2.924    -0.059    29.464     8.902
    69   6 C        2.920    -0.033    28.818     8.803
    70   6 C        2.917    -0.044    29.104     8.847
    71   6 C        2.928    -0.036    28.899     8.816
    72   6 C        2.980    -0.014    28.350     8.734
    73   1 H        0.925     0.039     2.460     2.453
    74   1 H        0.925     0.039     2.461     2.453
    75   1 H        0.925     0.031     2.569     2.507
    76   1 H        0.925     0.039     2.460     2.453
    77   1 H        0.925     0.039     2.461     2.453
    78   1 H        0.925     0.031     2.569     2.507
    79   1 H        0.926     0.030     2.587     2.515
    80   1 H        0.926     0.026     2.642     2.542
    81   1 H        0.926     0.027     2.625     2.534
    82   1 H        0.926     0.024     2.672     2.556
    83   1 H        0.926     0.047     2.356     2.400
    84   1 H        0.926     0.061     2.184     2.311
    85   1 H        0.926     0.061     2.184     2.311
    86   1 H        0.926     0.047     2.356     2.400
    87   1 H        0.926     0.024     2.672     2.556
    88   1 H        0.926     0.027     2.625     2.534
    89   1 H        0.926     0.026     2.642     2.542
    90   1 H        0.926     0.030     2.587     2.515
    91   1 H        0.925     0.039     2.461     2.453
    92   1 H        0.925     0.031     2.569     2.507
    93   1 H        0.925     0.039     2.460     2.453
    94   1 H        0.925     0.039     2.461     2.453
    95   1 H        0.925     0.031     2.569     2.507
    96   1 H        0.925     0.039     2.460     2.453
    97   1 H        0.926     0.030     2.587     2.515
    98   1 H        0.926     0.026     2.642     2.542
    99   1 H        0.926     0.027     2.625     2.534
   100   1 H        0.926     0.024     2.673     2.556
   101   1 H        0.926     0.047     2.356     2.400
   102   1 H        0.926     0.061     2.185     2.311
   103   1 H        0.926     0.061     2.185     2.311
   104   1 H        0.926     0.047     2.356     2.400
   105   1 H        0.926     0.024     2.672     2.556
   106   1 H        0.926     0.027     2.625     2.534
   107   1 H        0.926     0.026     2.642     2.542
   108   1 H        0.926     0.030     2.587     2.515
   109   1 H        0.925     0.039     2.461     2.453
   110   1 H        0.925     0.031     2.569     2.507
   111   1 H        0.925     0.039     2.460     2.453
   112   1 H        0.925     0.031     2.569     2.507
   113   1 H        0.925     0.039     2.460     2.453
   114   1 H        0.925     0.039     2.461     2.453
   115   1 H        0.926     0.030     2.587     2.515
   116   1 H        0.926     0.026     2.642     2.542
   117   1 H        0.926     0.027     2.625     2.534
   118   1 H        0.926     0.024     2.672     2.556
   119   1 H        0.926     0.047     2.356     2.400
   120   1 H        0.926     0.061     2.184     2.311
   121   1 H        0.926     0.061     2.184     2.311
   122   1 H        0.926     0.047     2.356     2.400
   123   1 H        0.926     0.024     2.672     2.556
   124   1 H        0.926     0.027     2.625     2.534
   125   1 H        0.926     0.026     2.642     2.542
   126   1 H        0.926     0.030     2.587     2.515

molecular dipole:
                 x           y           z       tot (Debye)
 q only:        0.001      -0.001       0.000
   full:        0.001      -0.001       0.000       0.003

 projected vibrational frequencies (cm⁻¹)
eigval :       -0.00    -0.00     0.00     0.00     0.00     0.00
eigval :        3.24     4.65     4.69     8.21    10.60    10.70
eigval :       18.93    21.98    22.00    26.99    27.02    37.30
eigval :       39.27    39.36    51.10    59.08    62.39    62.42
eigval :       85.20    94.60    94.61    99.51    99.53    99.90
eigval :      100.07   103.75   103.81   128.38   128.38   128.45
eigval :      135.98   147.37   147.42   167.01   167.12   184.53
eigval :      189.99   189.99   190.60   201.00   201.02   217.62
eigval :      218.56   219.12   219.12   233.30   235.02   235.10
eigval :      290.24   290.26   294.74   298.50   298.51   304.43
eigval :      318.54   318.56   331.48   331.48   331.60   342.06
eigval :      342.09   343.36   355.32   355.37   364.73   368.50
eigval :      369.33   369.34   377.80   379.15   379.19   387.83
eigval :      406.04   406.14   410.19   410.21   412.17   420.11
eigval :      450.40   450.56   451.95   451.99   452.00   480.22
eigval :      480.25   489.19   493.27   493.33   504.44   515.08
eigval :      515.09   515.11   547.41   547.41   547.42   551.92
eigval :      551.96   553.63   554.57   575.92   575.93   580.41
eigval :      589.95   589.97   592.49   609.84   609.86   612.89
eigval :      623.82   623.82   638.46   639.68   639.69   667.75
eigval :      667.79   682.08   682.63   682.65   683.09   693.67
eigval :      693.73   693.74   694.70   717.73   717.74   732.87
eigval :      732.96   748.08   776.59   777.09   777.12   778.20
eigval :      778.24   778.27   779.90   820.77   820.78   821.27
eigval :      830.45   830.46   830.64   845.42   845.43   866.96
eigval :      867.00   867.02   867.31   867.38   867.40   870.65
eigval :      873.36   873.37   913.16   913.17   913.20   914.02
eigval :      914.04   914.07   915.54   915.65   915.66   916.23
eigval :      920.88   920.90   921.17   921.28   921.29   921.33
eigval :      922.70   922.70   924.36   928.54   929.69   929.69
eigval :      930.62   930.63   938.84   939.37   939.38   957.22
eigval :      957.23   957.24  1004.43  1014.44  1014.45  1014.45
eigval :     1017.26  1017.35  1046.89  1077.26  1077.28  1077.29
eigval :     1085.44  1085.52  1085.55  1088.18  1113.96  1114.02
eigval :     1114.16  1114.89  1119.85  1119.86  1120.15  1120.86
eigval :     1120.88  1141.15  1141.16  1141.17  1159.95  1160.07
eigval :     1160.43  1160.43  1160.45  1171.88  1171.91  1173.04
eigval :     1178.72  1186.82  1186.86  1187.58  1188.37  1188.39
eigval :     1188.43  1189.29  1189.51  1205.11  1208.14  1213.59
eigval :     1213.61  1245.42  1246.38  1246.44  1249.20  1249.93
eigval :     1249.94  1252.01  1254.37  1254.38  1269.15  1269.21
eigval :     1269.30  1295.19  1295.19  1295.21  1314.41  1314.45
eigval :     1314.49  1318.36  1319.46  1319.54  1327.05  1327.08
eigval :     1327.41  1334.79  1335.04  1335.05  1342.45  1342.48
eigval :     1342.89  1371.41  1371.57  1383.59  1402.93  1402.94
eigval :     1402.96  1405.49  1405.62  1405.63  1421.02  1421.04
eigval :     1421.08  1436.74  1436.75  1436.84  1443.45  1443.51
eigval :     1443.76  1477.75  1477.89  1480.25  1480.28  1480.61
eigval :     1485.77  1490.07  1490.08  1490.10  1491.18  1491.18
eigval :     1491.22  1497.24  1497.28  1498.90  1500.71  1500.72
eigval :     1500.76  1505.39  1505.40  1505.45  1509.55  1509.56
eigval :     1562.28  1566.94  1566.96  1575.85  1575.89  1575.89
eigval :     1588.31  1588.53  1588.55  1592.10  1592.41  1592.45
eigval :     1593.28  1593.29  1593.42  1602.96  1602.98  1603.10
eigval :     3026.50  3026.57  3026.59  3028.72  3028.74  3028.76
eigval :     3039.36  3039.39  3039.39  3042.15  3042.16  3042.18
eigval :     3048.44  3048.44  3048.45  3052.82  3052.84  3052.90
eigval :     3078.24  3078.26  3078.27  3078.38  3078.39  3078.40
eigval :     3083.05  3083.08  3083.10  3083.23  3083.31  3083.32
eigval :     3087.51  3087.67  3087.69  3088.51  3088.52  3088.91
eigval :     3094.10  3094.13  3094.14  3094.48  3094.55  3094.78
eigval :     3100.62  3100.65  3100.75  3101.48  3101.58  3101.61
eigval :     3110.17  3110.51  3110.52  3112.09  3112.12  3112.73

   temp. (K)  partition function   enthalpy   heat capacity  entropy
                                   cal/mol     cal/K/mol   cal/K/mol   J/K/mol
 298.15  VIB  0.136E+33            37079.149    226.856    236.443
         ROT  0.866E+08              888.752      2.981     39.302
         INT  0.118E+41            37967.901    229.837    275.745
         TR   0.275E+29             1481.254      4.968     46.348
         TOT                       39449.1553   234.8054   322.0929  1347.6368

       T/K    H(0)-H(T)+PV         H(T)/Eh          T*S/Eh         G(T)/Eh
   ------------------------------------------------------------------------
    298.15    0.628662E-01    0.106406E+01    0.153037E+00    0.911025E+00
   ------------------------------------------------------------------------

         :::::::::::::::::::::::::::::::::::::::::::::::::::::
         ::                  THERMODYNAMIC                  ::
         :::::::::::::::::::::::::::::::::::::::::::::::::::::
         :: total free energy        -185.626807237942 Eh   ::
         ::.................................................::
         :: total energy             -186.537832240163 Eh   ::
         :: zero point energy           1.001195515544 Eh   ::
         :: G(RRHO) w/o ZPVE           -0.090170513323 Eh   ::
         :: G(RRHO) contrib.            0.911025002221 Eh   ::
         :::::::::::::::::::::::::::::::::::::::::::::::::::::

           -------------------------------------------------
          | TOTAL ENERGY             -186.537832240163 Eh   |
          | TOTAL ENTHALPY           -185.473770493972 Eh   |
          | TOTAL FREE ENERGY        -185.626807237942 Eh   |
          | GRADIENT NORM               0.000041792090 Eh/α |
          | HOMO-LUMO GAP               1.440593308716 eV   |
           -------------------------------------------------

 * finished run on 2025/07/17 at 02:10:02.881
