   * xtb version 6.7.1 (edcfbbe) compiled by 'albert@albert-system' on 2024-07-22

   ID    Z sym.   atoms
    1    6 C      1-9, 11-16, 20-31
    2    7 N      10
    3    8 O      17, 19
    4   16 S      18
    5    1 H      32-56

          program call               : xtb data2507/toluene/DMAC-DPS/DMAC-DPS.xyz --gfn 2 --gbsa toluene --ohess vtight --parallel 40 --molden --ceasefiles --namespace data2507/toluene/DMAC-DPS/DMAC-DPS_toluene_S0_preOpt
      * Solvation model:               GBSA
        Solvent                        toluene
        Solvent mass                       9.2140E+01 g/mol
          :  Hamiltonian                  GFN2-xTB          :
 * total energy  :   -49.7014649 Eh     change        0.1577192E-08 Eh
 * total energy  :   -69.3652122 Eh     change       -0.1966375E+02 Eh
 * total energy  :   -75.2986492 Eh     change       -0.5933437E+01 Eh
 * total energy  :   -77.9894447 Eh     change       -0.2690796E+01 Eh
 * total energy  :   -79.9919764 Eh     change       -0.2002532E+01 Eh
 * total energy  :   -81.2615047 Eh     change       -0.1269528E+01 Eh
 * total energy  :   -82.1144864 Eh     change       -0.8529817E+00 Eh
 * total energy  :   -82.7045347 Eh     change       -0.5900483E+00 Eh
 * total energy  :   -83.1212458 Eh     change       -0.4167111E+00 Eh
 * total energy  :   -83.4240298 Eh     change       -0.3027840E+00 Eh
 * total energy  :   -84.7569235 Eh     change       -0.1297092E-05 Eh
 * total energy  :   -84.7569245 Eh     change       -0.1000604E-05 Eh
 * total energy  :   -84.7569257 Eh     change       -0.1188424E-05 Eh
 * total energy  :   -84.7569266 Eh     change       -0.9134932E-06 Eh
 * total energy  :   -84.7569271 Eh     change       -0.4907693E-06 Eh
 * total energy  :   -84.7569275 Eh     change       -0.3443480E-06 Eh
 * total energy  :   -84.7569277 Eh     change       -0.1953015E-06 Eh
 * total energy  :   -84.7569278 Eh     change       -0.1223132E-06 Eh
 * total energy  :   -84.7569278 Eh     change       -0.4671153E-07 Eh
   *** GEOMETRY OPTIMIZATION CONVERGED AFTER 91 ITERATIONS ***

 final structure:
================
56
 xtb: 6.7.1 (edcfbbe)
C            0.58417691315318        2.66435737075455       -2.15318954521865
C            0.43411675503275        0.74665047996780       -0.01456911958726
C           -1.45500773448865        2.11648688176711        1.94309469093695
C            1.53812314485102        0.07832417171948        0.73963317566008
C            2.84221712195792        0.84624915400165       -0.78555928764959
C            4.06383785387597       -0.09124640955477       -0.77083358539624
C            3.74342247785704       -1.59228932654335        0.79679511547437
C            2.45697619521858       -2.02904063076815        1.41220954979420
C            1.37434607864800       -1.24609175695755        1.33552310918629
N            0.06586116333446       -1.67634574858343        1.52676576523009
C           -0.91037505590718       -1.30496584110699        0.60084393127664
C           -1.85585171028363       -2.16719751515670        0.21427112902844
C           -3.09292092786255       -1.74214467634310       -0.48671815364224
C           -3.95511562471780        0.27266451584053       -0.47620792272496
C           -2.82422050028774        1.24936259045129       -0.09790163924964
C           -0.94632603598368        0.14068984315054        0.18091009333352
O           -0.46412715462358        3.35030449987510       -2.75516709768679
S            0.27291380864070        2.58792912724769       -0.28670107472112
O            1.42910766582620        3.26609728257119        0.31606431752761
C            1.51461723038676        0.06871499560104       -0.81568005874248
C            2.84298162171073        0.84437224666987        0.75921017602542
C            4.06509660824038       -0.08445675739667        0.76532238153671
C            3.74810387293211       -1.60282506841051       -0.78371257254651
C            2.49993598074754       -1.99546141199036       -1.50748809734236
C            1.44032166540351       -1.19142517177798       -1.55722005657185
C           -1.96265005370318        0.91257878986474        1.14755854772486
C           -2.64122636267871       -0.00082419680579        2.12964976288104
C           -3.66238586751263       -0.78894766390747        1.82842773169956
C           -4.11580776528034       -0.96128170106475        0.42924424557516
C           -2.98247644179949       -0.50101383324028       -1.38429357874110
C           -1.86315345882221        0.47867353351235       -1.01376238061551
H           -1.28332718787618        2.84092574582171       -2.68081957266680
H            0.73328536500202        1.66225891562114       -2.56698222439258
H            1.47693313878597        3.27538683088971       -2.27968336846566
H           -1.49983731102672        3.04185728383851        1.37763855463608
H           -2.07647256828536        2.25116005137419        2.82739285684602
H           -0.43028294506407        1.96240302722828        2.27509481716675
H            2.93878410650981        1.74493456762327       -1.38670151459933
H            4.91335750854406        0.23130697366636       -1.36686250103877
H            4.57358025434922       -2.18059136381043        1.19057206438466
H            2.39009262594684       -3.03921145062995        1.78762604267742
H           -0.00774052464681       -2.64324721266715        1.81976262341556
H           -1.82075267398350       -3.18896130525307        0.56731135118906
H           -3.56378527481263       -2.58951621628259       -0.98560257217964
H           -4.87245710435216        0.72836389361553       -0.83886527235008
H           -3.04610438163314        2.30415930398832       -0.23497303141085
H            2.89223009039866        1.74385031670305        1.36477396222787
H            4.91467880601493        0.24753187457943        1.35545854200687
H            4.58809372741087       -2.18884186243754       -1.16064376809913
H            2.50419753272369       -2.94129121792050       -2.02956686092808
H            0.53245559049430       -1.45563999582471       -2.07949974184191
H           -2.27958500562078        0.05286351443151        3.14637007531908
H           -4.13911578496291       -1.39006975852242        2.58929490302278
H           -5.11474692024750       -1.39413117102014        0.38088435433002
H           -3.15159180673341       -0.65245506096757       -2.44754167097716
H           -1.35640072081686        0.92905554255089       -1.86095860074419

          :  Hamiltonian                  GFN2-xTB          :
         :: gradient norm              0.000116450873 Eh/a0 ::
         :: HOMO-LUMO gap              3.041880322169 eV    ::
         :: SCC energy               -85.901135543876 Eh    ::
         :: -> dispersion             -0.087415259337 Eh    ::
         :: -> Gsolv                  -0.028937225203 Eh    ::
         :: repulsion energy           1.144207706520 Eh    ::

    * Orbital Energies and Occupations

         #    Occupation            Energy/Eh            Energy/eV
      -------------------------------------------------------------
         1        2.0000           -0.7551705             -20.5492
       ...           ...                  ...                  ...
        66        2.0000           -0.4331737             -11.7873
        67        2.0000           -0.4132611             -11.2454
        68        2.0000           -0.4099090             -11.1542
        69        2.0000           -0.4073582             -11.0848
        70        2.0000           -0.4049569             -11.0194
        71        2.0000           -0.4020103             -10.9393
        72        2.0000           -0.3968893             -10.7999
        73        2.0000           -0.3926778             -10.6853
        74        2.0000           -0.3894956             -10.5987
        75        2.0000           -0.3874650             -10.5435
        76        2.0000           -0.3836289             -10.4391
        77        2.0000           -0.3684977             -10.0273
        78        2.0000           -0.3453456              -9.3973 (HOMO)
        79                         -0.2335585              -6.3555 (LUMO)
        80                         -0.2103306              -5.7234
        81                         -0.2039712              -5.5503
        82                         -0.1994971              -5.4286
        83                         -0.1898051              -5.1649
        84                         -0.1812181              -4.9312
        85                         -0.1255236              -3.4157
        86                         -0.0977403              -2.6596
        87                         -0.0432146              -1.1759
        88                         -0.0329866              -0.8976
        89                         -0.0245989              -0.6694
       ...                                ...                  ...
       154                          0.8933291              24.3087
      -------------------------------------------------------------
                  HL-Gap            0.1117870 Eh            3.0419 eV

     #   Z          covCN         q      C6AA      α(0)
     1   6 C        3.659     0.051    19.997     6.417
     2   6 C        3.904    -0.015    20.791     6.481
     3   6 C        3.772    -0.120    22.825     6.808
     4   6 C        4.144     0.018    20.185     6.381
     5   6 C        4.223    -0.016    20.773     6.473
     6   6 C        4.178    -0.023    20.900     6.493
     7   6 C        4.001    -0.014    20.757     6.472
     8   6 C        2.908    -0.089    30.244     9.018
     9   6 C        2.897     0.060    26.656     8.465
    10   7 N        2.698    -0.184    24.993     7.425
    11   6 C        2.895     0.062    26.603     8.457
    12   6 C        2.900    -0.087    30.191     9.009
    13   6 C        4.004    -0.015    20.760     6.473
    14   6 C        4.180    -0.023    20.892     6.492
    15   6 C        4.160    -0.033    21.077     6.520
    16   6 C        4.074     0.007    20.382     6.413
    17   8 O        1.664    -0.433    21.492     6.258
    18  16 S        2.848     0.375   126.680    18.943
    19   8 O        0.859    -0.519    24.204     6.596
    20   6 C        4.077    -0.003    20.554     6.440
    21   6 C        4.173    -0.015    20.764     6.472
    22   6 C        4.163    -0.027    20.964     6.503
    23   6 C        4.002    -0.022    20.886     6.492
    24   6 C        2.904    -0.038    28.950     8.822
    25   6 C        2.893    -0.046    29.138     8.850
    26   6 C        4.029     0.014    20.255     6.393
    27   6 C        2.905    -0.039    28.972     8.826
    28   6 C        2.891    -0.038    28.949     8.821
    29   6 C        4.012    -0.021    20.863     6.489
    30   6 C        4.175    -0.024    20.911     6.495
    31   6 C        4.166    -0.032    21.064     6.518
    32   1 H        0.805     0.316     0.675     1.291
    33   1 H        0.924     0.046     2.371     2.408
    34   1 H        0.925     0.067     2.119     2.276
    35   1 H        0.925     0.048     2.349     2.397
    36   1 H        0.925     0.058     2.220     2.330
    37   1 H        0.925     0.048     2.349     2.397
    38   1 H        0.925     0.023     2.682     2.561
    39   1 H        0.925     0.029     2.607     2.525
    40   1 H        0.924     0.034     2.526     2.485
    41   1 H        0.926     0.020     2.728     2.583
    42   1 H        0.860     0.160     1.332     1.808
    43   1 H        0.925     0.017     2.775     2.605
    44   1 H        0.924     0.035     2.515     2.480
    45   1 H        0.925     0.032     2.552     2.498
    46   1 H        0.925     0.035     2.514     2.480
    47   1 H        0.925     0.040     2.454     2.450
    48   1 H        0.925     0.028     2.613     2.528
    49   1 H        0.924     0.036     2.497     2.471
    50   1 H        0.926     0.032     2.556     2.500
    51   1 H        0.926     0.033     2.548     2.496
    52   1 H        0.926     0.034     2.524     2.485
    53   1 H        0.926     0.031     2.575     2.509
    54   1 H        0.925     0.036     2.499     2.472
    55   1 H        0.925     0.029     2.597     2.520
    56   1 H        0.925     0.021     2.725     2.581

molecular dipole:
                 x           y           z       tot (Debye)
 q only:       -1.295      -1.512      -0.324
   full:       -0.908      -1.945      -0.522       5.614

 projected vibrational frequencies (cm⁻¹)
eigval :       -0.00    -0.00    -0.00     0.00     0.00     0.00
eigval :       32.80    66.29    78.47    91.40   102.57   123.56
eigval :      135.04   156.84   164.29   189.06   198.91   203.50
eigval :      224.44   238.23   250.06   275.85   306.80   309.76
eigval :      321.50   346.31   363.16   365.63   381.91   397.34
eigval :      404.06   422.36   434.81   456.24   462.17   479.51
eigval :      493.84   505.66   514.95   518.60   541.02   572.18
eigval :      602.77   619.45   641.48   645.34   653.67   671.29
eigval :      694.27   703.38   728.90   741.24   746.63   752.66
eigval :      763.89   769.15   784.88   792.44   806.46   807.95
eigval :      816.19   828.58   838.71   842.75   867.09   877.91
eigval :      886.76   896.10   909.07   915.88   921.63   923.66
eigval :      934.79   950.91   957.90   966.06   967.44   975.67
eigval :      977.95   983.81  1015.48  1039.06  1053.13  1057.22
eigval :     1062.91  1086.41  1091.22  1098.68  1104.89  1111.46
eigval :     1114.72  1116.62  1119.65  1125.05  1128.98  1138.69
eigval :     1143.78  1148.36  1153.58  1161.51  1161.54  1166.15
eigval :     1169.87  1170.68  1176.70  1180.98  1187.31  1193.09
eigval :     1203.33  1204.99  1206.17  1213.96  1222.60  1227.86
eigval :     1228.63  1233.78  1235.38  1247.60  1252.44  1263.50
eigval :     1265.95  1271.34  1274.07  1277.64  1294.75  1301.67
eigval :     1305.40  1318.19  1319.60  1332.17  1336.21  1359.10
eigval :     1374.07  1379.96  1417.63  1428.63  1430.06  1483.33
eigval :     1510.17  1666.64  1678.36  1684.60  1708.45  2910.63
eigval :     2956.05  2967.01  2967.65  2977.95  2988.06  2992.96
eigval :     2995.66  3003.13  3004.19  3008.18  3010.99  3012.49
eigval :     3021.20  3023.87  3027.07  3054.27  3056.37  3059.53
eigval :     3061.95  3073.94  3075.48  3076.53  3387.00  3472.88

   temp. (K)  partition function   enthalpy   heat capacity  entropy
                                   cal/mol     cal/K/mol   cal/K/mol   J/K/mol
 298.15  VIB  0.901E+07            12544.160     93.006     72.007
         ROT  0.117E+08              888.752      2.981     35.319
         INT  0.105E+15            13432.913     95.987    107.326
         TR   0.855E+28             1481.254      4.968     44.029
         TOT                       14914.1664   100.9547   151.3548   633.2687

       T/K    H(0)-H(T)+PV         H(T)/Eh          T*S/Eh         G(T)/Eh
   ------------------------------------------------------------------------
    298.15    0.237672E-01    0.472828E+00    0.719136E-01    0.400914E+00
   ------------------------------------------------------------------------

         :::::::::::::::::::::::::::::::::::::::::::::::::::::
         ::                  THERMODYNAMIC                  ::
         :::::::::::::::::::::::::::::::::::::::::::::::::::::
         :: total free energy         -84.356013482557 Eh   ::
         ::.................................................::
         :: total energy              -84.756927836493 Eh   ::
         :: zero point energy           0.449060687744 Eh   ::
         :: G(RRHO) w/o ZPVE           -0.048146333808 Eh   ::
         :: G(RRHO) contrib.            0.400914353936 Eh   ::
         :::::::::::::::::::::::::::::::::::::::::::::::::::::

           -------------------------------------------------
          | TOTAL ENERGY              -84.756927836493 Eh   |
          | TOTAL ENTHALPY            -84.284099911694 Eh   |
          | TOTAL FREE ENERGY         -84.356013482557 Eh   |
          | GRADIENT NORM               0.000116211706 Eh/α |
          | HOMO-LUMO GAP               3.041880445482 eV   |
           -------------------------------------------------

 * finished run on 2025/07/16 at 09:09:09.721
