   * xtb version 6.7.1 (edcfbbe) compiled by 'albert@albert-system' on 2024-07-22

   ID    Z sym.   atoms
    1    6 C      1-9, 11-16, 20-31
    2    7 N      10
    3    8 O      17, 19
    4   16 S      18
    5    1 H      32-56

          program call               : xtb data2507/toluene/DMAC-DPS/DMAC-DPS_toluene_T1_crest.xyz --gfn 2 --uhf 2 --gbsa toluene --ohess vtight --parallel 40 --molden --ceasefiles --namespace data2507/toluene/DMAC-DPS/DMAC-DPS_toluene_T1_finalOpt
      * Solvation model:               GBSA
        Solvent                        toluene
        Solvent mass                       9.2140E+01 g/mol
          :  Hamiltonian                  GFN2-xTB          :
 * total energy  :   -84.7001847 Eh     change       -0.1926864E-08 Eh
 * total energy  :   -84.7004085 Eh     change       -0.2237532E-03 Eh
 * total energy  :   -84.7004821 Eh     change       -0.7365527E-04 Eh
 * total energy  :   -84.7005014 Eh     change       -0.1922003E-04 Eh
 * total energy  :   -84.7005101 Eh     change       -0.8728564E-05 Eh
 * total energy  :   -84.7005130 Eh     change       -0.2869783E-05 Eh
 * total energy  :   -84.7005144 Eh     change       -0.1476317E-05 Eh
 * total energy  :   -84.7005153 Eh     change       -0.9084203E-06 Eh
 * total energy  :   -84.7005163 Eh     change       -0.9228377E-06 Eh
 * total energy  :   -84.7005171 Eh     change       -0.8115709E-06 Eh
 * total energy  :   -84.7005177 Eh     change       -0.5902886E-06 Eh
 * total energy  :   -84.7005176 Eh     change        0.3411537E-07 Eh
 * total energy  :   -84.7005181 Eh     change       -0.4435682E-06 Eh
 * total energy  :   -84.7005182 Eh     change       -0.1510104E-06 Eh
 * total energy  :   -84.7005185 Eh     change       -0.2867781E-06 Eh
 * total energy  :   -84.7005186 Eh     change       -0.1166600E-06 Eh
 * total energy  :   -84.7005187 Eh     change       -0.2640657E-07 Eh
   *** GEOMETRY OPTIMIZATION CONVERGED AFTER 17 ITERATIONS ***

 final structure:
================
56
 xtb: 6.7.1 (edcfbbe)
C            0.85420506505502        2.95530847949409       -1.31245972126538
C            0.35946953768209        0.44161319928915        0.11632796687084
C           -1.61074308405459        1.30147208769582        2.28436504219851
C            1.16989787198104       -0.36075041466046        1.10605659829465
C            2.71341123173513        0.55540154171454       -0.39102944794736
C            3.88553239245492       -0.43052062950669       -0.50867252918337
C            3.32725386724792       -2.23035230433651        0.62796054396694
C            2.00488351559921       -2.65398841193752        1.07928678870083
C            0.95494553838011       -1.74020503091227        1.04400893704981
N           -0.31386867729937       -2.22141062814730        0.73819590296496
C           -1.18256540880795       -1.51915216788401       -0.07542154403202
C           -2.12707457853935       -2.13069316196680       -0.80156667974806
C           -3.25863926702526       -1.38452000091158       -1.40369507951827
C           -3.99602700660903        0.58257888811314       -0.77530382544796
C           -2.85165846784649        1.27980931758518       -0.01370724953455
C           -1.08671671339499       -0.02431472962672        0.00428658282924
O            2.02160005424926        3.64757443295360       -1.07570022045411
S            0.22533149952567        2.32534695723597        0.35642070621589
O            1.32838019863748        2.80674688576614        1.22349941908023
C            1.37645013086954        0.15098937213931       -0.96981969572416
C            2.56479722711454        0.18912676369531        1.11062520585579
C            3.73901823865204       -0.79492169832966        0.97578738927798
C            3.47163506726683       -1.83833801024440       -0.95575067696447
C            2.30745367885475       -1.89411085236231       -1.85669265378381
C            1.29250239250064       -0.97859825430853       -1.79582895351970
C           -2.13170853507661        0.47989812541220        1.10383426309056
C           -2.95857882965005       -0.63653581421893        1.67778731888837
C           -3.98703353145174       -1.19440649236774        1.05638328169757
C           -4.31380886430621       -0.86116692997963       -0.34910332230711
C           -2.98902202578968        0.07036282823318       -1.82060795989959
C           -1.85451292801709        0.77470397905493       -1.06631566372391
H            2.14438275207972        3.61502028756844       -0.09294919567951
H            0.06646521928721        3.61459836637491       -1.69340744408316
H            1.01552356509916        2.10135500780784       -1.98178330223865
H           -1.54544486146942        2.36211688251815        2.06171656962349
H           -2.28927992059304        1.19345046872138        3.12931640673643
H           -0.62832584850523        0.95001600685338        2.59597295522577
H            2.99832352816088        1.57945354828811       -0.62698954549821
H            4.80213151469566       -0.03234945579171       -0.93717424458320
H            4.09173772578732       -2.96695163219624        0.87426709908401
H            1.77722665336620       -3.71079636592031        1.06895712566147
H           -0.38761528340376       -3.22814684702335        0.67305050528584
H           -2.18315880267840       -3.21033851765216       -0.81165845507071
H           -3.73440193548694       -1.97076325314253       -2.19019811566151
H           -4.84615775302752        1.21032365937033       -1.02762656662649
H           -2.99658666894147        2.33700397287689        0.19025794791953
H            2.71414110456755        0.98634423270170        1.83727790516463
H            4.54188218923357       -0.68083018928449        1.69974802974505
H            4.29982488511809       -2.41621857118372       -1.36663115757100
H            2.20867262022043       -2.75632884761861       -2.49965906275433
H            0.36979909364460       -1.16484930933236       -2.33160501838453
H           -2.69933130895957       -0.94605092878520        2.68014632323910
H           -4.57081761724397       -1.96526701043351        1.53862435469792
H           -5.32761898031864       -1.16579059181513       -0.60799431389303
H           -3.06591687657276        0.29412343783904       -2.88146366217674
H           -1.24602791789748        1.44596939297788       -1.66495636859037

          :  Hamiltonian                  GFN2-xTB          :
         :: gradient norm              0.000063026553 Eh/a0 ::
         :: HOMO-LUMO gap              2.543831044040 eV    ::
         :: SCC energy               -85.830492480486 Eh    ::
         :: -> dispersion             -0.090250229719 Eh    ::
         :: -> Gsolv                  -0.026872053830 Eh    ::
         :: repulsion energy           1.129973789655 Eh    ::

    * Orbital Energies and Occupations

         #    Occupation            Energy/Eh            Energy/eV
      -------------------------------------------------------------
         1        2.0000           -0.7592148             -20.6593
       ...           ...                  ...                  ...
        67        2.0000           -0.4223003             -11.4914
        68        2.0000           -0.4205970             -11.4450
        69        2.0000           -0.4123425             -11.2204
        70        2.0000           -0.4047539             -11.0139
        71        2.0000           -0.4026069             -10.9555
        72        2.0000           -0.3970406             -10.8040
        73        2.0000           -0.3931154             -10.6972
        74        2.0000           -0.3914729             -10.6525
        75        2.0000           -0.3889094             -10.5828
        76        2.0000           -0.3814936             -10.3810
        77        2.0000           -0.3535476              -9.6205
        78        1.0000           -0.3272491              -8.9049
        79        1.0000           -0.3065830              -8.3425 (HOMO)
        80                         -0.2130985              -5.7987 (LUMO)
        81                         -0.2072497              -5.6396
        82                         -0.2028097              -5.5187
        83                         -0.1959327              -5.3316
        84                         -0.1887192              -5.1353
        85                         -0.1719675              -4.6795
        86                         -0.1213737              -3.3027
        87                         -0.0439813              -1.1968
        88                         -0.0321384              -0.8745
        89                         -0.0228413              -0.6215
        90                         -0.0160123              -0.4357
       ...                                ...                  ...
       154                          0.8471192              23.0513
      -------------------------------------------------------------
                  HL-Gap            0.0934845 Eh            2.5438 eV

     #   Z          covCN         q      C6AA      α(0)
     1   6 C        3.659     0.058    19.878     6.398
     2   6 C        3.926     0.002    20.490     6.433
     3   6 C        3.773    -0.120    22.819     6.807
     4   6 C        3.204    -0.033    28.210     8.652
     5   6 C        4.071    -0.018    20.810     6.480
     6   6 C        4.158    -0.020    20.846     6.485
     7   6 C        3.981    -0.013    20.736     6.470
     8   6 C        2.904    -0.070    29.754     8.944
     9   6 C        2.902     0.066    26.523     8.444
    10   7 N        2.704    -0.162    24.504     7.352
    11   6 C        2.894     0.066    26.532     8.445
    12   6 C        2.900    -0.087    30.173     9.006
    13   6 C        4.003    -0.014    20.753     6.472
    14   6 C        4.179    -0.022    20.882     6.490
    15   6 C        4.164    -0.034    21.085     6.522
    16   6 C        4.105     0.003    20.447     6.423
    17   8 O        1.666    -0.458    22.001     6.332
    18  16 S        2.890     0.378   126.602    18.937
    19   8 O        0.859    -0.519    24.198     6.595
    20   6 C        3.201    -0.034    28.255     8.662
    21   6 C        4.047    -0.014    20.743     6.470
    22   6 C        4.147    -0.024    20.916     6.496
    23   6 C        3.966    -0.018    20.830     6.485
    24   6 C        2.900    -0.052    29.287     8.873
    25   6 C        2.895    -0.042    29.053     8.837
    26   6 C        4.030     0.013    20.274     6.396
    27   6 C        2.904    -0.040    28.982     8.827
    28   6 C        2.891    -0.038    28.948     8.821
    29   6 C        4.011    -0.020    20.861     6.488
    30   6 C        4.173    -0.023    20.904     6.494
    31   6 C        4.168    -0.034    21.090     6.522
    32   1 H        0.802     0.329     0.640     1.257
    33   1 H        0.924     0.044     2.402     2.424
    34   1 H        0.924     0.053     2.282     2.362
    35   1 H        0.925     0.046     2.376     2.410
    36   1 H        0.925     0.058     2.218     2.329
    37   1 H        0.925     0.050     2.326     2.385
    38   1 H        0.925     0.043     2.408     2.427
    39   1 H        0.925     0.026     2.647     2.544
    40   1 H        0.925     0.042     2.422     2.434
    41   1 H        0.926     0.028     2.618     2.530
    42   1 H        0.860     0.165     1.302     1.787
    43   1 H        0.926     0.020     2.731     2.584
    44   1 H        0.924     0.037     2.496     2.471
    45   1 H        0.925     0.033     2.546     2.495
    46   1 H        0.925     0.034     2.533     2.489
    47   1 H        0.925     0.043     2.406     2.426
    48   1 H        0.925     0.028     2.615     2.529
    49   1 H        0.924     0.039     2.456     2.451
    50   1 H        0.926     0.024     2.676     2.558
    51   1 H        0.925     0.028     2.619     2.531
    52   1 H        0.926     0.035     2.520     2.482
    53   1 H        0.926     0.032     2.559     2.502
    54   1 H        0.925     0.038     2.482     2.463
    55   1 H        0.925     0.030     2.586     2.515
    56   1 H        0.925     0.021     2.716     2.577

molecular dipole:
                 x           y           z       tot (Debye)
 q only:       -1.363      -1.428      -0.161
   full:       -1.035      -1.792      -0.391       5.353

 projected vibrational frequencies (cm⁻¹)
eigval :       -0.00    -0.00     0.00     0.00     0.00     0.00
eigval :       40.06    66.38    75.09    96.98   112.79   123.19
eigval :      130.96   155.78   170.51   178.12   201.41   215.80
eigval :      232.03   258.45   264.78   286.09   317.70   327.01
eigval :      338.16   352.74   364.72   374.39   383.58   422.27
eigval :      429.97   444.25   458.29   477.98   481.25   494.27
eigval :      501.40   505.50   518.01   522.44   540.77   577.76
eigval :      588.74   597.04   617.31   620.03   634.97   644.74
eigval :      663.56   665.33   681.53   688.98   716.97   728.14
eigval :      742.56   754.63   760.08   772.29   784.38   791.64
eigval :      803.65   820.76   832.03   834.57   841.74   863.84
eigval :      875.57   898.87   911.20   914.25   918.16   923.46
eigval :      928.88   938.68   952.54   959.27   965.83   975.47
eigval :      985.25   992.18   997.83  1021.61  1041.11  1042.37
eigval :     1052.52  1065.65  1079.38  1094.27  1100.67  1107.03
eigval :     1109.33  1120.67  1123.72  1125.85  1130.72  1145.46
eigval :     1152.75  1155.25  1158.26  1159.95  1161.27  1165.70
eigval :     1172.23  1174.33  1179.59  1180.74  1187.08  1189.09
eigval :     1193.80  1195.38  1202.07  1207.30  1216.97  1229.81
eigval :     1232.86  1236.63  1239.00  1248.26  1255.12  1259.60
eigval :     1264.31  1274.93  1278.95  1280.89  1298.23  1302.05
eigval :     1305.28  1309.90  1319.61  1326.04  1345.58  1359.49
eigval :     1372.38  1407.39  1411.89  1434.36  1443.91  1445.67
eigval :     1481.43  1486.89  1511.36  1663.43  1707.74  2862.31
eigval :     2911.28  2961.36  2966.06  2973.15  2977.73  2978.93
eigval :     2986.01  2989.96  2990.09  2997.21  3000.61  3004.46
eigval :     3008.78  3011.51  3015.64  3018.01  3037.71  3051.95
eigval :     3057.29  3057.99  3058.76  3071.17  3073.49  3402.15

   temp. (K)  partition function   enthalpy   heat capacity  entropy
                                   cal/mol     cal/K/mol   cal/K/mol   J/K/mol
 298.15  VIB  0.567E+07            12478.973     93.762     71.239
         ROT  0.114E+08              888.752      2.981     35.275
         INT  0.647E+14            13367.725     96.743    106.514
         TR   0.855E+28             1481.254      4.968     44.029
         TOT                       14848.9791   101.7113   150.5428   629.8711

       T/K    H(0)-H(T)+PV         H(T)/Eh          T*S/Eh         G(T)/Eh
   ------------------------------------------------------------------------
    298.15    0.236634E-01    0.469356E+00    0.715277E-01    0.397829E+00
   ------------------------------------------------------------------------

         :::::::::::::::::::::::::::::::::::::::::::::::::::::
         ::                  THERMODYNAMIC                  ::
         :::::::::::::::::::::::::::::::::::::::::::::::::::::
         :: total free energy         -84.302690183432 Eh   ::
         ::.................................................::
         :: total energy              -84.700518692119 Eh   ::
         :: zero point energy           0.445692896427 Eh   ::
         :: G(RRHO) w/o ZPVE           -0.047864387740 Eh   ::
         :: G(RRHO) contrib.            0.397828508687 Eh   ::
         :::::::::::::::::::::::::::::::::::::::::::::::::::::

           -------------------------------------------------
          | TOTAL ENERGY              -84.700518692119 Eh   |
          | TOTAL ENTHALPY            -84.231162441188 Eh   |
          | TOTAL FREE ENERGY         -84.302690183432 Eh   |
          | GRADIENT NORM               0.000063331673 Eh/α |
          | HOMO-LUMO GAP               2.543843239125 eV   |
           -------------------------------------------------

 * finished run on 2025/07/16 at 09:21:01.701
