   * xtb version 6.7.1 (edcfbbe) compiled by 'albert@albert-system' on 2024-07-22

   ID    Z sym.   atoms
    1    6 C      1-9, 11-16, 20-31
    2    7 N      10
    3    8 O      17, 19
    4   16 S      18
    5    1 H      32-56

          program call               : xtb data2507/toluene/DMAC-DPS/DMAC-DPS_toluene_S0_crest.xyz --gfn 2 --gbsa toluene --ohess vtight --parallel 40 --molden --ceasefiles --namespace data2507/toluene/DMAC-DPS/DMAC-DPS_toluene_S0_finalOpt
      * Solvation model:               GBSA
        Solvent                        toluene
        Solvent mass                       9.2140E+01 g/mol
          :  Hamiltonian                  GFN2-xTB          :
 * total energy  :   -84.7640590 Eh     change       -0.2279293E-08 Eh
 * total energy  :   -84.7643120 Eh     change       -0.2530136E-03 Eh
 * total energy  :   -84.7644048 Eh     change       -0.9274168E-04 Eh
 * total energy  :   -84.7644271 Eh     change       -0.2235934E-04 Eh
 * total energy  :   -84.7644374 Eh     change       -0.1030119E-04 Eh
 * total energy  :   -84.7644402 Eh     change       -0.2813480E-05 Eh
 * total energy  :   -84.7644416 Eh     change       -0.1361049E-05 Eh
 * total energy  :   -84.7644423 Eh     change       -0.7391975E-06 Eh
 * total energy  :   -84.7644423 Eh     change       -0.2039941E-07 Eh
 * total energy  :   -84.7644429 Eh     change       -0.5133428E-06 Eh
 * total energy  :   -84.7644432 Eh     change       -0.2963414E-06 Eh
 * total energy  :   -84.7644433 Eh     change       -0.1075752E-06 Eh
 * total energy  :   -84.7644433 Eh     change       -0.6860766E-07 Eh
   *** GEOMETRY OPTIMIZATION CONVERGED AFTER 13 ITERATIONS ***

 final structure:
================
56
 xtb: 6.7.1 (edcfbbe)
C            0.82005178722532        2.95004118367020       -1.31959939750633
C            0.29957033581654        0.50685970818978        0.13382962329686
C           -1.71024040142590        1.35827407621611        2.25511505587096
C            1.27698439276102       -0.41860380010394        0.78089642774869
C            2.78610868170274        0.64061517526845       -0.32632222561366
C            3.95639013351369       -0.35353169293512       -0.44153330790956
C            3.38905195869041       -2.19401224097071        0.60630599574476
C            2.02033170261376       -2.69056315598778        0.92758733543988
C            0.98584986136536       -1.84148372118406        0.94975187856153
N           -0.34909277415230       -2.21631324626380        0.84523318703375
C           -1.19277481342684       -1.52130769930723       -0.02196091717705
C           -2.12431458586953       -2.15515039281961       -0.74081145877845
C           -3.25718390719739       -1.44322743158683       -1.38344227678648
C           -4.03198545963027        0.52730291011268       -0.81968721400270
C           -2.90764312862186        1.25785292411772       -0.05967605709571
C           -1.12032894679141       -0.01917561284515        0.01618543906762
O            1.96946482189163        3.67813707178430       -1.09125511060592
S            0.19635618219355        2.34603532113006        0.36362315952628
O            1.30923844442590        2.82025486952412        1.21919150252163
C            1.43989921529584        0.00076684478248       -0.70940710297790
C            2.59776134350457        0.22144623840366        1.14974861805653
C            3.77132397819402       -0.76062984620475        1.02792265273596
C            3.58370908673183       -1.77750159200621       -0.90635709590469
C            2.41691521187357       -1.86412279990434       -1.83838275414619
C            1.40578532396226       -1.00020105939523       -1.77723218118304
C           -2.19311426107177        0.49644486277055        1.08724933825822
C           -3.01194712758504       -0.61738030829683        1.67765582755938
C           -4.02618685756438       -1.20205514604301        1.05760195804619
C           -4.33652563184027       -0.90937336206838       -0.36070893713335
C           -3.00288688819666        0.00261829435373       -1.83711517155896
C           -1.88921310729948        0.74097748863794       -1.08520587918760
H            2.10276433023970        3.65183065780232       -0.11110461631477
H            0.01923130008707        3.58650965433297       -1.71232713258056
H            1.00372306330754        2.10212871114907       -1.98389502266570
H           -1.63792474672153        2.41072090456152        1.99932376496990
H           -2.41879864081102        1.27750552344409        3.07827505742628
H           -0.74056071828987        1.01946276260478        2.61420529543812
H            3.00602747898031        1.65075801328429       -0.65542520437961
H            4.88421353465133        0.05651928972709       -0.83148570592759
H            4.14189541737166       -2.92360396656931        0.90815405866075
H            1.86749145114714       -3.75800995530499        0.98138066671434
H           -0.49151102140167       -3.21892632623075        0.82658301420886
H           -2.17682276190473       -3.23505141603205       -0.71408542606465
H           -3.70924821617986       -2.05962741123594       -2.16076230495976
H           -4.88636563676337        1.13736491679753       -1.09948334977327
H           -3.06941341021604        2.31765451113165        0.11576715576290
H            2.60677998587059        0.91548146467590        1.98519450371560
H            4.55637383601597       -0.66267880631846        1.77246622582814
H            4.43745440181862       -2.29941826154182       -1.34199196434490
H            2.44614010171176       -2.62917418316600       -2.60069158549622
H            0.56094221896324       -1.04130301254767       -2.44891503225906
H           -2.76132259057330       -0.89865756590914        2.69035966274790
H           -4.60727778823048       -1.96740770069015        1.55161341986610
H           -5.34199785798770       -1.23475286263517       -0.62677282482604
H           -3.06732442728757        0.19704697086161       -2.90456183336795
H           -1.28259432288515        1.40884270917159       -1.69009092217892

          :  Hamiltonian                  GFN2-xTB          :
         :: gradient norm              0.000091505629 Eh/a0 ::
         :: HOMO-LUMO gap              3.023949359536 eV    ::
         :: SCC energy               -85.904601218054 Eh    ::
         :: -> dispersion             -0.087583707851 Eh    ::
         :: -> Gsolv                  -0.027132677741 Eh    ::
         :: repulsion energy           1.140157881855 Eh    ::

    * Orbital Energies and Occupations

         #    Occupation            Energy/Eh            Energy/eV
      -------------------------------------------------------------
         1        2.0000           -0.7639012             -20.7868
       ...           ...                  ...                  ...
        66        2.0000           -0.4294184             -11.6851
        67        2.0000           -0.4275219             -11.6335
        68        2.0000           -0.4137451             -11.2586
        69        2.0000           -0.4082877             -11.1101
        70        2.0000           -0.4052155             -11.0265
        71        2.0000           -0.4037831             -10.9875
        72        2.0000           -0.3987769             -10.8513
        73        2.0000           -0.3963778             -10.7860
        74        2.0000           -0.3904145             -10.6237
        75        2.0000           -0.3891560             -10.5895
        76        2.0000           -0.3859618             -10.5026
        77        2.0000           -0.3701327             -10.0718
        78        2.0000           -0.3452938              -9.3959 (HOMO)
        79                         -0.2341657              -6.3720 (LUMO)
        80                         -0.2106876              -5.7331
        81                         -0.2090770              -5.6893
        82                         -0.2019403              -5.4951
        83                         -0.1939825              -5.2785
        84                         -0.1854985              -5.0477
        85                         -0.1258121              -3.4235
        86                         -0.0986394              -2.6841
        87                         -0.0418073              -1.1376
        88                         -0.0337613              -0.9187
        89                         -0.0238652              -0.6494
       ...                                ...                  ...
       154                          0.8515960              23.1731
      -------------------------------------------------------------
                  HL-Gap            0.1111281 Eh            3.0239 eV

     #   Z          covCN         q      C6AA      α(0)
     1   6 C        3.659     0.056    19.906     6.402
     2   6 C        3.906    -0.015    20.787     6.481
     3   6 C        3.772    -0.120    22.831     6.809
     4   6 C        4.141     0.018    20.193     6.382
     5   6 C        4.219    -0.019    20.830     6.482
     6   6 C        4.180    -0.023    20.899     6.493
     7   6 C        4.003    -0.014    20.752     6.472
     8   6 C        2.908    -0.089    30.244     9.018
     9   6 C        2.896     0.060    26.664     8.466
    10   7 N        2.698    -0.182    24.950     7.419
    11   6 C        2.895     0.062    26.604     8.457
    12   6 C        2.900    -0.088    30.195     9.010
    13   6 C        4.005    -0.015    20.760     6.473
    14   6 C        4.181    -0.022    20.882     6.490
    15   6 C        4.161    -0.034    21.090     6.522
    16   6 C        4.092     0.005    20.415     6.418
    17   8 O        1.666    -0.459    22.033     6.337
    18  16 S        2.871     0.387   126.261    18.912
    19   8 O        0.859    -0.522    24.279     6.606
    20   6 C        4.076     0.000    20.497     6.431
    21   6 C        4.172    -0.016    20.765     6.472
    22   6 C        4.161    -0.027    20.961     6.502
    23   6 C        4.000    -0.022    20.885     6.492
    24   6 C        2.904    -0.038    28.941     8.821
    25   6 C        2.893    -0.046    29.132     8.849
    26   6 C        4.029     0.013    20.272     6.396
    27   6 C        2.904    -0.039    28.978     8.827
    28   6 C        2.891    -0.038    28.939     8.820
    29   6 C        4.010    -0.021    20.867     6.489
    30   6 C        4.173    -0.024    20.906     6.494
    31   6 C        4.167    -0.034    21.097     6.524
    32   1 H        0.802     0.328     0.642     1.259
    33   1 H        0.924     0.046     2.373     2.409
    34   1 H        0.924     0.053     2.286     2.364
    35   1 H        0.925     0.046     2.369     2.407
    36   1 H        0.925     0.060     2.202     2.321
    37   1 H        0.925     0.048     2.348     2.397
    38   1 H        0.925     0.038     2.470     2.458
    39   1 H        0.925     0.028     2.610     2.526
    40   1 H        0.924     0.035     2.523     2.484
    41   1 H        0.926     0.021     2.722     2.580
    42   1 H        0.860     0.161     1.328     1.805
    43   1 H        0.925     0.018     2.761     2.598
    44   1 H        0.925     0.036     2.506     2.475
    45   1 H        0.925     0.033     2.546     2.495
    46   1 H        0.925     0.035     2.520     2.483
    47   1 H        0.925     0.037     2.493     2.469
    48   1 H        0.925     0.028     2.609     2.526
    49   1 H        0.924     0.036     2.502     2.474
    50   1 H        0.926     0.032     2.560     2.502
    51   1 H        0.926     0.032     2.556     2.500
    52   1 H        0.926     0.035     2.511     2.478
    53   1 H        0.926     0.032     2.561     2.503
    54   1 H        0.925     0.037     2.489     2.467
    55   1 H        0.925     0.030     2.586     2.515
    56   1 H        0.925     0.021     2.718     2.578

molecular dipole:
                 x           y           z       tot (Debye)
 q only:       -1.386      -1.186      -0.316
   full:       -1.068      -1.486      -0.505       4.826

 projected vibrational frequencies (cm⁻¹)
eigval :       -0.00    -0.00    -0.00     0.00     0.00     0.00
eigval :       32.71    68.18    73.13    97.90   107.14   124.17
eigval :      131.69   163.21   171.45   188.31   207.40   211.73
eigval :      227.40   250.58   263.64   306.58   313.70   322.87
eigval :      343.32   358.59   372.52   381.06   400.02   421.47
eigval :      433.31   455.11   456.67   474.24   491.62   500.47
eigval :      511.46   514.57   520.64   541.18   570.28   587.80
eigval :      602.95   618.16   620.81   643.92   646.41   668.98
eigval :      691.09   701.10   727.76   740.26   745.93   752.42
eigval :      761.04   768.63   784.03   793.09   806.75   808.64
eigval :      816.40   833.68   839.86   854.52   868.12   877.27
eigval :      887.80   897.42   907.14   916.40   921.84   923.85
eigval :      934.45   951.02   957.87   965.64   969.74   975.76
eigval :      977.56   983.10  1016.32  1039.26  1047.44  1053.50
eigval :     1056.63  1086.44  1100.80  1104.05  1107.18  1115.43
eigval :     1116.61  1121.51  1125.57  1131.55  1138.31  1144.10
eigval :     1150.96  1153.89  1160.26  1161.13  1164.98  1166.94
eigval :     1170.35  1173.00  1177.44  1180.42  1187.18  1187.60
eigval :     1193.70  1203.05  1206.19  1213.78  1222.11  1228.56
eigval :     1231.22  1235.14  1237.03  1249.16  1252.46  1263.62
eigval :     1269.25  1273.38  1274.66  1277.90  1295.34  1305.07
eigval :     1308.32  1316.57  1319.58  1334.05  1336.62  1358.54
eigval :     1373.64  1379.99  1418.03  1428.57  1456.27  1483.87
eigval :     1512.12  1665.31  1677.04  1685.71  1707.74  2910.09
eigval :     2937.61  2954.74  2966.73  2967.31  2977.95  2989.70
eigval :     2994.33  2997.76  3003.63  3003.83  3012.37  3012.97
eigval :     3014.92  3026.65  3027.27  3038.26  3054.71  3055.15
eigval :     3058.46  3062.81  3074.49  3075.38  3077.67  3389.62

   temp. (K)  partition function   enthalpy   heat capacity  entropy
                                   cal/mol     cal/K/mol   cal/K/mol   J/K/mol
 298.15  VIB  0.549E+07            12260.404     92.063     70.071
         ROT  0.116E+08              888.752      2.981     35.314
         INT  0.639E+14            13149.156     95.044    105.384
         TR   0.855E+28             1481.254      4.968     44.029
         TOT                       14630.4103   100.0124   149.4132   625.1447

       T/K    H(0)-H(T)+PV         H(T)/Eh          T*S/Eh         G(T)/Eh
   ------------------------------------------------------------------------
    298.15    0.233150E-01    0.472466E+00    0.709910E-01    0.401475E+00
   ------------------------------------------------------------------------

         :::::::::::::::::::::::::::::::::::::::::::::::::::::
         ::                  THERMODYNAMIC                  ::
         :::::::::::::::::::::::::::::::::::::::::::::::::::::
         :: total free energy         -84.362968531833 Eh   ::
         ::.................................................::
         :: total energy              -84.764443334382 Eh   ::
         :: zero point energy           0.449150781987 Eh   ::
         :: G(RRHO) w/o ZPVE           -0.047675979438 Eh   ::
         :: G(RRHO) contrib.            0.401474802549 Eh   ::
         :::::::::::::::::::::::::::::::::::::::::::::::::::::

           -------------------------------------------------
          | TOTAL ENERGY              -84.764443334382 Eh   |
          | TOTAL ENTHALPY            -84.291977509490 Eh   |
          | TOTAL FREE ENERGY         -84.362968531833 Eh   |
          | GRADIENT NORM               0.000091351007 Eh/α |
          | HOMO-LUMO GAP               3.023949153836 eV   |
           -------------------------------------------------

 * finished run on 2025/07/16 at 09:18:54.756
