   * xtb version 6.7.1 (edcfbbe) compiled by 'albert@albert-system' on 2024-07-22

   ID    Z sym.   atoms
    1    6 C      1-9, 11-16, 20-31
    2    7 N      10
    3    8 O      17, 19
    4   16 S      18
    5    1 H      32-56

          program call               : xtb data2507/toluene/DMAC-DPS/DMAC-DPS_toluene_S0_finalOpt.xtbopt.xyz --gfn 2 --uhf 2 --gbsa toluene --ohess vtight --parallel 40 --molden --ceasefiles --namespace data2507/toluene/DMAC-DPS/DMAC-DPS_toluene_T1_preOpt
      * Solvation model:               GBSA
        Solvent                        toluene
        Solvent mass                       9.2140E+01 g/mol
          :  Hamiltonian                  GFN2-xTB          :
 * total energy  :   -84.6460799 Eh     change       -0.1830102E-08 Eh
 * total energy  :   -84.6665611 Eh     change       -0.2048118E-01 Eh
 * total energy  :   -84.6769800 Eh     change       -0.1041895E-01 Eh
 * total energy  :   -84.6807339 Eh     change       -0.3753896E-02 Eh
 * total energy  :   -84.6848805 Eh     change       -0.4146537E-02 Eh
 * total energy  :   -84.6894715 Eh     change       -0.4591006E-02 Eh
 * total energy  :   -84.6927584 Eh     change       -0.3286953E-02 Eh
 * total energy  :   -84.6893243 Eh     change        0.3434089E-02 Eh
 * total energy  :   -84.6949412 Eh     change       -0.5616877E-02 Eh
 * total energy  :   -84.6968148 Eh     change       -0.1873576E-02 Eh
 * total energy  :   -84.7005122 Eh     change       -0.1792679E-05 Eh
 * total energy  :   -84.7005138 Eh     change       -0.1620192E-05 Eh
 * total energy  :   -84.7005147 Eh     change       -0.9008164E-06 Eh
 * total energy  :   -84.7005147 Eh     change        0.2968422E-07 Eh
 * total energy  :   -84.7005153 Eh     change       -0.6103928E-06 Eh
 * total energy  :   -84.7005157 Eh     change       -0.3265664E-06 Eh
 * total energy  :   -84.7005157 Eh     change       -0.2411596E-08 Eh
 * total energy  :   -84.7005158 Eh     change       -0.1699281E-06 Eh
 * total energy  :   -84.7005159 Eh     change       -0.3817397E-07 Eh
   *** GEOMETRY OPTIMIZATION CONVERGED AFTER 33 ITERATIONS ***

 final structure:
================
56
 xtb: 6.7.1 (edcfbbe)
C            0.82599471081673        2.96499023496511       -1.31737419131271
C            0.35083940502871        0.45182546658581        0.11851020441526
C           -1.65006057776652        1.29192858737577        2.26696045451210
C            1.16160430410675       -0.33645188571797        1.11932331423049
C            2.70794618736742        0.59515807127951       -0.36527807292852
C            3.89470433575516       -0.37483173070848       -0.46736496456566
C            3.34886318063284       -2.17852520329145        0.66895433669107
C            2.02739854462892       -2.61849252340009        1.10717956079641
C            0.96580553574908       -1.71895473707624        1.05870539650574
N           -0.29322773080160       -2.21790646378295        0.74149315934430
C           -1.16407175535064       -1.52917083939796       -0.08125363087476
C           -2.09448145322600       -2.15492731796901       -0.81346719720229
C           -3.23035463228586       -1.42514188715022       -1.42739745005020
C           -3.99840305637439        0.53401987922172       -0.81121360752027
C           -2.86968854329746        1.24820383321832       -0.04204190287904
C           -1.08818527154425       -0.03298434563235       -0.00508619364237
O            1.98142832248582        3.67456709682803       -1.07334195946165
S            0.19025415259929        2.33479433125619        0.34893497739373
O            1.27898619302030        2.83471340633503        1.22363411592384
C            1.38257746520421        0.17046991588122       -0.95617166616512
C            2.54895491134599        0.23190630280206        1.13605863198446
C            3.73761619540330       -0.73666877553942        1.01664189750369
C            3.50470911129997       -1.78947111569343       -0.91434998203022
C            2.35097909721717       -1.86397068626949       -1.82730429215936
C            1.32261813859760       -0.96270534165027       -1.77922109750061
C           -2.14913292911054        0.46072085938160        1.08381861612676
C           -2.96585498060751       -0.66513530325352        1.65393637863807
C           -3.98188766298348       -1.23782874753997        1.02563642132608
C           -4.30120221288095       -0.91249487205508       -0.38341336595186
C           -2.97596400218851        0.03187324368645       -1.84637245540408
C           -1.85708560198979        0.75296936039449       -1.08456787903089
H            2.09576343743738        3.64834722561980       -0.08941867326616
H            0.03281840624138        3.61141393756771       -1.70896259462602
H            1.00542559499965        2.11001656448606       -1.98079862737907
H           -1.58671563888494        2.35166771879331        2.03969252093941
H           -2.34113412008398        1.18488832722901        3.10183371050513
H           -0.67069949880798        0.94701474589161        2.59499079126166
H            2.98100965046532        1.62228118730590       -0.60188260299127
H            4.81018525737112        0.03469929843031       -0.88746559416777
H            4.12036164168215       -2.90412077919002        0.92588142444015
H            1.81390283914595       -3.67826992294562        1.09676047842412
H           -0.35295766941884       -3.22567641730060        0.67819856833940
H           -2.13674539246252       -3.23522759697007       -0.82074890871144
H           -3.69187709593816       -2.01971633181493       -2.21609666365784
H           -4.85435228944952        1.14999583761538       -1.07269515509285
H           -3.02992455559970        2.30400161750705        0.15770055137521
H            2.68031973250753        1.03352304015261        1.86131242921739
H            4.53131410212223       -0.60964911706558        1.74852917729544
H            4.34498167604863       -2.35730973961936       -1.31448575075278
H            2.27086385613021       -2.72932729312058       -2.46864471863491
H            0.40804875899692       -1.16355351382234       -2.32359224427760
H           -2.71127503554050       -0.96781007916248        2.65959099138741
H           -4.56009130293678       -2.01449357270611        1.50530072816302
H           -5.30881537716019       -1.23079170629911       -0.64998667303352
H           -3.04662090495589        0.25155231441478       -2.90852277361371
H           -1.25229674194646        1.43029745372430       -1.68009116915309

          :  Hamiltonian                  GFN2-xTB          :
         :: gradient norm              0.000185067729 Eh/a0 ::
         :: HOMO-LUMO gap              2.543757781439 eV    ::
         :: SCC energy               -85.830493240833 Eh    ::
         :: -> dispersion             -0.090244458535 Eh    ::
         :: -> Gsolv                  -0.026872207077 Eh    ::
         :: repulsion energy           1.129977366377 Eh    ::

    * Orbital Energies and Occupations

         #    Occupation            Energy/Eh            Energy/eV
      -------------------------------------------------------------
         1        2.0000           -0.7592225             -20.6595
       ...           ...                  ...                  ...
        67        2.0000           -0.4222879             -11.4910
        68        2.0000           -0.4206030             -11.4452
        69        2.0000           -0.4123261             -11.2200
        70        2.0000           -0.4047443             -11.0137
        71        2.0000           -0.4025957             -10.9552
        72        2.0000           -0.3970427             -10.8041
        73        2.0000           -0.3931105             -10.6971
        74        2.0000           -0.3914597             -10.6522
        75        2.0000           -0.3889009             -10.5825
        76        2.0000           -0.3815068             -10.3813
        77        2.0000           -0.3535303              -9.6200
        78        1.0000           -0.3272523              -8.9050
        79        1.0000           -0.3065594              -8.3419 (HOMO)
        80                         -0.2130778              -5.7981 (LUMO)
        81                         -0.2072829              -5.6405
        82                         -0.2028545              -5.5200
        83                         -0.1959139              -5.3311
        84                         -0.1887073              -5.1350
        85                         -0.1719236              -4.6783
        86                         -0.1214287              -3.3042
        87                         -0.0440085              -1.1975
        88                         -0.0321532              -0.8749
        89                         -0.0229238              -0.6238
        90                         -0.0159852              -0.4350
       ...                                ...                  ...
       154                          0.8470853              23.0504
      -------------------------------------------------------------
                  HL-Gap            0.0934817 Eh            2.5438 eV

     #   Z          covCN         q      C6AA      α(0)
     1   6 C        3.659     0.058    19.878     6.398
     2   6 C        3.926     0.002    20.490     6.433
     3   6 C        3.772    -0.119    22.819     6.807
     4   6 C        3.204    -0.033    28.211     8.652
     5   6 C        4.071    -0.018    20.810     6.480
     6   6 C        4.158    -0.020    20.846     6.485
     7   6 C        3.981    -0.013    20.736     6.470
     8   6 C        2.904    -0.070    29.754     8.944
     9   6 C        2.902     0.066    26.523     8.444
    10   7 N        2.704    -0.162    24.502     7.352
    11   6 C        2.894     0.065    26.532     8.445
    12   6 C        2.900    -0.087    30.173     9.007
    13   6 C        4.003    -0.014    20.753     6.472
    14   6 C        4.179    -0.022    20.882     6.490
    15   6 C        4.164    -0.034    21.085     6.522
    16   6 C        4.105     0.003    20.447     6.423
    17   8 O        1.666    -0.458    22.000     6.332
    18  16 S        2.889     0.378   126.604    18.938
    19   8 O        0.859    -0.518    24.197     6.595
    20   6 C        3.201    -0.034    28.252     8.661
    21   6 C        4.047    -0.014    20.743     6.469
    22   6 C        4.147    -0.024    20.917     6.496
    23   6 C        3.966    -0.018    20.830     6.485
    24   6 C        2.900    -0.052    29.288     8.873
    25   6 C        2.895    -0.042    29.053     8.837
    26   6 C        4.030     0.013    20.274     6.396
    27   6 C        2.904    -0.040    28.982     8.827
    28   6 C        2.891    -0.038    28.948     8.821
    29   6 C        4.011    -0.020    20.861     6.488
    30   6 C        4.173    -0.023    20.904     6.494
    31   6 C        4.168    -0.034    21.091     6.523
    32   1 H        0.802     0.329     0.640     1.257
    33   1 H        0.924     0.044     2.402     2.424
    34   1 H        0.924     0.053     2.281     2.362
    35   1 H        0.925     0.046     2.376     2.410
    36   1 H        0.925     0.058     2.218     2.329
    37   1 H        0.925     0.050     2.326     2.385
    38   1 H        0.925     0.043     2.408     2.427
    39   1 H        0.925     0.026     2.647     2.544
    40   1 H        0.925     0.042     2.422     2.434
    41   1 H        0.926     0.028     2.618     2.530
    42   1 H        0.860     0.165     1.302     1.787
    43   1 H        0.926     0.020     2.730     2.584
    44   1 H        0.924     0.037     2.496     2.471
    45   1 H        0.925     0.033     2.546     2.495
    46   1 H        0.925     0.034     2.532     2.489
    47   1 H        0.925     0.043     2.406     2.426
    48   1 H        0.925     0.028     2.615     2.529
    49   1 H        0.924     0.039     2.456     2.451
    50   1 H        0.926     0.024     2.676     2.558
    51   1 H        0.925     0.028     2.620     2.531
    52   1 H        0.926     0.035     2.519     2.482
    53   1 H        0.926     0.032     2.560     2.502
    54   1 H        0.925     0.038     2.482     2.464
    55   1 H        0.925     0.030     2.586     2.515
    56   1 H        0.925     0.021     2.716     2.577

molecular dipole:
                 x           y           z       tot (Debye)
 q only:       -1.344      -1.447      -0.166
   full:       -1.008      -1.807      -0.392       5.353

 projected vibrational frequencies (cm⁻¹)
eigval :       -0.00    -0.00     0.00     0.00     0.00     0.00
eigval :       40.15    66.79    75.21    98.59   112.30   126.90
eigval :      131.69   157.01   171.13   179.70   202.91   216.69
eigval :      233.04   259.03   264.69   286.67   318.00   327.02
eigval :      338.54   353.59   364.93   374.60   384.38   422.44
eigval :      429.80   444.43   458.55   477.91   481.14   494.43
eigval :      501.64   505.83   518.14   522.65   540.79   577.79
eigval :      589.46   603.60   617.33   620.18   634.48   644.92
eigval :      664.48   665.62   681.65   689.16   717.21   728.15
eigval :      742.56   754.33   761.04   772.26   784.45   791.67
eigval :      803.64   820.83   832.32   834.73   842.66   864.83
eigval :      875.64   899.30   913.00   914.55   918.25   923.66
eigval :      928.98   938.35   952.98   959.37   965.42   974.90
eigval :      985.26   991.99   997.51  1021.67  1041.58  1042.48
eigval :     1052.98  1064.96  1079.21  1094.53  1101.95  1107.09
eigval :     1109.73  1121.24  1124.41  1126.26  1130.96  1145.55
eigval :     1152.60  1155.33  1157.25  1159.81  1160.76  1165.08
eigval :     1172.27  1174.17  1179.49  1180.74  1186.98  1188.72
eigval :     1193.74  1195.18  1201.97  1207.37  1216.54  1229.74
eigval :     1232.85  1236.66  1239.17  1248.14  1255.15  1259.12
eigval :     1264.42  1275.43  1278.88  1281.06  1298.47  1301.66
eigval :     1305.32  1308.96  1319.77  1324.60  1345.69  1360.05
eigval :     1372.53  1407.64  1412.16  1434.13  1444.10  1445.95
eigval :     1481.25  1486.77  1511.72  1663.38  1707.61  2862.15
eigval :     2911.25  2962.12  2967.05  2973.28  2977.84  2979.15
eigval :     2986.18  2990.20  2990.44  2997.15  3000.61  3004.45
eigval :     3009.38  3012.00  3016.25  3018.57  3037.60  3052.44
eigval :     3057.55  3058.28  3058.81  3071.31  3073.57  3402.42

   temp. (K)  partition function   enthalpy   heat capacity  entropy
                                   cal/mol     cal/K/mol   cal/K/mol   J/K/mol
 298.15  VIB  0.527E+07            12457.736     93.725     71.037
         ROT  0.114E+08              888.752      2.981     35.275
         INT  0.601E+14            13346.489     96.706    106.312
         TR   0.855E+28             1481.254      4.968     44.029
         TOT                       14827.7424   101.6739   150.3411   629.0272

       T/K    H(0)-H(T)+PV         H(T)/Eh          T*S/Eh         G(T)/Eh
   ------------------------------------------------------------------------
    298.15    0.236295E-01    0.469410E+00    0.714319E-01    0.397978E+00
   ------------------------------------------------------------------------

         :::::::::::::::::::::::::::::::::::::::::::::::::::::
         ::                  THERMODYNAMIC                  ::
         :::::::::::::::::::::::::::::::::::::::::::::::::::::
         :: total free energy         -84.302538165209 Eh   ::
         ::.................................................::
         :: total energy              -84.700515875561 Eh   ::
         :: zero point energy           0.445780107487 Eh   ::
         :: G(RRHO) w/o ZPVE           -0.047802397135 Eh   ::
         :: G(RRHO) contrib.            0.397977710352 Eh   ::
         :::::::::::::::::::::::::::::::::::::::::::::::::::::

           -------------------------------------------------
          | TOTAL ENERGY              -84.700515875561 Eh   |
          | TOTAL ENTHALPY            -84.231106256401 Eh   |
          | TOTAL FREE ENERGY         -84.302538165209 Eh   |
          | GRADIENT NORM               0.000185008676 Eh/α |
          | HOMO-LUMO GAP               2.543765869345 eV   |
           -------------------------------------------------

 * finished run on 2025/07/16 at 09:18:58.373
