   * xtb version 6.7.1 (edcfbbe) compiled by 'albert@albert-system' on 2024-07-22

   ID    Z sym.   atoms
    1    7 N      1, 5, 19, 41, 43, 57
    2    6 C      2-4, 6-18, 20-35, 37-40, 42, 44-56, 58-73, 75, 76
    3   16 S      36, 74
    4    1 H      77-112

          program call               : xtb data2507/gas/12BTCzTPN/12BTCzTPN_gas_S0_crest.xyz --gfn 2 --ohess vtight --parallel 40 --molden --ceasefiles --namespace data2507/gas/12BTCzTPN/12BTCzTPN_gas_S0_finalOpt
          :  Hamiltonian                  GFN2-xTB          :
 * total energy  :  -188.1688087 Eh     change       -0.1541679E-08 Eh
 * total energy  :  -188.1688097 Eh     change       -0.1037912E-05 Eh
 * total energy  :  -188.1688108 Eh     change       -0.1055995E-05 Eh
 * total energy  :  -188.1688123 Eh     change       -0.1529008E-05 Eh
 * total energy  :  -188.1688133 Eh     change       -0.9873824E-06 Eh
 * total energy  :  -188.1688140 Eh     change       -0.7448800E-06 Eh
 * total energy  :  -188.1688150 Eh     change       -0.9974728E-06 Eh
 * total energy  :  -188.1688163 Eh     change       -0.1296030E-05 Eh
 * total energy  :  -188.1688173 Eh     change       -0.1038997E-05 Eh
 * total energy  :  -188.1688181 Eh     change       -0.7230588E-06 Eh
 * total energy  :  -188.1688187 Eh     change       -0.5958919E-06 Eh
 * total energy  :  -188.1688194 Eh     change       -0.7002192E-06 Eh
 * total energy  :  -188.1688198 Eh     change       -0.4336626E-06 Eh
 * total energy  :  -188.1688200 Eh     change       -0.1659772E-06 Eh
 * total energy  :  -188.1688200 Eh     change       -0.1877243E-07 Eh
 * total energy  :  -188.1688201 Eh     change       -0.9842671E-07 Eh
   *** GEOMETRY OPTIMIZATION CONVERGED AFTER 16 ITERATIONS ***

 final structure:
================
112
 xtb: 6.7.1 (edcfbbe)
N            0.39207801106725       -1.92207886219666       -3.43201557363017
C            0.31634670146239       -1.41412840650536       -2.40790513894557
C            0.18930605828859       -0.75505959631785       -1.16154669385964
C            1.20906177323147        0.10564409727283       -0.72784018350321
N            2.38562363210755        0.23032028122519       -1.46447719656633
C            2.97223653336852        1.44573761404018       -1.78931657691599
C            2.38276512824329        2.69560464049163       -1.87590989504402
C            3.18563241353060        3.75886121097994       -2.24502585060070
C            4.53317023262255        3.57799212670915       -2.53999970700769
C            5.10591383300419        2.32063353073458       -2.51945600712562
C            4.31725388368072        1.23891733076731       -2.15631162225359
C            4.54654964759373       -0.17867260873767       -2.08098277841330
C            5.66440431029338       -0.97034671857187       -2.30320190213960
C            5.55023225833084       -2.33715600162201       -2.14625304955753
C            4.33878454743534       -2.91378601621535       -1.77929322236672
C            3.21591755950851       -2.14318330326882       -1.54182250378039
C            3.32754990431543       -0.77047779184772       -1.68658079843348
C            1.00209414342236        0.85323657256124        0.44700157136393
N            1.99729711756114        1.70251016168343        0.93884476506627
C            1.95300779412460        3.08920222909965        0.96891450113856
C            0.86414834233831        3.93589199740558        0.85110355821559
C            1.10133551874717        5.29678951117363        0.89062630969688
C            2.39014910819437        5.80402928025122        1.03243063097054
C            3.48010650540727        4.96282764233367        1.13263900008292
C            3.26671231458042        3.59142188273469        1.10110854027366
C            4.14665910633031        2.45697436430977        1.15321716491195
C            5.53032612625398        2.30906107372117        1.23536619522058
C            6.07276798331377        1.04398735419331        1.25837177212872
C            5.24958644867265       -0.08778694962682        1.28109131626778
C            5.62809485563520       -1.47304044067573        1.38184158895346
C            6.90032617396434       -2.03687888882624        1.37591661175294
C            7.04128808315149       -3.40617299470237        1.46540447168927
C            5.92679445348187       -4.23203733185702        1.56970576101219
C            4.65299952130092       -3.69752921550649        1.58134195599864
C            4.51589160117574       -2.32464083628546        1.48230933752690
S            2.99749862837678       -1.45617982742434        1.44208364569769
C            3.85541152520034        0.05594659243498        1.23369585666849
C            3.31651641812637        1.32079461114567        1.08023152054820
C           -0.19850614008694        0.71604888101607        1.15546129543412
C           -0.32039488077977        1.37597297438196        2.40183030052040
N           -0.38891352481883        1.88424763766072        3.42629011332406
C           -1.21620003159292       -0.14755757705421        0.72439082014804
N           -2.38693449032912       -0.28919588689209        1.46704285643327
C           -2.95959034273441       -1.51623259799565        1.77409175844802
C           -2.35717138218836       -2.76150428131108        1.83374392590876
C           -3.14637965341064       -3.83944261518459        2.18950609683950
C           -4.49362659175347       -3.67770705486719        2.49656117934319
C           -5.07936797428337       -2.42619599387642        2.50153624138043
C           -4.30422437247956       -1.33009925573719        2.15244812199081
C           -4.54853928441006        0.08608175208169        2.10274636827473
C           -5.67350830473996        0.86118346908267        2.34575647505046
C           -5.57522188252342        2.23178759424882        2.21253524372333
C           -4.37194306881951        2.82797227001527        1.85044097783552
C           -3.24191709158603        2.07413319260861        1.59343903992665
C           -3.33807713562006        0.69776753601662        1.71182893780010
C           -1.01463600485099       -0.88522188486281       -0.45854514642758
N           -2.02620877280188       -1.70673441531952       -0.96397738198668
C           -2.02014373619563       -3.09322006920521       -1.02104164349859
C           -0.95482970672806       -3.97213519351722       -0.92676624429635
C           -1.23003986096324       -5.32482475835489       -0.99263848346641
C           -2.53302139515278       -5.79325976544335       -1.13789551473771
C           -3.59943068049807       -4.92024317506340       -1.21682396056621
C           -3.34769405228691       -3.55629717248596       -1.15898311972002
C           -4.19625118011481       -2.39733012298132       -1.18874646060468
C           -5.57522489216966       -2.20930727867780       -1.26830220804498
C           -6.08209114780480       -0.92931480654508       -1.27106160507023
C           -5.22771563762165        0.17930252868498       -1.27437980311098
C           -5.56751865072375        1.57600472782824       -1.35317760069169
C           -6.82368337016577        2.17471581334324       -1.34211134414879
C           -6.92638749651098        3.54869187234190       -1.40960925654760
C           -5.78916084347884        4.34505812922139       -1.49647413870280
C           -4.53054433084008        3.77573691829126       -1.51286879220267
C           -4.43196999416378        2.39811728823394       -1.43638639519949
S           -2.93821336921031        1.48721825592149       -1.40582760181721
C           -3.83822375321018       -0.00426568502669       -1.22706407083148
C           -3.33486980082014       -1.28629066869030       -1.09658663320434
H            1.33048979055603        2.83600491720129       -1.67827120809748
H            2.75485355054319        4.74669803243533       -2.30617190369529
H            5.13120087152914        4.43383253338762       -2.81446778548968
H            6.14067706510743        2.17669794890306       -2.78979399842791
H            6.60178081997213       -0.51907471468095       -2.59009665842068
H            6.40814663608945       -2.97131813330590       -2.31057641306932
H            4.27342962799219       -3.98577548681237       -1.67079237670024
H            2.28971992761141       -2.60863022255356       -1.24344529876960
H           -0.13792943974221        3.55335540029411        0.72665902749128
H            0.26930644353851        5.97986316873864        0.80821110791317
H            2.53480347654683        6.87358867151195        1.05954042308940
H            4.47985577679171        5.35677771948222        1.23098294349217
H            6.16457227240458        3.18066335182346        1.27232065440693
H            7.14282853101886        0.91201405691665        1.29425397508351
H            7.76749662946131       -1.39965056118366        1.29428481006085
H            8.02790837443347       -3.84457198945906        1.45463002238755
H            6.05678008059583       -5.30141601608824        1.63994456931955
H            3.78197561107837       -4.32961379399319        1.66052391280618
H           -1.30490302265796       -2.88747496073680        1.62631021091923
H           -2.70525971237612       -4.82375064836121        2.22995109350297
H           -5.08098171660048       -4.54442143487225        2.75968316700207
H           -6.11383987548232       -2.29780076992427        2.78066155605826
H           -6.60389530517002        0.39443975682789        2.63068695241612
H           -6.43887325698684        2.85358062355054        2.39331317786401
H           -4.31830189335903        3.90242361067666        1.76162718342691
H           -2.32184205845925        2.55613315498837        1.30304643709573
H            0.05839156957535       -3.62050688957505       -0.80241291931651
H           -0.41683720371663       -6.03211789620248       -0.92900539561145
H           -2.70755196893885       -6.85760746611046       -1.18584898227777
H           -4.61008676445461       -5.28408255322227       -1.31960375592211
H           -6.23363015870978       -3.06205874623304       -1.31977655176641
H           -7.14799802904234       -0.76690167057510       -1.30548222567682
H           -7.70842725360439        1.56053699683661       -1.27368922612169
H           -7.90053745519128        4.01401822247077       -1.39492631679986
H           -5.88926312671312        5.41865193866173       -1.54925354909345
H           -3.64208415381284        4.38474677051912       -1.57854775012641

          :  Hamiltonian                  GFN2-xTB          :
         :: gradient norm              0.000054516528 Eh/a0 ::
         :: HOMO-LUMO gap              1.649691536940 eV    ::
         :: SCC energy              -191.692705033343 Eh    ::
         :: -> dispersion             -0.237372968241 Eh    ::
         :: repulsion energy           3.523884950409 Eh    ::

    * Orbital Energies and Occupations

         #    Occupation            Energy/Eh            Energy/eV
      -------------------------------------------------------------
         1        2.0000           -0.7343848             -19.9836
       ...           ...                  ...                  ...
       163        2.0000           -0.4142550             -11.2725
       164        2.0000           -0.4115887             -11.1999
       165        2.0000           -0.4115217             -11.1981
       166        2.0000           -0.3939241             -10.7192
       167        2.0000           -0.3919120             -10.6645
       168        2.0000           -0.3892437             -10.5919
       169        2.0000           -0.3886495             -10.5757
       170        2.0000           -0.3813852             -10.3780
       171        2.0000           -0.3795530             -10.3282
       172        2.0000           -0.3781837             -10.2909
       173        2.0000           -0.3723439             -10.1320
       174        2.0000           -0.3716142             -10.1121
       175        2.0000           -0.3692211             -10.0470 (HOMO)
       176                         -0.3085961              -8.3973 (LUMO)
       177                         -0.2780930              -7.5673
       178                         -0.2684538              -7.3050
       179                         -0.2657350              -7.2310
       180                         -0.2529490              -6.8831
       181                         -0.2512603              -6.8371
       182                         -0.2423684              -6.5952
       183                         -0.2408230              -6.5531
       184                         -0.2350027              -6.3947
       185                         -0.2347193              -6.3870
       186                         -0.2341340              -6.3711
       ...                                ...                  ...
       350                          1.1630238              31.6475
      -------------------------------------------------------------
                  HL-Gap            0.0606250 Eh            1.6497 eV

     #   Z          covCN         q      C6AA      α(0)
     1   7 N        0.911    -0.216    25.704     7.333
     2   6 C        1.914     0.125    28.030     8.550
     3   6 C        2.974    -0.004    28.110     8.697
     4   6 C        2.915     0.062    26.608     8.459
     5   7 N        2.797    -0.050    22.212     7.000
     6   6 C        3.076     0.049    26.820     8.491
     7   6 C        2.911    -0.046    29.131     8.850
     8   6 C        2.925    -0.030    28.757     8.794
     9   6 C        2.921    -0.037    28.915     8.818
    10   6 C        2.914    -0.031    28.780     8.797
    11   6 C        3.063    -0.013    28.283     8.721
    12   6 C        3.069    -0.013    28.263     8.717
    13   6 C        2.914    -0.031    28.769     8.795
    14   6 C        2.920    -0.037    28.913     8.818
    15   6 C        2.925    -0.029    28.723     8.789
    16   6 C        2.911    -0.039    28.979     8.827
    17   6 C        3.066     0.052    26.762     8.483
    18   6 C        2.922     0.060    26.646     8.465
    19   7 N        2.798    -0.048    22.173     6.994
    20   6 C        3.076     0.053    26.729     8.476
    21   6 C        2.910    -0.042    29.040     8.836
    22   6 C        2.925    -0.029    28.717     8.788
    23   6 C        2.920    -0.036    28.903     8.816
    24   6 C        2.913    -0.029    28.735     8.790
    25   6 C        3.076    -0.011    28.205     8.707
    26   6 C        3.061    -0.016    28.339     8.730
    27   6 C        2.912    -0.036    28.896     8.815
    28   6 C        2.918    -0.041    29.022     8.834
    29   6 C        3.100    -0.005    28.025     8.675
    30   6 C        3.110    -0.000    27.888     8.652
    31   6 C        2.918    -0.031    28.776     8.797
    32   6 C        2.919    -0.033    28.823     8.804
    33   6 C        2.924    -0.030    28.747     8.793
    34   6 C        2.937    -0.037    28.916     8.819
    35   6 C        3.005     0.042    27.038     8.530
    36  16 S        2.203    -0.122   146.176    20.349
    37   6 C        2.997     0.019    27.578     8.614
    38   6 C        3.103     0.044    26.874     8.495
    39   6 C        2.974    -0.004    28.108     8.696
    40   6 C        1.914     0.125    28.029     8.550
    41   7 N        0.911    -0.216    25.706     7.333
    42   6 C        2.915     0.062    26.607     8.459
    43   7 N        2.797    -0.050    22.214     7.000
    44   6 C        3.076     0.049    26.820     8.491
    45   6 C        2.911    -0.045    29.129     8.850
    46   6 C        2.925    -0.030    28.758     8.794
    47   6 C        2.921    -0.037    28.914     8.818
    48   6 C        2.914    -0.031    28.780     8.797
    49   6 C        3.063    -0.013    28.281     8.721
    50   6 C        3.070    -0.013    28.265     8.717
    51   6 C        2.914    -0.031    28.771     8.796
    52   6 C        2.920    -0.037    28.912     8.818
    53   6 C        2.925    -0.029    28.723     8.789
    54   6 C        2.911    -0.040    28.983     8.828
    55   6 C        3.065     0.052    26.765     8.484
    56   6 C        2.922     0.060    26.649     8.466
    57   7 N        2.798    -0.049    22.177     6.994
    58   6 C        3.075     0.053    26.729     8.477
    59   6 C        2.910    -0.042    29.035     8.836
    60   6 C        2.925    -0.029    28.716     8.788
    61   6 C        2.920    -0.036    28.901     8.816
    62   6 C        2.913    -0.029    28.736     8.790
    63   6 C        3.076    -0.011    28.208     8.708
    64   6 C        3.061    -0.016    28.338     8.730
    65   6 C        2.912    -0.036    28.896     8.815
    66   6 C        2.918    -0.041    29.021     8.834
    67   6 C        3.100    -0.005    28.025     8.675
    68   6 C        3.110    -0.000    27.888     8.652
    69   6 C        2.918    -0.031    28.775     8.797
    70   6 C        2.919    -0.033    28.821     8.804
    71   6 C        2.924    -0.030    28.747     8.793
    72   6 C        2.937    -0.037    28.915     8.819
    73   6 C        3.005     0.042    27.036     8.529
    74  16 S        2.203    -0.123   146.212    20.351
    75   6 C        2.997     0.019    27.580     8.615
    76   6 C        3.104     0.044    26.875     8.495
    77   1 H        0.926     0.023     2.685     2.562
    78   1 H        0.926     0.033     2.544     2.494
    79   1 H        0.926     0.034     2.533     2.489
    80   1 H        0.926     0.035     2.511     2.478
    81   1 H        0.926     0.035     2.522     2.484
    82   1 H        0.926     0.032     2.561     2.502
    83   1 H        0.926     0.033     2.539     2.492
    84   1 H        0.926     0.026     2.646     2.544
    85   1 H        0.926     0.023     2.687     2.563
    86   1 H        0.926     0.037     2.492     2.469
    87   1 H        0.926     0.036     2.507     2.476
    88   1 H        0.926     0.037     2.487     2.466
    89   1 H        0.926     0.040     2.450     2.448
    90   1 H        0.926     0.039     2.463     2.454
    91   1 H        0.926     0.038     2.473     2.459
    92   1 H        0.926     0.037     2.491     2.468
    93   1 H        0.926     0.038     2.472     2.459
    94   1 H        0.926     0.039     2.465     2.455
    95   1 H        0.926     0.023     2.688     2.564
    96   1 H        0.926     0.033     2.543     2.494
    97   1 H        0.926     0.034     2.532     2.488
    98   1 H        0.926     0.035     2.510     2.477
    99   1 H        0.926     0.035     2.521     2.483
   100   1 H        0.926     0.032     2.559     2.502
   101   1 H        0.926     0.033     2.540     2.492
   102   1 H        0.926     0.027     2.633     2.538
   103   1 H        0.926     0.023     2.681     2.561
   104   1 H        0.926     0.037     2.487     2.466
   105   1 H        0.926     0.036     2.506     2.476
   106   1 H        0.926     0.037     2.487     2.466
   107   1 H        0.926     0.040     2.450     2.447
   108   1 H        0.926     0.039     2.463     2.454
   109   1 H        0.926     0.038     2.473     2.459
   110   1 H        0.926     0.037     2.490     2.468
   111   1 H        0.926     0.038     2.471     2.458
   112   1 H        0.926     0.039     2.465     2.455

molecular dipole:
                 x           y           z       tot (Debye)
 q only:       -0.017       0.003      -0.003
   full:       -0.023       0.005      -0.006       0.062

 projected vibrational frequencies (cm⁻¹)
eigval :       -0.00    -0.00     0.00     0.00     0.00     0.00
eigval :        6.95    13.73    14.45    18.63    29.92    35.86
eigval :       39.59    40.12    45.12    48.27    52.38    58.51
eigval :       58.74    67.05    70.86    88.31    90.78    95.22
eigval :       95.76   105.67   109.89   113.61   114.23   118.82
eigval :      121.83   127.76   128.71   137.59   139.74   145.89
eigval :      146.04   152.32   174.37   175.80   196.71   196.83
eigval :      202.64   222.01   222.09   224.60   235.37   246.87
eigval :      249.80   257.82   259.13   267.76   274.24   281.06
eigval :      281.43   286.35   298.81   305.95   322.11   322.80
eigval :      350.20   364.39   378.05   395.05   396.17   398.60
eigval :      401.25   403.29   403.76   405.52   406.04   411.75
eigval :      423.62   424.00   425.80   428.65   436.99   440.49
eigval :      442.94   446.96   463.06   463.65   478.76   479.14
eigval :      482.89   483.64   492.97   493.80   511.12   511.76
eigval :      519.39   519.92   531.81   534.80   538.95   541.67
eigval :      542.63   542.82   544.28   547.95   551.70   555.59
eigval :      571.84   578.72   588.04   589.96   591.48   595.95
eigval :      599.00   601.44   617.46   618.86   638.28   640.74
eigval :      660.37   661.03   661.70   662.68   664.53   674.10
eigval :      675.27   682.70   682.76   691.01   693.24   701.71
eigval :      702.40   704.55   706.65   707.59   713.33   723.23
eigval :      747.41   753.19   755.80   767.43   767.69   769.40
eigval :      770.78   771.67   772.94   772.97   781.82   781.90
eigval :      791.09   806.09   818.23   818.30   832.79   833.34
eigval :      863.11   863.71   868.72   869.34   869.60   870.37
eigval :      870.70   878.22   878.37   892.14   893.93   894.05
eigval :      897.49   899.61   899.88   901.66   901.89   905.23
eigval :      905.27   906.19   906.33   918.78   919.47   919.77
eigval :      921.28   921.42   922.31   922.37   922.52   924.13
eigval :      924.29   971.66  1008.23  1012.92  1014.25  1027.10
eigval :     1039.80  1048.89  1050.50  1070.27  1070.68  1071.24
eigval :     1071.87  1072.32  1076.03  1077.56  1077.60  1078.19
eigval :     1083.30  1122.08  1122.37  1125.00  1144.11  1145.27
eigval :     1150.33  1150.54  1152.73  1153.03  1162.85  1163.23
eigval :     1163.59  1177.91  1179.29  1179.82  1179.99  1180.44
eigval :     1181.69  1182.87  1184.41  1195.93  1217.69  1223.06
eigval :     1227.20  1227.46  1232.90  1233.17  1237.32  1242.20
eigval :     1248.22  1258.67  1269.66  1273.10  1288.65  1291.60
eigval :     1291.97  1292.38  1293.27  1298.80  1303.51  1316.95
eigval :     1324.10  1340.93  1341.08  1349.46  1352.23  1358.44
eigval :     1358.58  1359.29  1359.49  1361.36  1361.79  1379.30
eigval :     1379.62  1393.40  1395.12  1401.79  1407.70  1413.88
eigval :     1415.61  1417.04  1419.27  1423.78  1427.34  1428.03
eigval :     1442.30  1448.74  1456.35  1458.09  1461.79  1461.90
eigval :     1471.54  1472.90  1480.73  1481.10  1485.87  1486.59
eigval :     1489.31  1512.47  1558.55  1558.72  1570.41  1570.43
eigval :     1578.93  1579.08  1584.69  1584.89  1589.25  1589.65
eigval :     1593.29  1593.69  1596.60  1596.93  1601.05  1601.11
eigval :     1609.23  1609.86  1614.03  1614.80  2369.71  2369.94
eigval :     3078.33  3079.34  3079.87  3080.32  3082.13  3082.22
eigval :     3083.44  3083.48  3084.30  3084.57  3084.61  3084.70
eigval :     3087.95  3087.97  3088.82  3089.32  3092.40  3092.58
eigval :     3093.39  3093.55  3093.75  3093.88  3095.33  3095.56
eigval :     3096.90  3097.31  3100.41  3100.55  3100.88  3101.01
eigval :     3101.18  3101.26  3103.10  3103.68  3105.38  3105.47

   temp. (K)  partition function   enthalpy   heat capacity  entropy
                                   cal/mol     cal/K/mol   cal/K/mol   J/K/mol
 298.15  VIB  0.246E+26            34519.519    221.188    212.905
         ROT  0.159E+09              888.752      2.981     40.514
         INT  0.393E+34            35408.271    224.169    253.418
         TR   0.306E+29             1481.254      4.968     46.564
         TOT                       36889.5253   229.1374   299.9823  1255.1259

       T/K    H(0)-H(T)+PV         H(T)/Eh          T*S/Eh         G(T)/Eh
   ------------------------------------------------------------------------
    298.15    0.587872E-01    0.877625E+00    0.142531E+00    0.735093E+00
   ------------------------------------------------------------------------

         :::::::::::::::::::::::::::::::::::::::::::::::::::::
         ::                  THERMODYNAMIC                  ::
         :::::::::::::::::::::::::::::::::::::::::::::::::::::
         :: total free energy        -187.433726680572 Eh   ::
         ::.................................................::
         :: total energy             -188.168820082932 Eh   ::
         :: zero point energy           0.818837463346 Eh   ::
         :: G(RRHO) w/o ZPVE           -0.083744060986 Eh   ::
         :: G(RRHO) contrib.            0.735093402360 Eh   ::
         :::::::::::::::::::::::::::::::::::::::::::::::::::::

           -------------------------------------------------
          | TOTAL ENERGY             -188.168820082932 Eh   |
          | TOTAL ENTHALPY           -187.291195419103 Eh   |
          | TOTAL FREE ENERGY        -187.433726680572 Eh   |
          | GRADIENT NORM               0.000054468752 Eh/α |
          | HOMO-LUMO GAP               1.649690083341 eV   |
           -------------------------------------------------

 * finished run on 2025/07/17 at 17:08:08.414
