   * xtb version 6.7.1 (edcfbbe) compiled by 'albert@albert-system' on 2024-07-22

   ID    Z sym.   atoms
    1    7 N      1, 5, 19, 41, 43, 57
    2    6 C      2-4, 6-18, 20-35, 37-40, 42, 44-56, 58-73, 75, 76
    3   16 S      36, 74
    4    1 H      77-112

          program call               : xtb data2507/gas/12BTCzTPN/12BTCzTPN.xyz --gfn 2 --ohess vtight --parallel 40 --molden --ceasefiles --namespace data2507/gas/12BTCzTPN/12BTCzTPN_gas_S0_preOpt
          :  Hamiltonian                  GFN2-xTB          :
 * total energy  :  -188.0658710 Eh     change       -0.8081287E-08 Eh
 * total energy  :  -188.1192230 Eh     change       -0.5335200E-01 Eh
 * total energy  :  -188.1419031 Eh     change       -0.2268011E-01 Eh
 * total energy  :  -188.1495420 Eh     change       -0.7638949E-02 Eh
 * total energy  :  -188.1532494 Eh     change       -0.3707361E-02 Eh
 * total energy  :  -188.1542625 Eh     change       -0.1013050E-02 Eh
 * total energy  :  -188.1547693 Eh     change       -0.5068122E-03 Eh
 * total energy  :  -188.1553911 Eh     change       -0.6218314E-03 Eh
 * total energy  :  -188.1558157 Eh     change       -0.4246129E-03 Eh
 * total energy  :  -188.1563480 Eh     change       -0.5323198E-03 Eh
 * total energy  :  -188.1660743 Eh     change       -0.6554809E-06 Eh
 * total energy  :  -188.1660750 Eh     change       -0.6517276E-06 Eh
 * total energy  :  -188.1660757 Eh     change       -0.7151100E-06 Eh
 * total energy  :  -188.1660765 Eh     change       -0.8512864E-06 Eh
 * total energy  :  -188.1660775 Eh     change       -0.9264349E-06 Eh
 * total energy  :  -188.1660784 Eh     change       -0.9043048E-06 Eh
 * total energy  :  -188.1660792 Eh     change       -0.8014626E-06 Eh
 * total energy  :  -188.1660798 Eh     change       -0.5869744E-06 Eh
 * total energy  :  -188.1660798 Eh     change       -0.2275158E-09 Eh
   *** GEOMETRY OPTIMIZATION CONVERGED AFTER 122 ITERATIONS ***

 final structure:
================
112
 xtb: 6.7.1 (edcfbbe)
N           -0.39505783908880        1.28313122070341       -4.18580883948590
C           -0.23249328754581        1.00148392998891       -3.08741621645053
C           -0.02941623093876        0.63987386481654       -1.73407849973412
C            1.10305780307517        1.11259383771149       -1.05478370239260
N            1.99999360112937        1.97208710124880       -1.68659617227760
C            1.70826959099526        3.27601719527135       -2.06740951807416
C            0.48138669824383        3.91328242125618       -2.14869126251971
C            0.47464984130291        5.24416973069184       -2.52346803855688
C            1.65591956511106        5.92687934551949       -2.79842100612541
C            2.88157714794400        5.29869858226273       -2.69628950050390
C            2.91422601800026        3.96207567613689       -2.32468785392629
C            3.98216895137640        3.02708880292989       -2.09331185599816
C            5.36487154817078        3.10755116401933       -2.17605868608305
C            6.11111738578961        1.98013339497278       -1.89152301463780
C            5.49742031364259        0.77306100481345       -1.56967198416405
C            4.12187252988473        0.66751765467700       -1.48922296104430
C            3.37618629840263        1.81370541339535       -1.70802484737978
C            1.30691726124674        0.71880776630340        0.27508666178932
N            2.45678732741948        1.10281597578051        0.96661023730209
C            2.89167542494090        2.39857451743566        1.17811861337355
C            2.22542568995383        3.59160460499996        0.95252204727165
C            2.89643239425974        4.76296930029484        1.24679200147120
C            4.18270373645595        4.74635446449676        1.78000756360581
C            4.82553997219113        3.55657130917246        2.05855325770146
C            4.17597529436892        2.36575461078332        1.76158267733476
C            4.52830146156086        0.98172266590253        1.91043925734754
C            5.66502441476593        0.33677901918441        2.39437331642669
C            5.72908335939156       -1.03650100752672        2.35428536637232
C            4.68082917212647       -1.78372430831726        1.80576413927698
C            4.61272203592474       -3.21083418141669        1.62224186217643
C            5.53418247926388       -4.18824252181851        1.98853633245733
C            5.27098380721775       -5.51375916576314        1.71029761510765
C            4.09546562907917       -5.88842994756567        1.06698975476894
C            3.16503727367065       -4.93874260815191        0.69100319294015
C            3.43416845220970       -3.61104273113793        0.97266926640113
S            2.39488212782980       -2.26029647484475        0.58078011452348
C            3.53247893925511       -1.14263367281492        1.31525344303660
C            3.44356549284550        0.23794147293016        1.39888007371654
C            0.35663075918331       -0.08940325119718        0.91602475654286
C            0.57125146010064       -0.44397076412947        2.26990554461092
N            0.76169149520159       -0.70997007869580        3.36802898716437
C           -0.77945929615984       -0.55643449985429        0.24080345555469
N           -1.69717699269458       -1.38191401479521        0.88970676687212
C           -2.15148904243799       -2.58424608708068        0.36929251376258
C           -1.54570817201199       -3.40185432103771       -0.56962557373121
C           -2.19260493907111       -4.57577777332836       -0.90768588041928
C           -3.39966114718834       -4.93179867233602       -0.31361837295462
C           -3.97316918557549       -4.14569823619664        0.66743146986103
C           -3.33837393486642       -2.96559948090289        1.02693947445834
C           -3.60005488118301       -1.95267391857098        2.01370946688180
C           -4.62022031463844       -1.76658050327284        2.93605260383362
C           -4.57317863667336       -0.66073669991303        3.76130100532484
C           -3.52094765712135        0.24594353251616        3.68176264982417
C           -2.49850232202261        0.08653673007637        2.76480062470022
C           -2.55111113859374       -1.01236101271367        1.92353955176241
C           -0.96227053920520       -0.19563877448315       -1.10679725848991
N           -2.08289707669962       -0.64430106238983       -1.81439428943549
C           -2.09459306697994       -1.62165169497299       -2.80026389156775
C           -1.04914113254428       -2.10441695619411       -3.56859907863284
C           -1.33167744132810       -3.10796261258183       -4.47604526978947
C           -2.61784948177296       -3.62417581047269       -4.61008611344221
C           -3.65982594080320       -3.15203540232812       -3.83751132889207
C           -3.40295081593002       -2.14047951180014       -2.92203874611833
C           -4.22169996690553       -1.44541641856631       -1.96771139500108
C           -5.56281575478566       -1.53116812688806       -1.59660717171785
C           -6.04681385577293       -0.69277771035241       -0.61774535159606
C           -5.22938374211262        0.29009044452237       -0.04754144127224
C           -5.57509311236505        1.29836541689292        0.91988458080912
C           -6.77453108176247        1.48554251230900        1.60020072143452
C           -6.89169926598754        2.51827198301071        2.50719029571096
C           -5.82697143311063        3.38097663042856        2.74634959639643
C           -4.62631462419922        3.21895856906132        2.08231875932055
C           -4.51090620005712        2.17735459940141        1.17958166868971
S           -3.07322082347322        1.78263139150127        0.26367268931465
C           -3.88702482776020        0.39947670907350       -0.43739965518436
C           -3.37073499079367       -0.51996917230351       -1.33208549185788
H           -0.44258722736391        3.40061836261000       -1.92438830477167
H           -0.46867871487850        5.76342025448672       -2.60083156950398
H            1.60868776875366        6.96557953496079       -3.08926262195764
H            3.79844018436549        5.83221972276939       -2.89480731907751
H            5.84292675086818        4.03245027123257       -2.45996162031617
H            7.18869550856979        2.02606362905105       -1.93882943744020
H            6.10453288223037       -0.10010034470733       -1.38281242425634
H            3.64742800153322       -0.27835817462762       -1.27519790088122
H            1.21869779998937        3.61227985627860        0.56305672363781
H            2.40976974518430        5.70831285707226        1.06049664624344
H            4.67589243766696        5.68284529556041        1.99250259447612
H            5.81104992204887        3.54683389236624        2.49796857089472
H            6.48592344343325        0.91599788128865        2.78689956144888
H            6.60018011719617       -1.55255041206801        2.72667266419097
H            6.44671809456507       -3.90405111067441        2.48986423600454
H            5.98459923244399       -6.27192733306453        1.99593417871779
H            3.90619914651470       -6.93077337197367        0.85995581635086
H            2.24847310852293       -5.21765698845464        0.19410554827517
H           -0.59486513270154       -3.14041119339882       -1.01018507499260
H           -1.75061511731211       -5.22697839679930       -1.64653403803779
H           -3.88058095241644       -5.85162201464429       -0.61065962704962
H           -4.88909959951909       -4.44423996066270        1.15387428964757
H           -5.43248558431248       -2.47439665298676        2.99910235529716
H           -5.35921841571539       -0.49373223880184        4.48217811411137
H           -3.50386950082423        1.09735052500465        4.34522176008608
H           -1.69493071540894        0.80480237866676        2.71017769176201
H           -0.04701639145427       -1.71496552099984       -3.46787553753460
H           -0.53673901566478       -3.49924510864761       -5.09291156921017
H           -2.79801980867221       -4.40789014914237       -5.33052323738461
H           -4.65483350784692       -3.55762877934565       -3.93681328294984
H           -6.20838822214871       -2.25304233479865       -2.07150351601026
H           -7.07615668278048       -0.76272307834780       -0.30260355195010
H           -7.60236499875028        0.81748715275313        1.41829977476529
H           -7.82031724698357        2.66064132265560        3.03930839270455
H           -5.93732237468838        4.18403280936971        3.45931690114783
H           -3.79356149612963        3.88117903801601        2.26269910590391

          :  Hamiltonian                  GFN2-xTB          :
         :: gradient norm              0.000189892147 Eh/a0 ::
         :: HOMO-LUMO gap              1.615256040127 eV    ::
         :: SCC energy              -191.689963142759 Eh    ::
         :: -> dispersion             -0.228522870423 Eh    ::
         :: repulsion energy           3.523883376898 Eh    ::

    * Orbital Energies and Occupations

         #    Occupation            Energy/Eh            Energy/eV
      -------------------------------------------------------------
         1        2.0000           -0.7346271             -19.9902
       ...           ...                  ...                  ...
       163        2.0000           -0.4134344             -11.2501
       164        2.0000           -0.4112183             -11.1898
       165        2.0000           -0.4101740             -11.1614
       166        2.0000           -0.3929667             -10.6932
       167        2.0000           -0.3910164             -10.6401
       168        2.0000           -0.3884038             -10.5690
       169        2.0000           -0.3867326             -10.5235
       170        2.0000           -0.3817098             -10.3869
       171        2.0000           -0.3793671             -10.3231
       172        2.0000           -0.3770980             -10.2614
       173        2.0000           -0.3739098             -10.1746
       174        2.0000           -0.3706893             -10.0870
       175        2.0000           -0.3693186             -10.0497 (HOMO)
       176                         -0.3099591              -8.4344 (LUMO)
       177                         -0.2785994              -7.5811
       178                         -0.2679352              -7.2909
       179                         -0.2657576              -7.2316
       180                         -0.2518797              -6.8540
       181                         -0.2507406              -6.8230
       182                         -0.2410040              -6.5581
       183                         -0.2395884              -6.5195
       184                         -0.2365951              -6.4381
       185                         -0.2342531              -6.3744
       186                         -0.2328920              -6.3373
       ...                                ...                  ...
       350                          1.1629918              31.6466
      -------------------------------------------------------------
                  HL-Gap            0.0593595 Eh            1.6153 eV

     #   Z          covCN         q      C6AA      α(0)
     1   7 N        0.911    -0.213    25.648     7.325
     2   6 C        1.912     0.125    28.031     8.550
     3   6 C        2.974    -0.003    28.104     8.696
     4   6 C        2.918     0.062    26.621     8.461
     5   7 N        2.800    -0.051    22.222     7.001
     6   6 C        3.070     0.052    26.771     8.484
     7   6 C        2.910    -0.045    29.114     8.848
     8   6 C        2.925    -0.029    28.722     8.789
     9   6 C        2.920    -0.037    28.919     8.819
    10   6 C        2.913    -0.030    28.754     8.793
    11   6 C        3.068    -0.012    28.243     8.714
    12   6 C        3.065    -0.013    28.276     8.720
    13   6 C        2.914    -0.031    28.771     8.796
    14   6 C        2.921    -0.037    28.933     8.821
    15   6 C        2.925    -0.031    28.763     8.795
    16   6 C        2.910    -0.047    29.174     8.857
    17   6 C        3.074     0.049    26.817     8.491
    18   6 C        2.921     0.060    26.654     8.466
    19   7 N        2.804    -0.043    22.079     6.979
    20   6 C        3.076     0.050    26.794     8.487
    21   6 C        2.910    -0.046    29.136     8.851
    22   6 C        2.926    -0.029    28.737     8.791
    23   6 C        2.921    -0.037    28.910     8.817
    24   6 C        2.913    -0.030    28.751     8.793
    25   6 C        3.072    -0.012    28.242     8.714
    26   6 C        3.068    -0.014    28.297     8.723
    27   6 C        2.912    -0.035    28.873     8.811
    28   6 C        2.918    -0.041    29.016     8.833
    29   6 C        3.102    -0.003    27.963     8.665
    30   6 C        3.110     0.001    27.864     8.648
    31   6 C        2.918    -0.031    28.779     8.797
    32   6 C        2.918    -0.033    28.817     8.803
    33   6 C        2.924    -0.030    28.741     8.792
    34   6 C        2.937    -0.037    28.914     8.819
    35   6 C        3.004     0.044    27.005     8.524
    36  16 S        2.208    -0.128   146.446    20.368
    37   6 C        2.992     0.021    27.524     8.606
    38   6 C        3.086     0.045    26.897     8.502
    39   6 C        2.976     0.000    28.021     8.683
    40   6 C        1.913     0.128    27.972     8.541
    41   7 N        0.911    -0.218    25.760     7.341
    42   6 C        2.916     0.065    26.546     8.449
    43   7 N        2.798    -0.052    22.237     7.004
    44   6 C        3.078     0.050    26.802     8.488
    45   6 C        2.910    -0.045    29.128     8.850
    46   6 C        2.925    -0.031    28.764     8.795
    47   6 C        2.921    -0.037    28.926     8.820
    48   6 C        2.914    -0.031    28.782     8.797
    49   6 C        3.063    -0.014    28.289     8.722
    50   6 C        3.069    -0.013    28.276     8.719
    51   6 C        2.914    -0.031    28.774     8.796
    52   6 C        2.920    -0.037    28.919     8.819
    53   6 C        2.925    -0.029    28.717     8.788
    54   6 C        2.911    -0.041    29.011     8.832
    55   6 C        3.067     0.052    26.763     8.483
    56   6 C        2.921     0.062    26.604     8.458
    57   7 N        2.797    -0.051    22.232     7.003
    58   6 C        3.076     0.053    26.728     8.476
    59   6 C        2.910    -0.043    29.061     8.840
    60   6 C        2.925    -0.028    28.713     8.787
    61   6 C        2.920    -0.036    28.901     8.816
    62   6 C        2.913    -0.030    28.741     8.791
    63   6 C        3.076    -0.011    28.210     8.708
    64   6 C        3.060    -0.016    28.341     8.730
    65   6 C        2.912    -0.036    28.896     8.815
    66   6 C        2.918    -0.041    29.023     8.834
    67   6 C        3.099    -0.005    28.030     8.676
    68   6 C        3.110    -0.000    27.887     8.651
    69   6 C        2.918    -0.031    28.777     8.797
    70   6 C        2.919    -0.033    28.821     8.804
    71   6 C        2.924    -0.030    28.749     8.793
    72   6 C        2.937    -0.037    28.918     8.819
    73   6 C        3.005     0.043    27.031     8.529
    74  16 S        2.203    -0.124   146.275    20.356
    75   6 C        2.997     0.019    27.579     8.615
    76   6 C        3.105     0.045    26.866     8.493
    77   1 H        0.926     0.025     2.657     2.549
    78   1 H        0.926     0.037     2.495     2.470
    79   1 H        0.926     0.034     2.527     2.486
    80   1 H        0.926     0.036     2.504     2.475
    81   1 H        0.926     0.036     2.506     2.475
    82   1 H        0.926     0.033     2.542     2.493
    83   1 H        0.926     0.031     2.568     2.506
    84   1 H        0.926     0.024     2.680     2.560
    85   1 H        0.926     0.025     2.660     2.551
    86   1 H        0.926     0.035     2.514     2.479
    87   1 H        0.926     0.035     2.511     2.478
    88   1 H        0.926     0.037     2.484     2.465
    89   1 H        0.926     0.041     2.438     2.442
    90   1 H        0.926     0.040     2.450     2.448
    91   1 H        0.926     0.039     2.468     2.457
    92   1 H        0.926     0.037     2.494     2.470
    93   1 H        0.926     0.038     2.477     2.461
    94   1 H        0.926     0.039     2.463     2.454
    95   1 H        0.926     0.023     2.688     2.564
    96   1 H        0.926     0.032     2.559     2.502
    97   1 H        0.926     0.033     2.543     2.494
    98   1 H        0.926     0.035     2.518     2.481
    99   1 H        0.926     0.034     2.528     2.486
   100   1 H        0.926     0.031     2.568     2.506
   101   1 H        0.926     0.033     2.548     2.496
   102   1 H        0.926     0.028     2.610     2.526
   103   1 H        0.926     0.026     2.641     2.541
   104   1 H        0.926     0.038     2.480     2.463
   105   1 H        0.926     0.036     2.508     2.477
   106   1 H        0.926     0.037     2.491     2.468
   107   1 H        0.926     0.040     2.452     2.449
   108   1 H        0.926     0.039     2.466     2.456
   109   1 H        0.926     0.038     2.475     2.460
   110   1 H        0.926     0.037     2.494     2.469
   111   1 H        0.926     0.038     2.474     2.460
   112   1 H        0.926     0.039     2.462     2.454

molecular dipole:
                 x           y           z       tot (Debye)
 q only:        0.064      -0.080       0.137
   full:       -0.022      -0.281       0.403       1.249

 projected vibrational frequencies (cm⁻¹)
eigval :       -0.00    -0.00    -0.00     0.00     0.00     0.00
eigval :        8.23    11.57    12.54    17.22    24.35    27.22
eigval :       31.53    38.93    41.01    45.77    52.10    54.42
eigval :       54.84    62.52    68.42    79.41    83.59    93.53
eigval :       94.23   102.53   108.78   111.62   114.67   117.55
eigval :      119.69   123.57   129.30   135.81   139.41   145.73
eigval :      148.47   150.82   161.32   174.48   189.79   196.47
eigval :      209.06   216.41   220.21   222.29   230.32   250.21
eigval :      250.71   256.58   258.52   264.52   272.11   277.19
eigval :      280.70   286.64   299.04   302.40   321.87   323.13
eigval :      347.31   371.56   375.71   391.64   394.86   396.56
eigval :      401.19   401.93   405.26   405.56   406.77   419.67
eigval :      422.29   422.83   427.38   432.46   435.76   436.80
eigval :      439.71   443.91   462.52   464.36   478.89   479.95
eigval :      482.26   482.85   492.15   493.39   509.95   511.12
eigval :      519.02   519.83   529.91   533.71   536.74   539.40
eigval :      542.22   542.48   543.03   548.92   550.10   555.70
eigval :      566.73   577.45   585.37   589.86   592.16   596.93
eigval :      598.70   602.16   617.50   621.31   639.77   645.34
eigval :      659.31   661.30   661.52   665.07   665.79   673.17
eigval :      674.73   682.60   683.80   689.27   696.59   701.91
eigval :      702.36   705.33   707.19   707.53   713.68   730.77
eigval :      739.29   751.90   755.19   764.29   770.46   770.72
eigval :      772.00   772.56   773.62   776.13   782.21   782.97
eigval :      798.71   806.21   818.16   819.87   832.18   833.02
eigval :      868.18   869.03   869.79   870.51   870.92   873.45
eigval :      875.97   877.37   880.11   892.25   894.08   895.68
eigval :      897.32   902.16   903.12   903.29   904.86   905.14
eigval :      905.40   906.11   907.49   918.52   920.36   921.87
eigval :      922.29   922.44   922.82   922.94   923.19   923.61
eigval :      926.17   971.06  1009.05  1012.77  1014.47  1026.99
eigval :     1039.64  1048.48  1049.62  1069.99  1070.37  1070.83
eigval :     1072.02  1072.73  1075.56  1077.37  1077.52  1078.01
eigval :     1082.02  1121.28  1122.34  1125.50  1144.46  1145.97
eigval :     1151.56  1151.98  1152.19  1152.77  1162.86  1163.41
eigval :     1163.95  1178.46  1179.59  1179.84  1180.30  1180.79
eigval :     1181.63  1183.26  1184.75  1195.39  1217.94  1225.15
eigval :     1226.64  1227.94  1234.38  1235.61  1238.53  1241.57
eigval :     1248.68  1259.70  1270.73  1281.37  1289.12  1292.24
eigval :     1294.25  1294.68  1296.49  1299.24  1304.38  1316.87
eigval :     1322.68  1339.52  1340.75  1350.90  1354.43  1357.95
eigval :     1358.73  1359.62  1360.95  1361.51  1361.61  1378.09
eigval :     1379.58  1390.88  1394.86  1402.04  1408.38  1413.91
eigval :     1416.20  1417.66  1420.99  1426.45  1428.22  1428.94
eigval :     1444.97  1451.58  1456.10  1458.00  1460.73  1461.86
eigval :     1472.63  1474.00  1480.88  1481.56  1486.75  1487.27
eigval :     1495.48  1508.83  1558.45  1558.83  1569.52  1570.38
eigval :     1578.36  1578.65  1582.56  1584.84  1589.27  1589.56
eigval :     1593.23  1593.60  1593.95  1597.49  1600.94  1601.43
eigval :     1609.24  1609.75  1613.99  1614.81  2367.59  2371.12
eigval :     3076.90  3078.31  3079.77  3080.42  3082.13  3082.23
eigval :     3082.30  3082.84  3083.29  3083.45  3084.31  3085.57
eigval :     3086.07  3087.03  3088.12  3088.32  3091.78  3092.09
eigval :     3092.52  3092.85  3093.60  3093.89  3094.28  3094.71
eigval :     3095.96  3096.30  3099.26  3099.84  3100.37  3100.80
eigval :     3101.15  3101.53  3101.55  3101.77  3105.13  3105.23

   temp. (K)  partition function   enthalpy   heat capacity  entropy
                                   cal/mol     cal/K/mol   cal/K/mol   J/K/mol
 298.15  VIB  0.126E+27            34661.288    220.391    214.455
         ROT  0.165E+09              888.752      2.981     40.579
         INT  0.207E+35            35550.040    223.371    255.034
         TR   0.306E+29             1481.254      4.968     46.564
         TOT                       37031.2944   228.3396   301.5977  1261.8850

       T/K    H(0)-H(T)+PV         H(T)/Eh          T*S/Eh         G(T)/Eh
   ------------------------------------------------------------------------
    298.15    0.590131E-01    0.877712E+00    0.143299E+00    0.734413E+00
   ------------------------------------------------------------------------

         :::::::::::::::::::::::::::::::::::::::::::::::::::::
         ::                  THERMODYNAMIC                  ::
         :::::::::::::::::::::::::::::::::::::::::::::::::::::
         :: total free energy        -187.431666800307 Eh   ::
         ::.................................................::
         :: total energy             -188.166079765859 Eh   ::
         :: zero point energy           0.818698664705 Eh   ::
         :: G(RRHO) w/o ZPVE           -0.084285699153 Eh   ::
         :: G(RRHO) contrib.            0.734412965552 Eh   ::
         :::::::::::::::::::::::::::::::::::::::::::::::::::::

           -------------------------------------------------
          | TOTAL ENERGY             -188.166079765859 Eh   |
          | TOTAL ENTHALPY           -187.288367977252 Eh   |
          | TOTAL FREE ENERGY        -187.431666800307 Eh   |
          | GRADIENT NORM               0.000190020339 Eh/α |
          | HOMO-LUMO GAP               1.615254908411 eV   |
           -------------------------------------------------

 * finished run on 2025/07/17 at 16:58:22.738
