   * xtb version 6.7.1 (edcfbbe) compiled by 'albert@albert-system' on 2024-07-22

   ID    Z sym.   atoms
    1    7 N      1, 5, 19, 41, 43, 57
    2    6 C      2-4, 6-18, 20-35, 37-40, 42, 44-56, 58-73, 75, 76
    3   16 S      36, 74
    4    1 H      77-112

          program call               : xtb data2507/gas/12BTCzTPN/12BTCzTPN_gas_S0_finalOpt.xtbopt.xyz --gfn 2 --spinpol --tblite --uhf 2 --ohess vtight --parallel 40 --molden --ceasefiles --namespace data2507/gas/12BTCzTPN/12BTCzTPN_gas_T1_preOpt
 * total energy  :  -188.0925781 Eh     change        0.8984867E-07 Eh
 * total energy  :  -188.0970380 Eh     change       -0.4459897E-02 Eh
 * total energy  :  -188.0985146 Eh     change       -0.1476635E-02 Eh
 * total energy  :  -188.0986323 Eh     change       -0.1176261E-03 Eh
 * total energy  :  -188.0987250 Eh     change       -0.9270119E-04 Eh
 * total energy  :  -188.0987593 Eh     change       -0.3428853E-04 Eh
 * total energy  :  -188.0987956 Eh     change       -0.3634203E-04 Eh
 * total energy  :  -188.0988092 Eh     change       -0.1362664E-04 Eh
 * total energy  :  -188.0988187 Eh     change       -0.9498826E-05 Eh
 * total energy  :  -188.0988250 Eh     change       -0.6313807E-05 Eh
 * total energy  :  -188.0988602 Eh     change       -0.3194226E-06 Eh
 * total energy  :  -188.0988603 Eh     change       -0.1117080E-06 Eh
 * total energy  :  -188.0988606 Eh     change       -0.3010460E-06 Eh
 * total energy  :  -188.0988610 Eh     change       -0.4223677E-06 Eh
 * total energy  :  -188.0988614 Eh     change       -0.3838796E-06 Eh
 * total energy  :  -188.0988616 Eh     change       -0.2415640E-06 Eh
 * total energy  :  -188.0988620 Eh     change       -0.3504617E-06 Eh
 * total energy  :  -188.0988621 Eh     change       -0.1467563E-06 Eh
 * total energy  :  -188.0988622 Eh     change       -0.7984329E-07 Eh
   *** GEOMETRY OPTIMIZATION CONVERGED AFTER 44 ITERATIONS ***

 final structure:
================
112
 xtb: 6.7.1 (edcfbbe)
N            0.36270061991878       -1.90970568257421       -3.45717159147668
C            0.27982695428313       -1.37775073196998       -2.43312328145593
C            0.18405360372733       -0.77692824131788       -1.18742127463643
C            1.20644842847671        0.11448526056841       -0.72371673873467
N            2.38317315283575        0.25180474758906       -1.47290284547038
C            2.93982160303981        1.46575065934043       -1.82686765855034
C            2.33194024832008        2.70905262408151       -1.90620115711084
C            3.11384206393548        3.78208428969180       -2.29171535804536
C            4.45936375195594        3.61869921703501       -2.60557376341217
C            5.05245056136872        2.36814719146324       -2.58784960461599
C            4.28608494168001        1.27759300577863       -2.21023542204428
C            4.53596958988377       -0.13667959756755       -2.12021842545775
C            5.65656029084522       -0.92018624615046       -2.34267427368476
C            5.55577467871500       -2.28865914244448       -2.16273222086543
C            4.35358509771759       -2.87279150751673       -1.77910591528215
C            3.22601539705571       -2.10964643302014       -1.53692458759754
C            3.32569302768467       -0.73473906201135       -1.69710066785296
C            1.01218238773355        0.84488679548924        0.43014557052280
N            2.02100730166509        1.69827016062583        0.91294605501709
C            1.97546054112195        3.08022728414158        0.94629534681277
C            0.88469317258458        3.92478558120993        0.82017057959872
C            1.11757692893652        5.28580439874071        0.87616385698465
C            2.40284234822565        5.79524101186805        1.04193333858654
C            3.49474224367772        4.95635058979981        1.15753072972161
C            3.28541789380644        3.58542098962015        1.11240003174150
C            4.16149043597447        2.44907596851529        1.18036075456638
C            5.53964522796361        2.29551768216746        1.28215370859302
C            6.07995064149455        1.02531499011978        1.31023900937281
C            5.25485076991431       -0.10296850307778        1.31017594321584
C            5.62993734192516       -1.49004334834363        1.41247125252508
C            6.90047066999869       -2.05584966143027        1.44029143752225
C            7.03550336536104       -3.42654798661298        1.52978360519169
C            5.91707787106006       -4.25026013392667        1.60045427181734
C            4.64430987972594       -3.71241593597195        1.57863215911143
C            4.51302276469757       -2.33876540336721        1.48030155294074
S            2.99789609953885       -1.46464091380896        1.40124095097590
C            3.86090664911810        0.04267099488649        1.23410098361727
C            3.32246845387946        1.31245724745528        1.08872427990262
C           -0.18871967218998        0.71304967630343        1.19436037563933
C           -0.27535971857540        1.30822523764968        2.44335970991531
N           -0.34768520248524        1.83571977475172        3.47051306716794
C           -1.21249683259886       -0.17559320000709        0.72936970404984
N           -2.38799652379052       -0.31933367025346        1.47907630481707
C           -2.94682366179471       -1.53961936640954        1.80819561252490
C           -2.34105574162812       -2.78540844402910        1.86112902327296
C           -3.12407830190756       -3.86510677884954        2.22511917300295
C           -4.46926908626322       -3.70638434015151        2.54267346055229
C           -5.06053340678717       -2.45488750404571        2.55067307710183
C           -4.29262731356265       -1.35783743730512        2.19554221067967
C           -4.54044309453083        0.05826794691228        2.13501378331882
C           -5.66037707765225        0.83740701168079        2.37516055131876
C           -5.55869571474199        2.20937161685224        2.22551221445977
C           -4.35557820361505        2.80061938159112        1.85624390798275
C           -3.22838353949018        2.04213897083520        1.59803942715762
C           -3.32938699574286        0.66393600889286        1.72479024391630
C           -1.02298738388298       -0.89707805150875       -0.43173865348786
N           -2.05016742523267       -1.71730154314222       -0.93308011950333
C           -2.04933595161951       -3.09888958598873       -0.99664445055490
C           -0.98676079360449       -3.98155109765719       -0.89259798125382
C           -1.26434638551824       -5.33253244338221       -0.97885870599040
C           -2.56578139399848       -5.79582651763252       -1.15354444229677
C           -3.62945227211511       -4.91914919943502       -1.24970760099010
C           -3.37513346063828       -3.55723508017031       -1.17430630668553
C           -4.21378481394483       -2.39185815515540       -1.22020563705944
C           -5.58577149725419       -2.19038231806797       -1.32303106036003
C           -6.08345695863764       -0.90255981916877       -1.32843430785965
C           -5.22153022720955        0.19760727705104       -1.30350238223564
C           -5.54982719587036        1.59819632480318       -1.37977029658093
C           -6.80065072634481        2.20657167307994       -1.40167209633253
C           -6.88952892799478        3.58254734218503       -1.46407448781553
C           -5.74403217583919        4.36978953185272       -1.51335334507414
C           -4.48996031715780        3.78943889134995       -1.49679622731550
C           -4.40506154150955        2.41050067538832       -1.42557884746146
S           -2.92010873522193        1.48488660174711       -1.35625816964915
C           -3.83365504495024        0.00391838347972       -1.22474110186742
C           -3.33826558682954       -1.28579692451109       -1.10380874443861
H            1.28102214054833        2.83153496491599       -1.69310909228328
H            2.66927939684389        4.76388743676138       -2.35010074890691
H            5.04193448622019        4.48144628106977       -2.89142215910490
H            6.08616006392694        2.24072063991435       -2.87059053240705
H            6.58739107013168       -0.46775719394606       -2.64881034499976
H            6.41868170855777       -2.91583594148587       -2.32819990736461
H            4.29956558688643       -3.94443501995857       -1.66195321026212
H            2.29957153283869       -2.57544719172624       -1.24354555238257
H           -0.11200234304770        3.53473240565640        0.68264818390184
H            0.28572603070486        5.96847540536324        0.78832173638812
H            2.54455069961049        6.86493546960614        1.07964243906876
H            4.49030953302478        5.35398819911734        1.28162693996186
H            6.17809561088034        3.16358424711563        1.33176581902941
H            7.14905103269566        0.89240496993327        1.36565942882936
H            7.77152160766942       -1.42106428784965        1.38607069448426
H            8.02118379771192       -3.86676387182623        1.54591183344824
H            6.04298549542655       -5.31995767008813        1.67141899396080
H            3.77017537142224       -4.34255350350160        1.63245298640142
H           -1.29050654637131       -2.90509551550250        1.64450596326999
H           -2.68094656319342       -4.84855520503129        2.26275458831544
H           -5.05300486755061       -4.57408347711700        2.81055608476270
H           -6.09409619515967       -2.33184681639857        2.83586781140224
H           -6.59123411893592        0.37873750772761        2.67181661956642
H           -6.42097074064917        2.83356112345457        2.40499921169597
H           -4.29991152987740        3.87461477228829        1.76394654014344
H           -2.30091705717822        2.51504260696266        1.32016247159927
H            0.02283837881501       -3.62801374767687       -0.75147391802846
H           -0.45508807886023       -6.04376519368845       -0.90871823354592
H           -2.74258361844643       -6.85917025508576       -1.21503447018300
H           -4.63752685419908       -5.28082943536252       -1.38260803824791
H           -6.25263156199238       -3.03550849059520       -1.39153619696033
H           -7.14733394786049       -0.73311690309146       -1.38481603868325
H           -7.69260105350098        1.60028041741964       -1.36378154528422
H           -7.85991126791865        4.05567040787067       -1.47534977097064
H           -5.83391686735937        5.44431470520343       -1.56315447194136
H           -3.59507227680073        4.39108713305137       -1.53381226253220

 projected vibrational frequencies (cm⁻¹)
eigval :       -0.00    -0.00    -0.00     0.00     0.00     0.00
eigval :        7.10    12.93    15.00    18.04    29.64    35.13
eigval :       36.06    38.78    43.50    45.69    50.66    55.12
eigval :       56.86    63.10    66.35    84.40    88.69    92.55
eigval :       95.19   101.23   104.81   111.61   112.90   114.94
eigval :      120.55   125.61   126.16   135.32   138.35   143.58
eigval :      144.45   150.55   172.90   173.71   193.60   194.79
eigval :      198.86   219.71   219.77   222.10   231.57   244.01
eigval :      249.12   255.33   258.04   265.58   270.90   279.16
eigval :      280.61   282.87   296.44   300.99   321.79   322.52
eigval :      352.80   370.75   377.04   388.99   393.61   396.15
eigval :      399.94   400.45   401.67   403.36   404.07   406.88
eigval :      421.29   423.03   426.50   427.10   434.87   435.78
eigval :      440.78   442.65   453.64   460.77   465.53   477.40
eigval :      477.48   478.21   478.46   492.27   494.52   501.31
eigval :      513.17   516.48   518.17   526.16   536.29   539.74
eigval :      540.25   541.55   543.83   544.00   546.82   552.32
eigval :      553.36   563.27   582.05   584.90   586.09   592.91
eigval :      598.21   601.16   608.59   613.18   617.74   636.28
eigval :      639.00   645.23   661.42   662.61   663.56   664.54
eigval :      674.98   676.08   682.75   682.86   689.53   701.24
eigval :      703.74   703.86   708.06   708.62   711.90   721.68
eigval :      740.82   752.65   754.56   766.00   766.12   768.86
eigval :      770.18   770.53   772.52   772.62   778.42   778.70
eigval :      792.32   801.76   816.15   816.18   834.09   835.12
eigval :      859.27   861.10   861.49   866.86   867.12   870.11
eigval :      870.16   875.52   875.61   891.38   891.47   892.05
eigval :      897.06   898.60   898.83   901.07   901.13   905.23
eigval :      905.43   905.81   905.84   916.85   917.00   919.13
eigval :      919.90   920.20   921.51   921.64   922.24   922.55
eigval :      922.57   970.94  1004.18  1012.21  1013.42  1025.08
eigval :     1037.10  1047.76  1050.38  1065.01  1067.39  1068.33
eigval :     1068.92  1069.82  1072.49  1072.81  1077.13  1077.16
eigval :     1083.44  1119.07  1119.37  1121.21  1140.29  1142.58
eigval :     1143.22  1145.57  1147.74  1152.81  1154.77  1161.30
eigval :     1161.60  1175.55  1177.63  1178.02  1178.47  1179.08
eigval :     1179.95  1182.19  1183.86  1191.59  1215.77  1218.63
eigval :     1224.56  1226.55  1227.15  1229.39  1230.62  1235.83
eigval :     1238.74  1256.05  1259.01  1274.93  1277.33  1282.60
eigval :     1283.62  1289.04  1289.26  1294.06  1295.00  1309.56
eigval :     1312.30  1328.07  1338.97  1339.07  1344.69  1347.63
eigval :     1348.02  1354.08  1355.69  1357.04  1362.11  1363.80
eigval :     1366.94  1379.47  1380.06  1381.81  1385.53  1388.86
eigval :     1408.50  1408.99  1413.01  1413.45  1415.67  1418.12
eigval :     1423.55  1429.14  1444.74  1446.08  1459.52  1459.72
eigval :     1461.34  1462.42  1464.13  1475.16  1475.36  1482.23
eigval :     1482.31  1525.55  1551.22  1551.30  1569.00  1569.12
eigval :     1569.21  1569.30  1570.15  1571.52  1580.92  1581.48
eigval :     1585.20  1585.29  1586.49  1586.70  1586.75  1587.13
eigval :     1600.14  1600.46  1605.29  1605.94  2244.60  2285.92
eigval :     3081.36  3081.59  3082.82  3082.89  3083.13  3083.15
eigval :     3083.69  3083.76  3086.69  3087.23  3087.54  3087.74
eigval :     3089.13  3089.24  3090.70  3090.77  3092.76  3092.96
eigval :     3094.18  3094.34  3094.57  3094.95  3096.48  3096.56
eigval :     3098.58  3098.84  3099.36  3099.83  3100.88  3101.40
eigval :     3101.77  3102.13  3104.13  3104.81  3110.94  3112.61

   temp. (K)  partition function   enthalpy   heat capacity  entropy
                                   cal/mol     cal/K/mol   cal/K/mol   J/K/mol
 298.15  VIB  0.675E+26            34810.893    221.971    215.013
         ROT  0.160E+09              888.752      2.981     40.520
         INT  0.108E+35            35699.645    224.952    255.533
         TR   0.306E+29             1481.254      4.968     46.564
         TOT                       37180.8992   229.9203   302.0969  1263.9735

       T/K    H(0)-H(T)+PV         H(T)/Eh          T*S/Eh         G(T)/Eh
   ------------------------------------------------------------------------
    298.15    0.592515E-01    0.874799E+00    0.143536E+00    0.731263E+00
   ------------------------------------------------------------------------

         :::::::::::::::::::::::::::::::::::::::::::::::::::::
         ::                  THERMODYNAMIC                  ::
         :::::::::::::::::::::::::::::::::::::::::::::::::::::
         :: total free energy        -187.367599387462 Eh   ::
         ::.................................................::
         :: total energy             -188.098862227501 Eh   ::
         :: zero point energy           0.815547303398 Eh   ::
         :: G(RRHO) w/o ZPVE           -0.084284463360 Eh   ::
         :: G(RRHO) contrib.            0.731262840039 Eh   ::
         :::::::::::::::::::::::::::::::::::::::::::::::::::::

           -------------------------------------------------
          | TOTAL ENERGY             -188.098862227501 Eh   |
          | TOTAL ENTHALPY           -187.224063389738 Eh   |
          | TOTAL FREE ENERGY        -187.367599387462 Eh   |
          | GRADIENT NORM               0.000129127150 Eh/α |
           -------------------------------------------------

 * finished run on 2025/07/17 at 17:08:37.485
