   * xtb version 6.7.1 (edcfbbe) compiled by 'albert@albert-system' on 2024-07-22

   ID    Z sym.   atoms
    1    7 N      1, 5, 19, 41, 43, 57
    2    6 C      2-4, 6-18, 20-35, 37-40, 42, 44-56, 58-73, 75, 76
    3   16 S      36, 74
    4    1 H      77-112

          program call               : xtb data2507/gas/12BTCzTPN/12BTCzTPN_gas_T1_crest.xyz --gfn 2 --spinpol --tblite --uhf 2 --ohess vtight --parallel 40 --molden --ceasefiles --namespace data2507/gas/12BTCzTPN/12BTCzTPN_gas_T1_finalOpt
 * total energy  :  -188.0988144 Eh     change       -0.8848161E-08 Eh
 * total energy  :  -188.0988270 Eh     change       -0.1267647E-04 Eh
 * total energy  :  -188.0988320 Eh     change       -0.4965852E-05 Eh
 * total energy  :  -188.0988336 Eh     change       -0.1625948E-05 Eh
 * total energy  :  -188.0988346 Eh     change       -0.1000702E-05 Eh
 * total energy  :  -188.0988359 Eh     change       -0.1292176E-05 Eh
 * total energy  :  -188.0988373 Eh     change       -0.1390525E-05 Eh
 * total energy  :  -188.0988395 Eh     change       -0.2199156E-05 Eh
 * total energy  :  -188.0988425 Eh     change       -0.3020781E-05 Eh
 * total energy  :  -188.0988453 Eh     change       -0.2767662E-05 Eh
 * total energy  :  -188.0988644 Eh     change       -0.6995882E-07 Eh
 * total energy  :  -188.0988645 Eh     change       -0.1050391E-06 Eh
 * total energy  :  -188.0988649 Eh     change       -0.3156628E-06 Eh
 * total energy  :  -188.0988650 Eh     change       -0.1835193E-06 Eh
 * total energy  :  -188.0988652 Eh     change       -0.1649599E-06 Eh
 * total energy  :  -188.0988654 Eh     change       -0.1562566E-06 Eh
 * total energy  :  -188.0988655 Eh     change       -0.1141365E-06 Eh
 * total energy  :  -188.0988656 Eh     change       -0.1135582E-06 Eh
 * total energy  :  -188.0988657 Eh     change       -0.7998580E-07 Eh
   *** GEOMETRY OPTIMIZATION CONVERGED AFTER 39 ITERATIONS ***

 final structure:
================
112
 xtb: 6.7.1 (edcfbbe)
N            0.34194560472402       -1.84670198033298       -3.48248529519589
C            0.26562074639366       -1.33245716935046       -2.44894677493065
C            0.17611110017045       -0.75391326971892       -1.19228839307071
C            1.20230006561714        0.12545298092921       -0.71437273643313
N            2.37451172230711        0.28033791352883       -1.46715018038804
C            2.92734064798773        1.50374718828754       -1.79376734476145
C            2.31724518968079        2.74774859738296       -1.83722077891950
C            3.09510612971333        3.83152415448376       -2.20018113365640
C            4.43881412459830        3.67828904530861       -2.52663455057820
C            5.03372906985566        2.42860033968993       -2.54475635601710
C            4.27129405114357        1.32751296264926       -2.19041387058385
C            4.52344480286812       -0.08826656037720       -2.13835917675921
C            5.64359571807008       -0.86398481947913       -2.38844053632040
C            5.54575620807867       -2.23682632984982       -2.24363431020987
C            4.34671048849433       -2.83250718063177       -1.86805569109728
C            3.21962377130293       -2.07769075840424       -1.59889248173222
C            3.31666808403557       -0.69887324341452       -1.72302132747376
C            1.01516736010216        0.83096275898832        0.45630818671317
N            2.03088360553701        1.66647484652764        0.95544677241340
C            1.99454804624464        3.04740367849539        1.02557790595572
C            0.90877501161119        3.90225683079368        0.92930423935825
C            1.15095085671099        5.25969421571173        1.02096614506410
C            2.44051434694641        5.75619669640876        1.19237048389242
C            3.52749605026085        4.90741812945899        1.27800025503955
C            3.30878839455397        3.53961721720159        1.19700581741902
C            4.17788016934523        2.39637645599416        1.22955796519339
C            5.55560251984860        2.23144262731903        1.31869140390778
C            6.08776130485868        0.95752357997194        1.31042480749529
C            5.25529773067256       -0.16507275218822        1.28655788507775
C            5.62191812538493       -1.55670140739143        1.35056858048256
C            6.88885703292859       -2.13116556136231        1.35515651657394
C            7.01544653332020       -3.50457507851282        1.40789821778337
C            5.89212035279306       -4.32267357882887        1.46456484100851
C            4.62279838339863       -3.77629490037694        1.46531136336445
C            4.49992387557638       -2.39974015010258        1.40365644452140
S            2.99006513869071       -1.51414653411581        1.35670161372576
C            3.86189881248052       -0.00856907311585        1.22295582855621
C            3.33091575593835        1.26796681898758        1.11349582739515
C           -0.18505106056495        0.69001213322106        1.21974374204171
C           -0.26829057116320        1.25942244243836        2.48093415551651
N           -0.33882195723404        1.76525510433199        3.51902795660226
C           -1.21523690369384       -0.18163042106277        0.73713524659297
N           -2.39344671402681       -0.32821696297900        1.48212182547109
C           -2.96350350893599       -1.54844793634933        1.79125929780469
C           -2.36833263845494       -2.79992154680820        1.82739879234574
C           -3.16139271553438       -3.87817775933259        2.17346379818597
C           -4.50611216283522       -3.71280613555068        2.48968933635607
C           -5.08703351625409       -2.45670089279451        2.51408809422137
C           -4.30899914459078       -1.36105097475035        2.17712211403187
C           -4.54502728539204        0.05776651207809        2.13609663367306
C           -5.65940768793994        0.84280914135542        2.38290732752392
C           -5.54590611934996        2.21580571170337        2.25246299871504
C           -4.33656149554388        2.80221758462468        1.89600719713924
C           -3.21463511043693        2.03804352929364        1.63175726312157
C           -3.32760638096191        0.65913816330302        1.73876366268885
C           -1.03013381223981       -0.88294517578194       -0.43678543094393
N           -2.06273050029902       -1.68753788209909       -0.95232002517284
C           -2.07358350072887       -3.06794672465324       -1.03494481180604
C           -1.01827985430670       -3.96056083084237       -0.94262451532215
C           -1.30716871073809       -5.30790941387588       -1.04695533144681
C           -2.61240897153442       -5.75784149300361       -1.22815791331800
C           -3.66868591175743       -4.87112942369642       -1.31355043763694
C           -3.40309237848813       -3.51249924118269       -1.22005300249338
C           -4.23166206691657       -2.33937312579602       -1.25147741653054
C           -5.60155459675714       -2.12400139078337       -1.35431226417232
C           -6.08752416894562       -0.83169532721633       -1.34440556634388
C           -5.21588466592684        0.26032634649006       -1.30305308523263
C           -5.53096001018095        1.66477863595083       -1.36264167195189
C           -6.77594799820583        2.28507970563241       -1.38243958873380
C           -6.85174863342958        3.66249987519045       -1.42840476377395
C           -5.69880503993381        4.43959757547741       -1.46290634432667
C           -4.45027539704608        3.84738889963576       -1.44805083155934
C           -4.37853313916355        2.46693764973655       -1.39368896126174
S           -2.90244793579972        1.52690643472112       -1.33075022273021
C           -3.83012196849120        0.05292029215273       -1.22278907212042
C           -3.34674449567544       -1.24271929420914       -1.11867944551999
H            1.26753106916793        2.86302507600741       -1.61428664684755
H            2.64886028400816        4.81383519967848       -2.23042541818679
H            5.01837355991008        4.54900740259341       -2.79382470887399
H            6.06580856020486        2.31011116474381       -2.83715824169892
H            6.57176650757189       -0.40227350633665       -2.68875233182239
H            6.40837844105220       -2.85821706690405       -2.43099219497353
H            4.29473387894846       -3.90694539066303       -1.77894649797700
H            2.29548876033708       -2.55261439361355       -1.31297205982373
H           -0.09141585897167        3.52281415750491        0.78796084953662
H            0.32299977221556        5.94975007941793        0.95735992972219
H            2.58948930778403        6.82351456947647        1.25860173703011
H            4.52643162999234        5.29502288601983        1.40670038115201
H            6.19999890889772        3.09385034878241        1.38673805217051
H            7.15629485023181        0.81638408615717        1.35547513580821
H            7.76369189461494       -1.50078292033554        1.31157204556815
H            7.99828841573228       -3.95138146831068        1.40577369237873
H            6.01143900204579       -5.39465603148310        1.50659690941978
H            3.74491250223758       -4.40204051193010        1.50835607972674
H           -1.31826304328694       -2.92521160672551        1.61164916496050
H           -2.72662667911078       -4.86576184190821        2.19797699306762
H           -5.09779157693059       -4.57937703575652        2.74343555460909
H           -6.12039197553946       -2.32917471067695        2.79806284399506
H           -6.59516864509799        0.38785804978595        2.66969030559868
H           -6.40376907147792        2.84455411568181        2.43712473348029
H           -4.27182786977254        3.87689236834332        1.81861229024676
H           -2.28210671693504        2.50679253570323        1.36392028238862
H           -0.00590371713086       -3.61696328849237       -0.79656772166847
H           -0.50400919656287       -6.02686941697423       -0.98600605507483
H           -2.79812568724318       -6.81877994813908       -1.30348842579720
H           -4.67963137095866       -5.22266710566403       -1.45176843858762
H           -6.27599119523059       -2.96201237498132       -1.43505939437824
H           -7.14969560848883       -0.65197708087270       -1.40125299243404
H           -7.67366771900705        1.68674845548350       -1.35603023974008
H           -7.81763526359458        4.14476002895441       -1.43834633491026
H           -5.77847684868171        5.51544229432197       -1.49997566735573
H           -3.54963736311777        4.44099669016214       -1.47391634004934

 projected vibrational frequencies (cm⁻¹)
eigval :       -0.00    -0.00     0.00     0.00     0.00     0.00
eigval :        6.90    12.94    14.91    17.91    29.65    34.67
eigval :       36.17    38.51    44.04    45.49    50.58    55.05
eigval :       56.97    62.98    66.22    84.16    88.52    92.36
eigval :       94.98   101.69   105.32   111.30   112.77   114.96
eigval :      120.37   125.75   125.94   134.83   138.06   143.46
eigval :      144.27   150.47   172.96   173.45   193.60   194.89
eigval :      198.90   219.59   219.82   222.06   231.53   243.96
eigval :      249.12   255.48   257.95   265.63   270.90   279.16
eigval :      280.63   283.00   296.40   300.96   321.76   322.48
eigval :      352.76   370.71   377.04   388.96   393.59   396.12
eigval :      399.82   400.38   401.63   403.32   404.04   406.72
eigval :      421.23   422.97   426.47   427.05   434.80   435.67
eigval :      440.96   442.66   453.58   460.81   465.33   477.37
eigval :      477.43   478.21   478.43   492.19   494.44   501.30
eigval :      513.09   516.50   518.14   526.06   536.45   539.69
eigval :      540.23   541.47   543.75   543.93   546.90   552.33
eigval :      553.37   563.19   582.17   584.95   586.09   593.01
eigval :      598.20   601.18   608.58   613.15   617.94   636.40
eigval :      639.02   645.21   661.42   662.60   663.55   664.40
eigval :      674.99   676.08   682.72   682.84   689.60   701.37
eigval :      703.73   703.82   708.00   708.60   711.92   721.74
eigval :      741.41   752.45   754.57   765.78   765.92   768.66
eigval :      770.13   770.32   772.26   772.40   778.25   778.50
eigval :      792.29   802.05   815.92   815.95   834.04   835.06
eigval :      859.30   860.86   861.40   866.72   866.88   869.87
eigval :      869.89   875.30   875.42   891.12   891.24   892.02
eigval :      897.00   898.44   898.66   900.88   900.93   905.02
eigval :      905.24   905.59   905.60   916.72   916.75   919.08
eigval :      919.69   920.01   921.21   921.36   922.21   922.29
eigval :      922.33   971.10  1004.38  1012.18  1013.41  1025.21
eigval :     1037.10  1047.69  1050.47  1064.42  1067.29  1068.24
eigval :     1068.78  1069.72  1072.41  1072.67  1077.01  1077.03
eigval :     1083.37  1119.04  1119.42  1121.08  1140.16  1142.34
eigval :     1143.06  1145.45  1147.49  1152.47  1154.68  1161.09
eigval :     1161.34  1175.30  1177.32  1177.81  1178.25  1178.84
eigval :     1179.66  1181.97  1183.61  1191.46  1215.62  1218.48
eigval :     1224.36  1226.29  1226.66  1229.19  1230.37  1236.39
eigval :     1238.69  1255.61  1258.96  1274.85  1277.16  1282.44
eigval :     1283.51  1288.54  1289.00  1294.08  1294.88  1309.61
eigval :     1312.23  1328.11  1338.94  1339.06  1344.64  1347.59
eigval :     1348.01  1354.16  1355.81  1357.01  1362.14  1363.83
eigval :     1366.66  1379.55  1380.12  1381.80  1385.56  1389.03
eigval :     1408.36  1408.81  1412.78  1413.36  1415.56  1418.01
eigval :     1423.43  1429.17  1444.63  1445.92  1459.48  1459.67
eigval :     1461.21  1462.33  1464.05  1475.03  1475.26  1482.18
eigval :     1482.28  1525.43  1551.14  1551.26  1568.94  1569.05
eigval :     1569.19  1569.26  1570.07  1571.66  1581.00  1581.57
eigval :     1585.14  1585.20  1586.40  1586.64  1586.70  1587.17
eigval :     1599.92  1600.33  1605.12  1605.90  2244.74  2286.01
eigval :     3081.52  3081.66  3082.84  3082.98  3083.31  3083.44
eigval :     3083.62  3083.85  3086.98  3087.14  3087.57  3087.58
eigval :     3089.27  3089.45  3090.65  3091.00  3092.86  3092.97
eigval :     3094.47  3094.52  3094.77  3094.90  3096.29  3096.55
eigval :     3098.60  3098.93  3099.53  3099.84  3101.06  3101.32
eigval :     3101.97  3102.27  3103.86  3104.64  3111.19  3111.98

   temp. (K)  partition function   enthalpy   heat capacity  entropy
                                   cal/mol     cal/K/mol   cal/K/mol   J/K/mol
 298.15  VIB  0.720E+26            34816.376    221.981    215.093
         ROT  0.160E+09              888.752      2.981     40.519
         INT  0.115E+35            35705.129    224.962    255.612
         TR   0.306E+29             1481.254      4.968     46.564
         TOT                       37186.3825   229.9299   302.1763  1264.3055

       T/K    H(0)-H(T)+PV         H(T)/Eh          T*S/Eh         G(T)/Eh
   ------------------------------------------------------------------------
    298.15    0.592603E-01    0.874762E+00    0.143574E+00    0.731188E+00
   ------------------------------------------------------------------------

         :::::::::::::::::::::::::::::::::::::::::::::::::::::
         ::                  THERMODYNAMIC                  ::
         :::::::::::::::::::::::::::::::::::::::::::::::::::::
         :: total free energy        -187.367677534203 Eh   ::
         ::.................................................::
         :: total energy             -188.098865672307 Eh   ::
         :: zero point energy           0.815501561279 Eh   ::
         :: G(RRHO) w/o ZPVE           -0.084313423175 Eh   ::
         :: G(RRHO) contrib.            0.731188138104 Eh   ::
         :::::::::::::::::::::::::::::::::::::::::::::::::::::

           -------------------------------------------------
          | TOTAL ENERGY             -188.098865672307 Eh   |
          | TOTAL ENTHALPY           -187.224103838434 Eh   |
          | TOTAL FREE ENERGY        -187.367677534203 Eh   |
          | GRADIENT NORM               0.000037436295 Eh/α |
           -------------------------------------------------

 * finished run on 2025/07/17 at 17:20:28.069
