   * xtb version 6.7.1 (edcfbbe) compiled by 'albert@albert-system' on 2024-07-22

   ID    Z sym.   atoms
    1    7 N      1, 4, 7, 10, 19, 40
    2    6 C      2, 3, 5, 6, 8, 9, 11-18, 20-39, 41-58
    3    1 H      59-90

          program call               : xtb data2507/gas/BMIM/BMIM_gas_S0_crest.xyz --gfn 2 --ohess vtight --parallel 40 --molden --ceasefiles --namespace data2507/gas/BMIM/BMIM_gas_S0_finalOpt
          :  Hamiltonian                  GFN2-xTB          :
 * total energy  :  -145.1569239 Eh     change       -0.3533444E-08 Eh
 * total energy  :  -145.1569236 Eh     change        0.3710526E-06 Eh
 * total energy  :  -145.1569245 Eh     change       -0.9494231E-06 Eh
 * total energy  :  -145.1569225 Eh     change        0.2000056E-05 Eh
 * total energy  :  -145.1569255 Eh     change       -0.2954980E-05 Eh
 * total energy  :  -145.1569203 Eh     change        0.5136661E-05 Eh
 * total energy  :  -145.1569265 Eh     change       -0.6139543E-05 Eh
 * total energy  :  -145.1569270 Eh     change       -0.4766549E-06 Eh
 * total energy  :  -145.1569274 Eh     change       -0.4204039E-06 Eh
 * total energy  :  -145.1569278 Eh     change       -0.4761618E-06 Eh
 * total energy  :  -145.1569282 Eh     change       -0.3812943E-06 Eh
 * total energy  :  -145.1569286 Eh     change       -0.3820682E-06 Eh
 * total energy  :  -145.1569290 Eh     change       -0.4170009E-06 Eh
 * total energy  :  -145.1569293 Eh     change       -0.2660328E-06 Eh
 * total energy  :  -145.1569295 Eh     change       -0.1862846E-06 Eh
 * total energy  :  -145.1569297 Eh     change       -0.1707836E-06 Eh
 * total energy  :  -145.1569297 Eh     change       -0.5852002E-08 Eh
   *** GEOMETRY OPTIMIZATION CONVERGED AFTER 17 ITERATIONS ***

 final structure:
================
90
 xtb: 6.7.1 (edcfbbe)
N          -10.95071362541885       -1.88110817367897        0.49854823220214
C           -9.94214232950188       -1.35604821640832        0.35693544372133
C           -8.71099345588500       -0.67911522556520        0.17523569859942
N           -7.57930589583286       -1.37024562145913        0.35177807139594
C           -6.46558978488825       -0.69526951824971        0.17169092744940
C           -6.46501964641557        0.70102848014312       -0.18544146628876
N           -7.57820302193466        1.37756714826749       -0.36296101398726
C           -8.71044801122169        0.68806202357864       -0.18365283264155
C           -9.94104821446608        1.36689210946180       -0.36190062934519
N          -10.94910901155801        1.89384635606460       -0.50014244279891
C           -5.09284536602500        1.13971771277124       -0.29290810651793
C           -4.46576469825256        2.32858886955734       -0.58883807995021
C           -3.07072576796556        2.37020287562112       -0.51216264481642
C           -2.28345531202469        1.27276679364323       -0.18945365547763
C           -0.85859855867614        1.48589008312338        0.08118806007244
C           -0.03492414103164        2.17415630577799       -0.80570760839533
C            1.29281318662418        2.39562522219270       -0.51231735165698
C            1.83793887916915        1.96818672688145        0.70300077049453
N            3.17886999276102        2.19097176187590        0.99492877688474
C            3.90466337984026        1.32478477978678        1.82465681994252
C            4.89603917599661        1.83425966996345        2.66322824514060
C            5.63483042886598        0.98592134227382        3.46468866349232
C            5.39495491107287       -0.37837735602561        3.45220759126723
C            4.40522910999281       -0.88838000322881        2.62879905269625
C            3.66747748386590       -0.04865082429259        1.81714121792241
C            3.84890821288604        3.28765516839058        0.42411088214630
C            5.13114322053057        3.12959459629362       -0.09823864550001
C            5.78955708182027        4.20787025266107       -0.65746424600753
C            5.18122994498020        5.45156349236254       -0.70764662669267
C            3.90727299795242        5.61270820802314       -0.18778931717125
C            3.24303085270668        4.54157380182404        0.37864539067104
C            1.00023476805689        1.31305876050636        1.61041874076705
C           -0.31652478900266        1.06574853385127        1.29622744851360
C           -2.90208259623121        0.00131923995674       -0.00714431146969
C           -2.28421227051284       -1.27036968701970        0.17619351475521
C           -0.85864348678992       -1.48408920436372       -0.09011264141279
C           -0.31109519165091       -1.06237172447681       -1.30215456196779
C            1.00685303500388       -1.31004563970609       -1.61116820397002
C            1.84017566957611       -1.96772193830009       -0.70154503480010
N            3.18204238733717       -2.19160978748374       -0.98793434230309
C            3.84775756667752       -3.29125292329761       -0.41761173568064
C            3.24022656301857       -4.54461242241763       -0.37999562930256
C            3.90098580035749       -5.61896271369638        0.18441882297524
C            5.17295500664007       -5.46147173494477        0.71023848712453
C            5.78262124963012       -4.21811364399303        0.66857544128878
C            5.12770794665194       -3.13668477953076        0.11131184991041
C            3.91259741889899       -1.32612250889431       -1.81417224285907
C            3.67805121311857        0.04774817189425       -1.80627486275980
C            4.42050016927950        0.88677827854438       -2.61437729085440
C            5.41244035129998        0.37561993868746       -3.43439753818527
C            5.64968987449883       -0.98913024639690       -3.44726968413324
C            4.90615134612656       -1.83676082050142       -2.64946699234338
C            1.28954805183855       -2.39695289204529        0.51068335895077
C           -0.03911847696680       -2.17457486362783        0.79901048242151
C           -3.07261785106297       -2.36744679700270        0.49750522379095
C           -4.46766615320892       -2.32491317045807        0.57327140966443
C           -5.09378539197394       -1.13547442735912        0.27759629849718
C           -4.29994852195804        0.00177161682353       -0.00772344223214
H           -5.02971220274453        3.21570908013876       -0.83189735666439
H           -2.57584609537135        3.31929211059710       -0.66242490191874
H           -0.43154599851956        2.50484270156403       -1.75452677757743
H            1.92103921335744        2.90197918632884       -1.22999628711728
H            5.08124770578319        2.89822807197651        2.68280976078728
H            6.39850965572502        1.39523444094820        4.10932280585061
H            5.97288476760528       -1.03851935822716        4.08069840524713
H            4.21334010410948       -1.95132021306564        2.60835357651730
H            2.90165455818489       -0.45427323078737        1.17540332444767
H            5.60089727560238        2.15742684516551       -0.06694886861333
H            6.78081129364064        4.07296300279605       -1.06409314315231
H            5.69741631366528        6.29099973502890       -1.14783824857339
H            3.42989068555631        6.58096864006298       -0.21597467359358
H            2.25310986624373        4.66840046593119        0.79224860155506
H            1.38969428880477        1.00869170596507        2.57010970057583
H           -0.95112715470007        0.56952925541972        2.01573924356300
H           -0.94226111288687       -0.56462804247534       -2.02363079982555
H            1.40065643440122       -1.00413033528784       -2.56859806700316
H            2.25193762591394       -4.66848249479675       -0.79838157367073
H            3.42258604259235       -6.58688830273694        0.20613297670581
H            5.68657078039131       -6.30351452949782        1.14846189667783
H            6.77227722395939       -4.08609925879005        1.08002211177040
H            5.59852778502637       -2.16484008908879        0.08630573207513
H            2.91061585457414        0.45416869609375       -1.16699865677296
H            4.23064716714904        1.95007502288605       -2.59370611368662
H            5.99415085225659        1.03524341522256       -4.05993845873127
H            6.41505767898647       -1.39934841235656       -4.08932675313739
H            5.08929894700262       -2.90107764316389       -2.66945054460937
H            1.91431940606460       -2.90541764792652        1.22989441899496
H           -0.43993069061435       -2.50644013335045        1.74565515950486
H           -2.57853231835732       -3.31688960536895        0.64812815001904
H           -5.03236110622048       -3.21163666258435        0.81605010121694

          :  Hamiltonian                  GFN2-xTB          :
         :: gradient norm              0.000180442257 Eh/a0 ::
         :: HOMO-LUMO gap              1.103167603637 eV    ::
         :: SCC energy              -147.925697310816 Eh    ::
         :: -> dispersion             -0.147829803011 Eh    ::
         :: repulsion energy           2.768767652470 Eh    ::

    * Orbital Energies and Occupations

         #    Occupation            Energy/Eh            Energy/eV
      -------------------------------------------------------------
         1        2.0000           -0.7006584             -19.0659
       ...           ...                  ...                  ...
       123        2.0000           -0.4213699             -11.4661
       124        2.0000           -0.4195929             -11.4177
       125        2.0000           -0.4188314             -11.3970
       126        2.0000           -0.4183136             -11.3829
       127        2.0000           -0.4169688             -11.3463
       128        2.0000           -0.4157498             -11.3131
       129        2.0000           -0.4151526             -11.2969
       130        2.0000           -0.4150349             -11.2937
       131        2.0000           -0.4059726             -11.0471
       132        2.0000           -0.4008733             -10.9083
       133        2.0000           -0.3717590             -10.1161
       134        2.0000           -0.3638748              -9.9015
       135        2.0000           -0.3610722              -9.8253 (HOMO)
       136                         -0.3205315              -8.7221 (LUMO)
       137                         -0.3025152              -8.2319
       138                         -0.2819554              -7.6724
       139                         -0.2512944              -6.8381
       140                         -0.2493317              -6.7847
       141                         -0.2441931              -6.6448
       142                         -0.2430210              -6.6129
       143                         -0.2425022              -6.5988
       144                         -0.2407800              -6.5520
       145                         -0.2382484              -6.4831
       146                         -0.2362463              -6.4286
       ...                                ...                  ...
       264                          1.1741165              31.9493
      -------------------------------------------------------------
                  HL-Gap            0.0405407 Eh            1.1032 eV

     #   Z          covCN         q      C6AA      α(0)
     1   7 N        0.911    -0.199    25.322     7.278
     2   6 C        1.910     0.113    28.318     8.594
     3   6 C        2.979     0.096    25.872     8.343
     4   7 N        1.843    -0.219    26.611     7.645
     5   6 C        3.071     0.087    25.994     8.360
     6   6 C        3.071     0.087    25.994     8.360
     7   7 N        1.843    -0.219    26.611     7.645
     8   6 C        2.979     0.096    25.872     8.343
     9   6 C        1.910     0.113    28.318     8.594
    10   7 N        0.911    -0.199    25.322     7.278
    11   6 C        3.037    -0.011    28.250     8.718
    12   6 C        2.910    -0.015    28.386     8.736
    13   6 C        2.927    -0.036    28.898     8.816
    14   6 C        2.976     0.020    27.562     8.612
    15   6 C        2.978     0.002    27.974     8.676
    16   6 C        2.922    -0.033    28.827     8.805
    17   6 C        2.922    -0.050    29.253     8.869
    18   6 C        2.921     0.066    26.517     8.444
    19   7 N        2.752    -0.071    22.625     7.064
    20   6 C        2.924     0.064    26.564     8.452
    21   6 C        2.923    -0.047    29.165     8.856
    22   6 C        2.920    -0.029    28.716     8.788
    23   6 C        2.919    -0.037    28.924     8.819
    24   6 C        2.920    -0.028    28.694     8.784
    25   6 C        2.922    -0.048    29.202     8.862
    26   6 C        2.927     0.065    26.547     8.450
    27   6 C        2.922    -0.043    29.074     8.842
    28   6 C        2.920    -0.028    28.705     8.786
    29   6 C        2.919    -0.036    28.885     8.813
    30   6 C        2.920    -0.029    28.717     8.788
    31   6 C        2.922    -0.045    29.120     8.849
    32   6 C        2.921    -0.050    29.252     8.869
    33   6 C        2.925    -0.029    28.734     8.791
    34   6 C        2.977     0.007    27.858     8.658
    35   6 C        2.976     0.020    27.562     8.612
    36   6 C        2.978     0.002    27.975     8.676
    37   6 C        2.925    -0.029    28.734     8.791
    38   6 C        2.921    -0.050    29.252     8.869
    39   6 C        2.920     0.066    26.516     8.444
    40   7 N        2.752    -0.071    22.625     7.064
    41   6 C        2.927     0.065    26.547     8.450
    42   6 C        2.922    -0.045    29.119     8.849
    43   6 C        2.920    -0.029    28.717     8.788
    44   6 C        2.919    -0.036    28.885     8.813
    45   6 C        2.920    -0.028    28.705     8.786
    46   6 C        2.922    -0.043    29.074     8.842
    47   6 C        2.924     0.064    26.565     8.452
    48   6 C        2.922    -0.048    29.202     8.862
    49   6 C        2.920    -0.028    28.694     8.784
    50   6 C        2.919    -0.037    28.924     8.819
    51   6 C        2.920    -0.029    28.716     8.788
    52   6 C        2.923    -0.047    29.166     8.856
    53   6 C        2.922    -0.050    29.253     8.869
    54   6 C        2.922    -0.033    28.827     8.805
    55   6 C        2.927    -0.036    28.899     8.816
    56   6 C        2.910    -0.015    28.387     8.736
    57   6 C        3.037    -0.011    28.250     8.718
    58   6 C        3.141    -0.008    27.969     8.654
    59   1 H        0.926     0.055     2.263     2.352
    60   1 H        0.926     0.043     2.407     2.426
    61   1 H        0.926     0.035     2.518     2.482
    62   1 H        0.926     0.035     2.512     2.478
    63   1 H        0.926     0.032     2.553     2.498
    64   1 H        0.926     0.034     2.529     2.487
    65   1 H        0.926     0.032     2.553     2.499
    66   1 H        0.926     0.030     2.584     2.514
    67   1 H        0.926     0.034     2.530     2.487
    68   1 H        0.926     0.034     2.536     2.491
    69   1 H        0.926     0.035     2.518     2.481
    70   1 H        0.926     0.035     2.523     2.484
    71   1 H        0.926     0.035     2.511     2.478
    72   1 H        0.926     0.034     2.529     2.487
    73   1 H        0.926     0.036     2.497     2.471
    74   1 H        0.926     0.032     2.554     2.499
    75   1 H        0.926     0.032     2.554     2.499
    76   1 H        0.926     0.036     2.498     2.471
    77   1 H        0.926     0.034     2.529     2.487
    78   1 H        0.926     0.035     2.511     2.478
    79   1 H        0.926     0.035     2.523     2.484
    80   1 H        0.926     0.035     2.517     2.481
    81   1 H        0.926     0.034     2.536     2.490
    82   1 H        0.926     0.034     2.530     2.487
    83   1 H        0.926     0.030     2.584     2.514
    84   1 H        0.926     0.032     2.553     2.499
    85   1 H        0.926     0.034     2.529     2.487
    86   1 H        0.926     0.032     2.553     2.499
    87   1 H        0.926     0.035     2.512     2.479
    88   1 H        0.926     0.035     2.518     2.482
    89   1 H        0.926     0.043     2.407     2.426
    90   1 H        0.926     0.055     2.263     2.352

molecular dipole:
                 x           y           z       tot (Debye)
 q only:        5.251      -0.004      -0.000
   full:        6.015      -0.005      -0.002      15.290

 projected vibrational frequencies (cm⁻¹)
eigval :       -0.00    -0.00    -0.00     0.00     0.00     0.00
eigval :       16.31    17.24    21.87    22.01    31.08    32.37
eigval :       40.91    45.56    51.16    54.41    60.67    67.49
eigval :       67.62    71.82    73.95    77.82    86.78    91.21
eigval :       96.92   100.33   119.26   124.10   135.29   141.69
eigval :      143.26   160.59   164.90   172.83   184.84   196.90
eigval :      221.99   234.44   234.76   242.89   243.13   280.89
eigval :      282.02   295.96   308.35   314.32   324.43   329.29
eigval :      350.58   354.65   361.80   379.49   380.88   383.12
eigval :      383.51   390.09   390.76   394.44   396.24   396.97
eigval :      420.17   424.34   424.94   425.48   459.41   470.72
eigval :      480.70   482.48   493.97   496.17   505.19   515.02
eigval :      522.08   529.05   541.17   544.52   557.12   577.35
eigval :      584.88   586.70   587.16   588.84   594.39   596.18
eigval :      604.04   608.91   613.46   630.15   635.20   648.37
eigval :      659.98   662.01   665.35   667.46   669.80   679.07
eigval :      685.24   685.71   700.06   702.38   724.51   742.99
eigval :      746.59   751.62   757.61   760.85   761.15   762.47
eigval :      778.88   815.08   818.81   833.36   842.01   842.95
eigval :      868.63   869.93   877.16   877.99   878.46   879.67
eigval :      894.63   896.88   897.34   898.33   903.34   909.42
eigval :      909.95   912.94   915.22   915.40   920.07   921.36
eigval :      927.09   927.30   928.91   929.33   930.30   931.16
eigval :      931.47   931.70   936.41   939.52   944.05   975.74
eigval :      987.53   997.21  1005.83  1006.30  1018.19  1031.76
eigval :     1072.84  1082.38  1082.43  1086.06  1087.49  1112.75
eigval :     1121.12  1121.51  1123.98  1127.33  1129.14  1136.08
eigval :     1145.67  1146.48  1167.20  1180.18  1180.32  1180.97
eigval :     1181.16  1187.77  1188.33  1189.68  1196.20  1196.86
eigval :     1198.15  1201.83  1213.70  1217.94  1227.48  1236.12
eigval :     1267.83  1271.52  1272.19  1277.95  1278.93  1280.60
eigval :     1284.95  1290.15  1306.78  1310.19  1313.15  1315.08
eigval :     1316.93  1323.09  1325.09  1326.31  1326.53  1328.42
eigval :     1331.56  1331.74  1342.16  1360.31  1371.60  1383.79
eigval :     1414.76  1415.51  1422.13  1435.63  1436.45  1440.39
eigval :     1442.28  1442.66  1467.95  1470.63  1470.88  1474.74
eigval :     1475.42  1495.32  1496.14  1524.04  1527.53  1549.73
eigval :     1549.93  1564.14  1578.20  1578.36  1581.76  1582.34
eigval :     1583.36  1591.77  1593.44  1594.43  1595.09  1597.29
eigval :     1600.82  1602.24  2366.10  2367.87  3077.13  3077.25
eigval :     3077.83  3078.10  3078.75  3078.87  3079.22  3079.45
eigval :     3080.04  3080.37  3080.51  3080.89  3081.24  3081.90
eigval :     3087.62  3087.77  3089.26  3089.40  3091.58  3091.74
eigval :     3092.78  3093.54  3095.81  3096.32  3098.22  3098.47
eigval :     3100.05  3100.18  3101.54  3101.86  3113.52  3115.71

   temp. (K)  partition function   enthalpy   heat capacity  entropy
                                   cal/mol     cal/K/mol   cal/K/mol   J/K/mol
 298.15  VIB  0.533E+21            27270.080    170.591    170.262
         ROT  0.657E+08              888.752      2.981     38.752
         INT  0.350E+29            28158.832    173.572    209.014
         TR   0.195E+29             1481.254      4.968     45.667
         TOT                       29640.0859   178.5397   254.6811  1065.5858

       T/K    H(0)-H(T)+PV         H(T)/Eh          T*S/Eh         G(T)/Eh
   ------------------------------------------------------------------------
    298.15    0.472345E-01    0.722208E+00    0.121007E+00    0.601201E+00
   ------------------------------------------------------------------------

         :::::::::::::::::::::::::::::::::::::::::::::::::::::
         ::                  THERMODYNAMIC                  ::
         :::::::::::::::::::::::::::::::::::::::::::::::::::::
         :: total free energy        -144.555729034628 Eh   ::
         ::.................................................::
         :: total energy             -145.156929658331 Eh   ::
         :: zero point energy           0.674973357547 Eh   ::
         :: G(RRHO) w/o ZPVE           -0.073772733844 Eh   ::
         :: G(RRHO) contrib.            0.601200623703 Eh   ::
         :::::::::::::::::::::::::::::::::::::::::::::::::::::

           -------------------------------------------------
          | TOTAL ENERGY             -145.156929658331 Eh   |
          | TOTAL ENTHALPY           -144.434721817296 Eh   |
          | TOTAL FREE ENERGY        -144.555729034628 Eh   |
          | GRADIENT NORM               0.000180733639 Eh/α |
          | HOMO-LUMO GAP               1.103168190338 eV   |
           -------------------------------------------------

 * finished run on 2025/07/16 at 21:58:05.536
