   * xtb version 6.7.1 (edcfbbe) compiled by 'albert@albert-system' on 2024-07-22

   ID    Z sym.   atoms
    1    7 N      1, 4, 7, 10, 19, 40
    2    6 C      2, 3, 5, 6, 8, 9, 11-18, 20-39, 41-58
    3    1 H      59-90

          program call               : xtb data2507/gas/BMIM/BMIM_gas_T1_crest.xyz --gfn 2 --spinpol --tblite --uhf 2 --ohess vtight --parallel 40 --molden --ceasefiles --namespace data2507/gas/BMIM/BMIM_gas_T1_finalOpt
 * total energy  :  -145.1098130 Eh     change       -0.4518341E-08 Eh
 * total energy  :  -145.1098241 Eh     change       -0.1112574E-04 Eh
 * total energy  :  -145.1098192 Eh     change        0.4925486E-05 Eh
 * total energy  :  -145.1098333 Eh     change       -0.1415429E-04 Eh
 * total energy  :  -145.1098343 Eh     change       -0.9927688E-06 Eh
 * total energy  :  -145.1098349 Eh     change       -0.6206369E-06 Eh
 * total energy  :  -145.1098342 Eh     change        0.7154152E-06 Eh
 * total energy  :  -145.1098352 Eh     change       -0.9546755E-06 Eh
 * total energy  :  -145.1098354 Eh     change       -0.2131964E-06 Eh
 * total energy  :  -145.1098359 Eh     change       -0.5422858E-06 Eh
 * total energy  :  -145.1098375 Eh     change       -0.1166449E-06 Eh
 * total energy  :  -145.1098376 Eh     change       -0.1144507E-06 Eh
 * total energy  :  -145.1098376 Eh     change       -0.3563230E-09 Eh
 * total energy  :  -145.1098374 Eh     change        0.2177141E-06 Eh
 * total energy  :  -145.1098376 Eh     change       -0.2143099E-06 Eh
 * total energy  :  -145.1098375 Eh     change        0.5243436E-07 Eh
 * total energy  :  -145.1098377 Eh     change       -0.1332912E-06 Eh
 * total energy  :  -145.1098376 Eh     change        0.1025159E-06 Eh
 * total energy  :  -145.1098376 Eh     change       -0.6641253E-07 Eh
   *** GEOMETRY OPTIMIZATION CONVERGED AFTER 27 ITERATIONS ***

 final structure:
================
90
 xtb: 6.7.1 (edcfbbe)
N          -10.94122403700396       -1.92299880232170       -0.49114044915940
C           -9.94064978172365       -1.37511931543198       -0.34918595967945
C           -8.72565104244851       -0.70080897312436       -0.17460649212624
N           -7.57769351589012       -1.32788962462380       -0.33939144376130
C           -6.44289138906547       -0.72638279390756       -0.18126523289699
C           -6.44207722502191        0.72943340136447        0.20036642223349
N           -7.57618164991947        1.33241534299797        0.35782698565696
C           -8.72485700754160        0.70685888887241        0.19223139489140
C           -9.93906320299369        1.38291737280255        0.36553952949844
N          -10.93895671295124        1.93238582260267        0.50613593868638
C           -5.08792910746814        1.13932057917441        0.30260864821012
C           -4.44899771072732        2.33760013563901        0.60663186437142
C           -3.06360633930759        2.37009730603658        0.53152454993167
C           -2.27719730087215        1.26612141692246        0.20046525622460
C           -0.85211486845160        1.47732870304812       -0.06789519305677
C           -0.30794404475904        1.07027372956812       -1.28802107691264
C            1.00855685510829        1.32126363032678       -1.60101031039800
C            1.84253969260239        1.97241315298864       -0.68824117575135
N            3.18583314739699        2.20924200988800       -0.98028184798089
C            3.82802462121020        3.32887880202877       -0.42775886859485
C            3.18570795572384        4.56576469100787       -0.39170234676365
C            3.82119273797334        5.66101742883423        0.16054750854145
C            5.10098717977244        5.54149979897056        0.67819216724878
C            5.74441931135187        4.31486570270575        0.64000592448919
C            5.11633732537081        3.21268704855690        0.09322403775448
C            3.92392911815984        1.34140447825125       -1.79142660475835
C            3.68036197508234       -0.03212609744158       -1.78760832379398
C            4.43112400263906       -0.87598567423849       -2.58207165877900
C            5.43831578212319       -0.37152023979993       -3.38811268715053
C            5.68231163207720        0.99242830217490       -3.40044911794092
C            4.93288658057816        1.84522022381901       -2.61454977953676
C            1.30003993125596        2.38594341681257        0.53261646407130
C           -0.02617713971572        2.15574028160034        0.82649614879439
C           -2.89790393075904        0.00003470843729        0.00771394975686
C           -2.27825317911132       -1.26635745142248       -0.18647562960544
C           -0.85240745845868       -1.47809823434468        0.07740861935148
C           -0.02998206311897       -2.15719378296624       -0.81973367628732
C            1.29728439320675       -2.38752564044458       -0.53078790099898
C            1.84457218535905       -1.97326254285095        0.68767438034409
N            3.18903513183267       -2.21024049212383        0.97432957611941
C            3.82789010039132       -3.33122670165351        0.42048967549345
C            3.18509257527631       -4.56801699653107        0.39105234329767
C            3.81730254411094       -5.66479568772335       -0.16193539979017
C            5.09419120581725       -5.54679318941289       -0.68704688624966
C            5.73796000326493       -4.32013749577961       -0.65578471626592
C            5.11316015416196       -3.21647399388016       -0.10822104823541
C            3.93142807252591       -1.34179195023552        1.78075875034440
C            3.68729874242615        0.03164885090136        1.77780736718541
C            4.44256558110568        0.87621174870586        2.56722823478422
C            5.45496281058418        0.37260823638037        3.36725258994143
C            5.69949460417720       -0.99124949623646        3.37884654032572
C            4.94554559805562       -1.84475856956471        2.59808032531759
C            1.01419120315305       -1.32156086588794        1.60331353759212
C           -0.30351400570055       -1.07060624192434        1.29527422448051
C           -3.06604047152323       -2.36986050274027       -0.51586873028193
C           -4.45153051237257       -2.33641525727349       -0.58876361149245
C           -5.08919212086939       -1.13763429307577       -0.28404822858642
C           -4.29699412288398        0.00049645668833        0.00892480351766
H           -5.01192638770369        3.22260228090997        0.85770605459884
H           -2.56126866333474        3.31390393936119        0.69317787364620
H           -0.94260559676542        0.57984542692989       -2.01103919199283
H            1.39881106338132        1.02879393099509       -2.56434384390688
H            2.19182016457723        4.65973056820341       -0.80405887862354
H            3.31678195837110        6.61547273968977        0.17993153225096
H            5.59428609157216        6.39975095926180        1.10791292630048
H            6.73968174485285        4.21253740335718        1.04613739892553
H            5.61254766038021        2.25340117797244        0.07326436898713
H            2.90027605917096       -0.43358732384264       -1.16103808199056
H            4.23454294155311       -1.93805755551380       -2.56374482153869
H            6.02508801181903       -1.03504577813203       -4.00451746501347
H            6.45746201559907        1.39759270834742       -4.03368892314853
H            5.11939628293776        2.90876571563630       -2.63774113757584
H            1.92949622478391        2.88620314586435        1.25394880483055
H           -0.42326914086254        2.47821320199775        1.77779375195953
H           -0.43074526624971       -2.48006963952904       -1.76935218368982
H            1.92390249988991       -2.88840686404974       -1.25416490052592
H            2.19348581835136       -4.66067066782905        0.80916128590074
H            3.31268354800372       -6.61923295747321       -0.17599026270524
H            5.58499595788325       -6.40625163915330       -1.11721248077584
H            6.73089574557438       -4.21901297050572       -1.06787143840865
H            5.60959030340307       -2.25720341529236       -0.09345553128029
H            2.90327347324297        0.43250200436408        1.15579518850580
H            4.24545040258506        1.93819312704607        2.54957718049311
H            6.04532819232497        1.03671561353534        3.97958338231386
H            6.47869522080999       -1.39579113322142        4.00749851020346
H            5.13259020819720       -2.90821594720133        2.62082974056013
H            1.40822348745116       -1.02862465950281        2.56497065089562
H           -0.93532832878745       -0.57979139877165        2.02052098765501
H           -2.56464620708084       -3.31402033480676       -0.67838192199212
H           -5.01544179544655       -3.22103141829379       -0.83899798337745

 projected vibrational frequencies (cm⁻¹)
eigval :       -0.00    -0.00    -0.00     0.00     0.00     0.00
eigval :       16.80    17.34    21.58    22.31    31.42    32.30
eigval :       45.52    45.69    51.62    56.01    60.76    67.62
eigval :       68.01    72.93    74.94    79.40    86.89    91.96
eigval :       96.89   101.70   120.33   123.65   136.57   141.99
eigval :      143.80   164.05   165.72   173.93   185.06   198.35
eigval :      220.24   233.95   234.49   242.90   243.00   277.14
eigval :      287.87   301.18   308.73   318.72   322.93   332.05
eigval :      350.05   354.46   363.59   378.84   380.27   381.38
eigval :      382.09   382.99   383.75   394.50   395.16   401.60
eigval :      411.28   421.20   423.62   427.09   458.46   464.69
eigval :      469.29   474.31   479.59   495.27   496.35   497.19
eigval :      508.39   518.87   528.72   534.78   552.67   572.25
eigval :      584.11   584.12   585.84   586.67   589.49   593.83
eigval :      595.00   605.36   609.15   609.43   625.23   626.78
eigval :      643.11   644.09   660.76   660.97   666.22   666.79
eigval :      673.47   674.86   683.95   691.44   696.13   720.47
eigval :      728.27   745.88   756.70   758.91   760.73   761.96
eigval :      769.61   808.51   809.78   822.16   822.80   833.84
eigval :      867.10   868.70   875.35   875.47   877.38   879.32
eigval :      893.21   896.09   898.13   898.37   899.08   900.19
eigval :      903.43   909.13   909.80   913.53   919.20   921.52
eigval :      927.16   927.59   928.73   929.07   930.30   931.09
eigval :      931.41   931.58   935.59   937.07   939.98   958.17
eigval :      983.57   985.81  1004.80  1005.09  1009.97  1015.85
eigval :     1048.93  1067.36  1081.84  1081.90  1085.61  1087.15
eigval :     1119.93  1121.17  1121.67  1124.35  1127.75  1128.60
eigval :     1134.34  1143.92  1145.01  1179.74  1179.88  1180.58
eigval :     1180.80  1184.23  1184.62  1186.95  1189.55  1194.82
eigval :     1195.54  1196.43  1200.55  1213.21  1216.67  1226.67
eigval :     1231.82  1266.55  1270.14  1271.04  1277.01  1277.48
eigval :     1277.98  1283.60  1287.33  1304.79  1306.36  1314.48
eigval :     1314.74  1317.36  1319.73  1324.01  1324.45  1326.81
eigval :     1327.86  1330.03  1336.54  1359.12  1360.11  1403.87
eigval :     1410.08  1413.29  1413.99  1433.12  1435.03  1435.06
eigval :     1441.50  1441.71  1465.55  1466.48  1466.59  1469.01
eigval :     1469.46  1482.55  1484.27  1495.59  1512.20  1539.43
eigval :     1543.10  1544.63  1545.04  1574.17  1574.26  1577.90
eigval :     1578.09  1582.14  1583.75  1588.34  1588.65  1589.08
eigval :     1595.92  1597.11  2321.02  2322.68  3070.85  3071.11
eigval :     3078.00  3078.03  3079.25  3079.39  3080.36  3080.53
eigval :     3081.34  3081.54  3081.73  3081.77  3082.97  3083.31
eigval :     3088.91  3089.15  3090.27  3090.41  3090.93  3091.49
eigval :     3092.94  3093.01  3094.31  3094.98  3099.67  3099.98
eigval :     3100.95  3101.45  3101.45  3101.71  3115.48  3117.97

   temp. (K)  partition function   enthalpy   heat capacity  entropy
                                   cal/mol     cal/K/mol   cal/K/mol   J/K/mol
 298.15  VIB  0.462E+21            27421.316    172.112    170.856
         ROT  0.659E+08              888.752      2.981     38.759
         INT  0.305E+29            28310.069    175.093    209.616
         TR   0.195E+29             1481.254      4.968     45.667
         TOT                       29791.3227   180.0614   255.2825  1068.1018

       T/K    H(0)-H(T)+PV         H(T)/Eh          T*S/Eh         G(T)/Eh
   ------------------------------------------------------------------------
    298.15    0.474755E-01    0.719681E+00    0.121293E+00    0.598388E+00
   ------------------------------------------------------------------------

         :::::::::::::::::::::::::::::::::::::::::::::::::::::
         ::                  THERMODYNAMIC                  ::
         :::::::::::::::::::::::::::::::::::::::::::::::::::::
         :: total free energy        -144.511449199750 Eh   ::
         ::.................................................::
         :: total energy             -145.109837667611 Eh   ::
         :: zero point energy           0.672205910941 Eh   ::
         :: G(RRHO) w/o ZPVE           -0.073817443080 Eh   ::
         :: G(RRHO) contrib.            0.598388467861 Eh   ::
         :::::::::::::::::::::::::::::::::::::::::::::::::::::

           -------------------------------------------------
          | TOTAL ENERGY             -145.109837667611 Eh   |
          | TOTAL ENTHALPY           -144.390156261945 Eh   |
          | TOTAL FREE ENERGY        -144.511449199750 Eh   |
          | GRADIENT NORM               0.000150479909 Eh/α |
           -------------------------------------------------

 * finished run on 2025/07/16 at 22:09:13.767
