   * xtb version 6.7.1 (edcfbbe) compiled by 'albert@albert-system' on 2024-07-22

   ID    Z sym.   atoms
    1    7 N      1, 4, 7, 10, 19, 40
    2    6 C      2, 3, 5, 6, 8, 9, 11-18, 20-39, 41-58
    3    1 H      59-90

          program call               : xtb data2507/gas/BMIM/BMIM_gas_S0_finalOpt.xtbopt.xyz --gfn 2 --spinpol --tblite --uhf 2 --ohess vtight --parallel 40 --molden --ceasefiles --namespace data2507/gas/BMIM/BMIM_gas_T1_preOpt
 * total energy  :  -145.1030317 Eh     change       -0.9745520E-08 Eh
 * total energy  :  -145.1070210 Eh     change       -0.3989279E-02 Eh
 * total energy  :  -145.1096099 Eh     change       -0.2588967E-02 Eh
 * total energy  :  -145.1095811 Eh     change        0.2882084E-04 Eh
 * total energy  :  -145.1097772 Eh     change       -0.1960803E-03 Eh
 * total energy  :  -145.1097837 Eh     change       -0.6514549E-05 Eh
 * total energy  :  -145.1097655 Eh     change        0.1818048E-04 Eh
 * total energy  :  -145.1097905 Eh     change       -0.2501029E-04 Eh
 * total energy  :  -145.1097966 Eh     change       -0.6112397E-05 Eh
 * total energy  :  -145.1097998 Eh     change       -0.3201126E-05 Eh
 * total energy  :  -145.1098323 Eh     change       -0.1396663E-06 Eh
 * total energy  :  -145.1098325 Eh     change       -0.2093909E-06 Eh
 * total energy  :  -145.1098328 Eh     change       -0.2934718E-06 Eh
 * total energy  :  -145.1098331 Eh     change       -0.2414298E-06 Eh
 * total energy  :  -145.1098333 Eh     change       -0.2796546E-06 Eh
 * total energy  :  -145.1098333 Eh     change        0.5501008E-07 Eh
 * total energy  :  -145.1098335 Eh     change       -0.2432598E-06 Eh
 * total energy  :  -145.1098337 Eh     change       -0.1220547E-06 Eh
 * total energy  :  -145.1098337 Eh     change       -0.8376637E-07 Eh
   *** GEOMETRY OPTIMIZATION CONVERGED AFTER 44 ITERATIONS ***

 final structure:
================
90
 xtb: 6.7.1 (edcfbbe)
N          -10.94228837793408       -1.92351392371292        0.48376056771637
C           -9.94171436012568       -1.37513974027864        0.34374921513386
C           -8.72669124478799       -0.70025968783767        0.17165610785216
N           -7.57877022518559       -1.32766274475178        0.33522190236127
C           -6.44388533303305       -0.72565575916594        0.17996139462206
C           -6.44289393146803        0.73162240718931       -0.19641006428863
N           -7.57697003035791        1.33477353564264       -0.35310592265815
C           -8.72574258464832        0.70854818030605       -0.19093385239796
C           -9.93987706652724        1.38470097540597       -0.36428289331999
N          -10.93975194581573        1.93409054790311       -0.50529626253391
C           -5.08869630243373        1.14195691835662       -0.29605961632654
C           -4.44953308016969        2.34139567610695       -0.59498626002827
C           -3.06417004988399        2.37358074243253       -0.51895948977607
C           -2.27793134277763        1.26822957119586       -0.19213740234989
C           -0.85289396332508        1.47782016480528        0.07767871178500
C           -0.02611244155059        2.15973513841382       -0.81324786099996
C            1.30052528028046        2.38654428438673       -0.51853044184758
C            1.84291227690575        1.96589666940296        0.70001624131307
N            3.18703025386092        2.19616404079829        0.99242269418595
C            3.92044174109172        1.32429471819390        1.80398570650056
C            4.92736390455970        1.82392489137657        2.63201942717821
C            5.67167825633846        0.96747184444138        3.41884581282966
C            5.42461536230192       -0.39588527763582        3.40208690745036
C            4.41994792867959       -0.89624242609000        2.59036496274803
C            3.67425776819607       -0.04863744166907        1.79508530352957
C            3.83797913945937        3.31000514313192        0.43848489711149
C            5.12544514012749        3.18206756384988       -0.08188089954445
C            5.76328509791921        4.27800457776694       -0.62981742171306
C            5.13044521720319        5.51007813171872       -0.66974809644205
C            3.85155366914987        5.64128720190622       -0.15269020923058
C            3.20634916490742        4.55228695745624        0.40072742626005
C            1.00755459878575        1.31258893121165        1.61012639971234
C           -0.30927393829119        1.06489187352413        1.29609547579138
C           -2.89886111808555        0.00138628559126       -0.00489628305344
C           -2.27940642026925       -1.26596458057640        0.18376709625361
C           -0.85386471637459       -1.47673788268117       -0.08248158738480
C           -0.30666852222040       -1.06420943633938       -1.29941674493181
C            1.01078717992128       -1.31306794561407       -1.60997495784528
C            1.84311254247694       -1.96718532775132       -0.69770238128792
N            3.18782669673626       -2.19871343334510       -0.98656307196487
C            3.83629082053594       -3.31314376151508       -0.43082807875865
C            3.20342755983238       -4.55483433493191       -0.39468671813540
C            3.84615225742707       -5.64438512678496        0.16054523447285
C            5.12377854463652       -5.51431030316953        0.68100264061920
C            5.75785011917034       -4.28282170500183        0.64266742703057
C            5.12246801943786       -3.18633437008234        0.09296333158947
C            3.92422488225834       -1.32754787500277       -1.79622858308531
C            3.67941007605492        0.04561929443198       -1.78794917259396
C            4.42805050019378        0.89246413375029       -2.58127959638078
C            5.43432609885693        0.39108114176368       -3.39036994684699
C            5.68003544214101       -0.97252543635179       -3.40649510861017
C            4.93277804130174       -1.82821927639087       -2.62162138362497
C            1.29716636015302       -2.38739471332803        0.51938305994012
C           -0.03005019514996       -2.15941310946340        0.81059991736068
C           -3.06728020130669       -2.37066267602020        0.50885365943557
C           -4.45276427343787       -2.33728444166929        0.58202418780064
C           -5.09025633253708       -1.13726832973720        0.28185791163254
C           -4.29793117821896        0.00198447338771       -0.00637485048198
H           -5.01229288703629        3.22741859637939       -0.84283556108984
H           -2.56175698093635        3.31805309859699       -0.67642530777696
H           -0.42277212273894        2.48739967250985       -1.76295341139270
H            1.93039837494698        2.88921743005080       -1.23780092738308
H            5.11626770107191        2.88698917983236        2.65812054958143
H            6.44519809107387        1.36923173841110        4.05622981028742
H            6.00726675031413       -1.06226177657458        4.01932574253812
H            4.22163381067698       -1.95790539716587        2.56808685343945
H            2.89609464046191       -0.44636963833698        1.16377949368264
H            5.61325714564945        2.21851738680071       -0.06069758594687
H            6.75773999429791        4.16647806552573       -1.03549751242880
H            5.63128120132642        6.36349825049075       -1.10037589383930
H            3.35547902210756        6.60007287173413       -0.17346079472054
H            2.21321950065730        4.65536093798251        0.81272679184520
H            1.39725386463108        1.01520097111787        2.57216886745423
H           -0.94455466229880        0.57208979363266        2.01695758075931
H           -0.93958672320592       -0.57078898244128       -2.02193029591425
H            1.40329934887881       -1.01593736632788       -2.57095319789891
H            2.21130377276852       -4.65703747930745       -0.80931676092277
H            3.34914185172474       -6.60271044091228        0.18006086733720
H            5.62267815949339       -6.36815496366322        1.11302955841572
H            6.75131565794907       -4.17216916972171        1.05099888793062
H            5.61121668109209       -2.22323352545963        0.07302392403188
H            2.90000115777032        0.44414658229117       -1.15868610106312
H            4.23077382199621        1.95432945926705       -2.55950890123495
H            6.01927937095941        1.05685968291610       -4.00607194971495
H            6.45479963157020       -1.37508462677926       -4.04185803431560
H            5.12066791548907       -2.89147537110860       -2.64722144439687
H            1.92466960842875       -2.89067585487076        1.24029557321354
H           -0.42950924681346       -2.48676186156273        1.75923841082072
H           -2.56600041249049       -3.31555816457991        0.66738642081323
H           -5.01681425391650       -3.22280219519721        0.82874168828940

 projected vibrational frequencies (cm⁻¹)
eigval :       -0.00    -0.00    -0.00     0.00     0.00     0.00
eigval :       16.64    16.98    21.64    22.12    31.57    32.31
eigval :       45.40    45.77    51.64    55.87    60.90    67.82
eigval :       67.95    73.21    74.97    79.31    86.72    91.60
eigval :       96.40   101.73   120.18   123.84   136.72   141.80
eigval :      143.84   164.10   165.41   173.75   184.77   198.45
eigval :      220.43   234.04   234.57   242.86   242.94   276.96
eigval :      287.45   300.95   308.67   318.88   323.18   332.31
eigval :      350.02   354.32   363.60   378.97   380.20   381.29
eigval :      381.99   382.80   383.90   394.45   395.05   401.61
eigval :      411.42   421.23   423.71   427.58   458.44   464.72
eigval :      469.21   474.36   479.66   495.64   496.32   497.19
eigval :      508.46   518.88   528.81   534.81   552.39   571.85
eigval :      583.97   584.19   585.92   586.74   589.51   593.92
eigval :      595.06   605.43   609.02   609.38   625.28   627.12
eigval :      642.85   644.13   660.88   660.96   666.21   666.43
eigval :      673.50   675.12   683.82   691.45   696.23   720.61
eigval :      728.31   746.02   756.80   758.84   760.58   761.97
eigval :      769.58   808.51   809.81   822.23   822.82   833.92
eigval :      867.12   868.32   875.14   875.55   877.22   878.75
eigval :      893.24   896.23   898.03   898.29   899.02   900.19
eigval :      903.44   909.09   909.80   913.48   919.26   921.54
eigval :      927.18   927.58   928.79   929.07   930.29   931.14
eigval :      931.18   931.52   935.38   937.11   939.50   959.19
eigval :      983.73   985.82  1004.88  1005.22  1010.38  1015.76
eigval :     1049.29  1067.39  1081.72  1081.76  1085.44  1086.93
eigval :     1119.88  1121.14  1121.65  1124.17  1127.54  1128.69
eigval :     1134.31  1144.17  1145.24  1179.84  1180.00  1180.65
eigval :     1180.88  1184.41  1185.30  1187.19  1189.77  1194.87
eigval :     1195.51  1196.46  1200.42  1212.13  1216.91  1225.64
eigval :     1231.46  1266.71  1270.29  1271.20  1277.03  1277.65
eigval :     1278.05  1283.61  1287.49  1304.86  1306.55  1314.46
eigval :     1314.71  1317.71  1319.88  1323.85  1324.53  1326.83
eigval :     1327.92  1330.12  1335.55  1359.09  1360.12  1403.98
eigval :     1409.98  1413.70  1414.27  1433.42  1435.36  1435.47
eigval :     1441.88  1442.07  1465.71  1466.60  1466.76  1469.31
eigval :     1469.72  1482.66  1484.45  1494.41  1512.82  1539.65
eigval :     1543.08  1544.63  1544.99  1574.35  1574.44  1578.06
eigval :     1578.25  1582.74  1583.87  1588.21  1588.81  1589.25
eigval :     1595.78  1596.83  2321.23  2323.01  3071.27  3071.55
eigval :     3078.43  3078.44  3079.67  3079.80  3080.74  3080.90
eigval :     3081.68  3081.90  3082.05  3082.11  3083.34  3083.72
eigval :     3089.22  3089.50  3090.74  3090.81  3091.39  3091.95
eigval :     3093.52  3093.61  3094.58  3095.34  3100.02  3100.25
eigval :     3101.27  3101.60  3101.71  3102.00  3115.98  3118.44

   temp. (K)  partition function   enthalpy   heat capacity  entropy
                                   cal/mol     cal/K/mol   cal/K/mol   J/K/mol
 298.15  VIB  0.480E+21            27423.130    172.111    170.903
         ROT  0.658E+08              888.752      2.981     38.755
         INT  0.315E+29            28311.882    175.091    209.658
         TR   0.195E+29             1481.254      4.968     45.667
         TOT                       29793.1361   180.0596   255.3246  1068.2780

       T/K    H(0)-H(T)+PV         H(T)/Eh          T*S/Eh         G(T)/Eh
   ------------------------------------------------------------------------
    298.15    0.474784E-01    0.719721E+00    0.121313E+00    0.598408E+00
   ------------------------------------------------------------------------

         :::::::::::::::::::::::::::::::::::::::::::::::::::::
         ::                  THERMODYNAMIC                  ::
         :::::::::::::::::::::::::::::::::::::::::::::::::::::
         :: total free energy        -144.511426008495 Eh   ::
         ::.................................................::
         :: total energy             -145.109833702115 Eh   ::
         :: zero point energy           0.672242254606 Eh   ::
         :: G(RRHO) w/o ZPVE           -0.073834560986 Eh   ::
         :: G(RRHO) contrib.            0.598407693620 Eh   ::
         :::::::::::::::::::::::::::::::::::::::::::::::::::::

           -------------------------------------------------
          | TOTAL ENERGY             -145.109833702115 Eh   |
          | TOTAL ENTHALPY           -144.390113063051 Eh   |
          | TOTAL FREE ENERGY        -144.511426008495 Eh   |
          | GRADIENT NORM               0.000106784083 Eh/α |
           -------------------------------------------------

 * finished run on 2025/07/16 at 21:58:22.037
