   * xtb version 6.7.1 (edcfbbe) compiled by 'albert@albert-system' on 2024-07-22

   ID    Z sym.   atoms
    1    8 O      1, 28
    2    6 C      2-6, 8-27, 29-32, 34-48
    3    7 N      7, 33
    4    1 H      49-80

          program call               : xtb data2507/toluene/m-DTPACO/m-DTPACO_toluene_S0_finalOpt.xtbopt.xyz --gfn 2 --uhf 2 --gbsa toluene --ohess vtight --parallel 40 --molden --ceasefiles --namespace data2507/toluene/m-DTPACO/m-DTPACO_toluene_T1_preOpt
      * Solvation model:               GBSA
        Solvent                        toluene
        Solvent mass                       9.2140E+01 g/mol
          :  Hamiltonian                  GFN2-xTB          :
 * total energy  :  -124.4643693 Eh     change       -0.6155508E-07 Eh
 * total energy  :  -124.4665844 Eh     change       -0.2215092E-02 Eh
 * total energy  :  -124.4671786 Eh     change       -0.5942800E-03 Eh
 * total energy  :  -124.4673545 Eh     change       -0.1758534E-03 Eh
 * total energy  :  -124.4675195 Eh     change       -0.1649625E-03 Eh
 * total energy  :  -124.4676666 Eh     change       -0.1471122E-03 Eh
 * total energy  :  -124.4678352 Eh     change       -0.1686420E-03 Eh
 * total energy  :  -124.4679761 Eh     change       -0.1408732E-03 Eh
 * total energy  :  -124.4680441 Eh     change       -0.6801412E-04 Eh
 * total energy  :  -124.4680730 Eh     change       -0.2887459E-04 Eh
 * total energy  :  -124.4682174 Eh     change       -0.3869554E-05 Eh
 * total energy  :  -124.4682197 Eh     change       -0.2297177E-05 Eh
 * total energy  :  -124.4682210 Eh     change       -0.1317301E-05 Eh
 * total energy  :  -124.4682214 Eh     change       -0.4458352E-06 Eh
 * total energy  :  -124.4682224 Eh     change       -0.1012360E-05 Eh
 * total energy  :  -124.4682233 Eh     change       -0.8388811E-06 Eh
 * total energy  :  -124.4682239 Eh     change       -0.6358333E-06 Eh
 * total energy  :  -124.4682242 Eh     change       -0.3291747E-06 Eh
 * total energy  :  -124.4682242 Eh     change       -0.8862827E-08 Eh
   *** GEOMETRY OPTIMIZATION CONVERGED AFTER 27 ITERATIONS ***

 final structure:
================
80
 xtb: 6.7.1 (edcfbbe)
O            4.40214008856656        3.60395596087341       -1.75756943104880
C            3.87787957047702        2.55547570034606       -1.31114985078071
C            2.42053006704666        2.44340163824949       -1.22011895798194
C            1.72786820542468        1.22818931436575       -1.37363919674532
C            0.36607201980757        1.16584529789220       -1.20971572768542
C           -0.37165378328002        2.31997379418903       -0.90454682710412
N           -1.74887802099375        2.24778316750711       -0.68638742575889
C           -2.53282858184350        1.38196027674026       -1.44840084702907
C           -2.22548962642014        1.14772158696762       -2.79280670359134
C           -3.01370813123959        0.30137008892269       -3.54648903848323
C           -4.11646949839472       -0.32183148043899       -2.98082870297588
C           -4.42038387405471       -0.10065862260039       -1.64496672044320
C           -3.63764302504401        0.73998907486031       -0.87923055907190
C           -2.33643484364329        3.06223432220453        0.28072734939658
C           -3.61757148607786        3.58917319057161        0.08618692256293
C           -4.18783320201996        4.39953982309737        1.04692569820568
C           -3.49712317350233        4.70328223305929        2.21127721839984
C           -2.22360379770019        4.18909238964738        2.40764532554697
C           -1.64400408281064        3.37423811159524        1.45585938989413
C            0.30109750646154        3.55099829068090       -0.83398108394283
C            1.66108773331209        3.60784898315945       -1.00145506206112
C            4.70550381259845        1.44749785501699       -0.82753634540824
C            6.06839380102530        1.38969876758258       -1.18270902634375
C            6.89127457800345        0.41817282563258       -0.65008180949487
C            6.39396899847627       -0.52800271613929        0.23037265643232
C            5.03780440668429       -0.49835901497187        0.58806396121084
C            4.47751596575619       -1.45216374009890        1.56173101087618
O            5.13935232371010       -1.92131874129958        2.49833162527926
C            3.05915937003420       -1.79658756336759        1.35041170734886
C            2.18112662065390       -1.93507941578613        2.43142362821530
C            0.84355461891964       -2.18328018746383        2.22508636362250
C            0.34813353090757       -2.34548793526748        0.92484135267824
N           -1.01267390606125       -2.57688091970910        0.70196697454048
C           -1.40280656377328       -3.51199079430494       -0.25842341227558
C           -0.65745030469850       -4.68001088833540       -0.44424360929915
C           -1.04553930421643       -5.60482625041289       -1.39298865337522
C           -2.17511407146832       -5.38426083425694       -2.16757990130211
C           -2.91462694938101       -4.22434962737304       -1.98958950669938
C           -2.53565830431514       -3.29023741699784       -1.04624934671817
C           -1.96336641044415       -1.87075560097263        1.43702000499889
C           -1.71477611614341       -0.54988171005217        1.82220219986911
C           -2.65209381456457        0.14456822678507        2.56070615199107
C           -3.84893913403830       -0.45709766198146        2.92112688789929
C           -4.10129019515418       -1.76693891077594        2.54019549835067
C           -3.16986526337109       -2.47338740705747        1.80613458818146
C            1.23465023513872       -2.27727848504569       -0.15661631013068
C            2.56332704346905       -1.99550823131607        0.05412585144214
C            4.21980477338018        0.50182498212934        0.07328135945721
H            2.27371438735275        0.33548030391695       -1.63411864708434
H           -0.14386689686174        0.21800592594524       -1.29630369074058
H           -1.38283176076219        1.65333418372405       -3.24027349439910
H           -2.77355749841680        0.13786067131626       -4.58623790958331
H           -4.73434084604086       -0.97457015431458       -3.57772793578065
H           -5.27186300604003       -0.58937549521007       -1.19530272028016
H           -3.86107726502052        0.89357760561274        0.16524769887947
H           -4.14648450703167        3.37681819025582       -0.83060332211096
H           -5.17356006622457        4.80764651852843        0.88203662992371
H           -3.94554045868543        5.33980389126782        2.95842626855386
H           -1.68114020354547        4.41711715716691        3.31313183547925
H           -0.65880337251786        2.96247499835529        1.61717582911727
H           -0.26229074746355        4.45575431391059       -0.65904621591795
H            2.18480137933084        4.55130193184311       -0.95120009458447
H            6.45149307261895        2.13413065640526       -1.86527743390365
H            7.93714500335987        0.39605373481180       -0.92295303977752
H            7.03049811173907       -1.29049251383387        0.65439172420405
H            2.57339484298005       -1.82211916162063        3.43150214193217
H            0.16974156217179       -2.26937850488015        3.06476244032791
H            0.21203216474282       -4.85890676977029        0.17074792775999
H           -0.46781476231735       -6.50774155117522       -1.52231442033912
H           -2.47525125339146       -6.11192254194603       -2.90598676888066
H           -3.78873613789278       -4.04381480178525       -2.59619130596557
H           -3.09740971301853       -2.37647923949595       -0.92436260835741
H           -0.79048841127451       -0.07672509656894        1.52590372487193
H           -2.45286117259712        1.16596118137671        2.84767794523779
H           -4.57808293747107        0.09169666734300        3.49719017533155
H           -5.02574548790257       -2.24486896226040        2.82745025435262
H           -3.35654213084678       -3.50052288340324        1.53134490735098
H            0.86261852904408       -2.42516299458341       -1.15977204650215
H            3.24213891113893       -1.93432019006401       -0.78341961381548
H            3.20669674774436        0.58216761009903        0.43868922834818

          :  Hamiltonian                  GFN2-xTB          :
         :: gradient norm              0.000162287269 Eh/a0 ::
         :: HOMO-LUMO gap              0.115374955550 eV    ::
         :: SCC energy              -126.693084890530 Eh    ::
         :: -> dispersion             -0.119005700454 Eh    ::
         :: -> Gsolv                  -0.071761682780 Eh    ::
         :: repulsion energy           2.224860645910 Eh    ::

    * Orbital Energies and Occupations

         #    Occupation            Energy/Eh            Energy/eV
      -------------------------------------------------------------
         1        2.0000           -0.6884508             -18.7337
       ...           ...                  ...                  ...
       104        2.0000           -0.4209529             -11.4547
       105        2.0000           -0.4204005             -11.4397
       106        2.0000           -0.4189857             -11.4012
       107        2.0000           -0.4173821             -11.3575
       108        2.0000           -0.4154301             -11.3044
       109        2.0000           -0.4144983             -11.2791
       110        2.0000           -0.4009883             -10.9114
       111        2.0000           -0.3962132             -10.7815
       112        1.9999           -0.3781777             -10.2907
       113        1.9048           -0.3711405             -10.0992
       114        1.6193           -0.3694633             -10.0536
       115        1.4760           -0.3689097             -10.0385
       116        0.9030           -0.2799799              -7.6186 (HOMO)
       117        0.0970           -0.2757398              -7.5033 (LUMO)
       118                         -0.2492155              -6.7815
       119                         -0.2476685              -6.7394
       120                         -0.2423602              -6.5950
       121                         -0.2418100              -6.5800
       122                         -0.2409739              -6.5572
       123                         -0.2381116              -6.4793
       124                         -0.2370834              -6.4514
       125                         -0.2364327              -6.4337
       126                         -0.2341501              -6.3715
       127                         -0.2307820              -6.2799
       ...                                ...                  ...
       224                          0.6776754              18.4405
      -------------------------------------------------------------
                  HL-Gap            0.0042401 Eh            0.1154 eV

     #   Z          covCN         q      C6AA      α(0)
     1   8 O        0.858    -0.504    23.882     6.552
     2   6 C        2.830     0.183    24.084     8.042
     3   6 C        2.968    -0.014    28.353     8.734
     4   6 C        2.918    -0.036    28.892     8.814
     5   6 C        2.916    -0.043    29.064     8.841
     6   6 C        2.926     0.051    26.867     8.500
     7   7 N        2.752    -0.017    21.579     6.899
     8   6 C        2.925     0.062    26.609     8.459
     9   6 C        2.921    -0.038    28.954     8.824
    10   6 C        2.918    -0.024    28.598     8.769
    11   6 C        2.918    -0.027    28.676     8.781
    12   6 C        2.918    -0.025    28.627     8.774
    13   6 C        2.920    -0.042    29.035     8.836
    14   6 C        2.926     0.063    26.581     8.455
    15   6 C        2.921    -0.039    28.976     8.827
    16   6 C        2.918    -0.024    28.598     8.769
    17   6 C        2.919    -0.027    28.676     8.781
    18   6 C        2.918    -0.024    28.607     8.771
    19   6 C        2.921    -0.038    28.947     8.823
    20   6 C        2.916    -0.041    29.024     8.834
    21   6 C        2.922    -0.024    28.609     8.771
    22   6 C        2.966    -0.021    28.533     8.762
    23   6 C        2.922    -0.036    28.898     8.815
    24   6 C        2.913    -0.032    28.803     8.800
    25   6 C        2.920    -0.039    28.958     8.825
    26   6 C        2.970    -0.022    28.557     8.765
    27   6 C        2.829     0.200    23.744     7.985
    28   8 O        0.857    -0.480    23.354     6.479
    29   6 C        2.972    -0.015    28.383     8.739
    30   6 C        2.920    -0.021    28.538     8.760
    31   6 C        2.917    -0.041    29.010     8.832
    32   6 C        2.927     0.058    26.710     8.476
    33   7 N        2.753    -0.026    21.754     6.927
    34   6 C        2.926     0.063    26.596     8.457
    35   6 C        2.921    -0.039    28.980     8.828
    36   6 C        2.918    -0.024    28.609     8.771
    37   6 C        2.919    -0.028    28.694     8.784
    38   6 C        2.919    -0.025    28.618     8.772
    39   6 C        2.920    -0.042    29.039     8.837
    40   6 C        2.925     0.063    26.590     8.456
    41   6 C        2.921    -0.040    29.003     8.831
    42   6 C        2.918    -0.025    28.638     8.776
    43   6 C        2.919    -0.029    28.714     8.787
    44   6 C        2.918    -0.024    28.599     8.770
    45   6 C        2.921    -0.040    28.992     8.830
    46   6 C        2.918    -0.040    29.001     8.831
    47   6 C        2.921    -0.028    28.703     8.786
    48   6 C        2.926    -0.035    28.870     8.812
    49   1 H        0.926     0.041     2.434     2.440
    50   1 H        0.926     0.045     2.377     2.411
    51   1 H        0.926     0.044     2.391     2.418
    52   1 H        0.926     0.047     2.355     2.400
    53   1 H        0.926     0.049     2.333     2.388
    54   1 H        0.926     0.050     2.321     2.383
    55   1 H        0.926     0.048     2.340     2.392
    56   1 H        0.926     0.049     2.330     2.387
    57   1 H        0.926     0.050     2.326     2.385
    58   1 H        0.926     0.047     2.357     2.401
    59   1 H        0.926     0.046     2.374     2.410
    60   1 H        0.926     0.043     2.407     2.426
    61   1 H        0.926     0.045     2.386     2.416
    62   1 H        0.926     0.040     2.444     2.445
    63   1 H        0.926     0.029     2.601     2.522
    64   1 H        0.926     0.028     2.616     2.529
    65   1 H        0.926     0.027     2.636     2.539
    66   1 H        0.926     0.043     2.414     2.430
    67   1 H        0.926     0.049     2.331     2.388
    68   1 H        0.926     0.042     2.419     2.432
    69   1 H        0.926     0.045     2.383     2.414
    70   1 H        0.926     0.046     2.367     2.406
    71   1 H        0.926     0.050     2.317     2.380
    72   1 H        0.926     0.049     2.326     2.385
    73   1 H        0.926     0.039     2.467     2.456
    74   1 H        0.926     0.045     2.382     2.414
    75   1 H        0.926     0.046     2.365     2.405
    76   1 H        0.926     0.049     2.330     2.387
    77   1 H        0.926     0.048     2.341     2.393
    78   1 H        0.926     0.048     2.339     2.391
    79   1 H        0.926     0.038     2.481     2.463
    80   1 H        0.926     0.031     2.569     2.507

molecular dipole:
                 x           y           z       tot (Debye)
 q only:       -9.403      -1.707      -0.434
   full:       -9.138      -1.666      -0.441      23.637

 projected vibrational frequencies (cm⁻¹)
eigval :       -0.00     0.00     0.00     0.00     0.00     0.00
eigval :       15.60    20.71    23.19    28.21    32.86    36.30
eigval :       43.15    50.33    53.01    57.92    59.69    65.07
eigval :       67.45    73.35    80.75    88.47   104.81   106.16
eigval :      120.16   129.91   141.23   169.35   182.63   188.86
eigval :      206.09   219.77   225.24   234.68   234.72   237.32
eigval :      254.16   273.85   308.56   312.59   314.86   326.47
eigval :      333.61   338.06   370.22   375.27   376.63   377.58
eigval :      383.35   385.91   390.30   392.16   400.56   408.16
eigval :      413.82   441.92   443.71   457.59   476.31   489.46
eigval :      511.72   512.84   531.16   542.09   566.98   580.87
eigval :      583.24   583.75   585.96   590.60   596.22   600.14
eigval :      604.29   612.69   618.05   645.01   650.08   656.84
eigval :      657.45   661.46   662.24   671.33   683.08   698.16
eigval :      701.81   723.72   755.66   756.76   758.75   759.91
eigval :      778.16   794.35   806.84   812.10   846.90   857.84
eigval :      861.51   867.46   869.28   870.20   872.14   876.90
eigval :      886.10   896.16   896.99   898.28   900.24   907.11
eigval :      907.99   908.80   912.47   914.81   916.01   922.36
eigval :      925.81   927.37   928.22   928.79   929.54   930.17
eigval :      930.42   931.78   933.86   938.57   969.84   977.46
eigval :      983.44   988.84   997.67   999.94  1009.47  1017.23
eigval :     1077.50  1078.26  1078.89  1079.85  1117.23  1119.35
eigval :     1120.01  1121.92  1122.48  1128.44  1131.36  1134.18
eigval :     1153.25  1170.81  1173.93  1174.61  1175.13  1176.46
eigval :     1176.89  1177.28  1182.35  1187.73  1189.24  1195.17
eigval :     1204.86  1214.77  1221.33  1238.97  1257.49  1258.55
eigval :     1269.20  1271.44  1272.36  1274.17  1274.84  1292.91
eigval :     1296.83  1301.47  1302.55  1315.97  1316.43  1324.10
eigval :     1325.20  1326.24  1327.78  1330.11  1341.05  1404.41
eigval :     1408.76  1416.88  1427.18  1428.68  1433.20  1435.49
eigval :     1436.82  1441.95  1446.83  1449.88  1450.17  1452.18
eigval :     1454.81  1471.60  1501.28  1508.22  1526.09  1535.66
eigval :     1555.01  1558.99  1559.31  1560.71  1564.13  1569.40
eigval :     1573.27  1574.45  1578.87  1582.83  3063.40  3076.89
eigval :     3078.89  3079.19  3080.95  3081.91  3082.34  3082.90
eigval :     3083.40  3084.23  3084.61  3084.91  3085.56  3086.25
eigval :     3087.29  3087.88  3089.81  3090.24  3091.43  3091.75
eigval :     3091.91  3092.49  3093.69  3095.19  3096.13  3097.06
eigval :     3100.17  3102.48  3102.94  3103.50  3104.77  3105.76

   temp. (K)  partition function   enthalpy   heat capacity  entropy
                                   cal/mol     cal/K/mol   cal/K/mol   J/K/mol
 298.15  VIB  0.101E+19            23461.579    146.648    146.577
         ROT  0.594E+08              888.752      2.981     38.552
         INT  0.600E+26            24350.332    149.629    185.128
         TR   0.150E+29             1481.254      4.968     45.140
         TOT                       25831.5857   154.5967   230.2681   963.4418

       T/K    H(0)-H(T)+PV         H(T)/Eh          T*S/Eh         G(T)/Eh
   ------------------------------------------------------------------------
    298.15    0.411653E-01    0.653542E+00    0.109408E+00    0.544134E+00
   ------------------------------------------------------------------------

         :::::::::::::::::::::::::::::::::::::::::::::::::::::
         ::                  THERMODYNAMIC                  ::
         :::::::::::::::::::::::::::::::::::::::::::::::::::::
         :: total free energy        -123.924090118975 Eh   ::
         ::.................................................::
         :: total energy             -124.468224246856 Eh   ::
         :: zero point energy           0.612376687131 Eh   ::
         :: G(RRHO) w/o ZPVE           -0.068242559249 Eh   ::
         :: G(RRHO) contrib.            0.544134127882 Eh   ::
         :::::::::::::::::::::::::::::::::::::::::::::::::::::

           -------------------------------------------------
          | TOTAL ENERGY             -124.468224246856 Eh   |
          | TOTAL ENTHALPY           -123.814682307558 Eh   |
          | TOTAL FREE ENERGY        -123.924090118975 Eh   |
          | GRADIENT NORM               0.000160814410 Eh/α |
          | HOMO-LUMO GAP               0.115378854669 eV   |
           -------------------------------------------------

 * finished run on 2025/08/22 at 18:42:40.375
