   * xtb version 6.7.1 (edcfbbe) compiled by 'albert@albert-system' on 2024-07-22

   ID    Z sym.   atoms
    1    8 O      1, 28
    2    6 C      2-6, 8-27, 29-32, 34-48
    3    7 N      7, 33
    4    1 H      49-80

          program call               : xtb data2507/toluene/m-DTPACO/m-DTPACO_toluene_T1_crest.xyz --gfn 2 --uhf 2 --gbsa toluene --ohess vtight --parallel 40 --molden --ceasefiles --namespace data2507/toluene/m-DTPACO/m-DTPACO_toluene_T1_finalOpt
      * Solvation model:               GBSA
        Solvent                        toluene
        Solvent mass                       9.2140E+01 g/mol
          :  Hamiltonian                  GFN2-xTB          :
 * total energy  :  -124.4669749 Eh     change       -0.5462863E-07 Eh
 * total energy  :  -124.4672743 Eh     change       -0.2993754E-03 Eh
 * total energy  :  -124.4674059 Eh     change       -0.1315803E-03 Eh
 * total energy  :  -124.4674702 Eh     change       -0.6431067E-04 Eh
 * total energy  :  -124.4675570 Eh     change       -0.8678112E-04 Eh
 * total energy  :  -124.4676636 Eh     change       -0.1066364E-03 Eh
 * total energy  :  -124.4677628 Eh     change       -0.9917273E-04 Eh
 * total energy  :  -124.4678396 Eh     change       -0.7683897E-04 Eh
 * total energy  :  -124.4679008 Eh     change       -0.6122762E-04 Eh
 * total energy  :  -124.4679502 Eh     change       -0.4938801E-04 Eh
 * total energy  :  -124.4682225 Eh     change       -0.2836396E-06 Eh
 * total energy  :  -124.4682227 Eh     change       -0.2288148E-06 Eh
 * total energy  :  -124.4682229 Eh     change       -0.2509667E-06 Eh
 * total energy  :  -124.4682233 Eh     change       -0.3201685E-06 Eh
 * total energy  :  -124.4682236 Eh     change       -0.3136486E-06 Eh
 * total energy  :  -124.4682238 Eh     change       -0.2518497E-06 Eh
 * total energy  :  -124.4682240 Eh     change       -0.1672947E-06 Eh
 * total energy  :  -124.4682241 Eh     change       -0.1028874E-06 Eh
 * total energy  :  -124.4682241 Eh     change       -0.3024738E-08 Eh
   *** GEOMETRY OPTIMIZATION CONVERGED AFTER 44 ITERATIONS ***

 final structure:
================
80
 xtb: 6.7.1 (edcfbbe)
O            4.30138947989728       -3.66786098771914        1.86565598115711
C            3.80598662480097       -2.61514886036241        1.39635730263926
C            2.35286775680821       -2.47360469691986        1.28373520182305
C            1.68359526102978       -1.24159199973995        1.40432514110920
C            0.32531877988472       -1.15482791803924        1.22313493717537
C           -0.43272026220745       -2.29950443440199        0.93237703580182
N           -1.80542267200999       -2.20362663649543        0.69570643825307
C           -2.58045888063454       -1.30661964920171        1.43050435777503
C           -2.28595581838852       -1.05300831220500        2.77427004566065
C           -3.06579670889484       -0.17564352750972        3.50080503681594
C           -4.14731800047467        0.45974014340874        2.90832852081335
C           -4.43813983530321        0.21931885902756        1.57285858782054
C           -3.66346698488374       -0.65237639423179        0.83407336470007
C           -2.39840660812393       -3.02625544977474       -0.26097348362024
C           -3.69322915156866       -3.52086693314090       -0.07165970953511
C           -4.26909664229608       -4.33988182395795       -1.02164803693244
C           -3.57066322015528       -4.68451938232887       -2.16994890441248
C           -2.28356394952637       -4.20296442987026       -2.36076625037075
C           -1.69824182553481       -3.37967587933649       -1.41980037059786
C            0.21521921027291       -3.54525296217281        0.89485802579691
C            1.57169987681239       -3.62642309393752        1.07928916129632
C            4.66475914390480       -1.53271724692638        0.90897531303755
C            6.02244836153012       -1.49797344252484        1.28623872196688
C            6.87434063200613       -0.55177023895677        0.75367481844148
C            6.41170022164143        0.39129338519046       -0.14883107736723
C            5.06156272490004        0.38410437205622       -0.52930948380007
C            4.53722825999237        1.33560313394326       -1.52531595080807
O            5.22290173157229        1.77654717855279       -2.45825050935710
C            3.12375902616539        1.71331269734574       -1.33948876425839
C            2.26359037354228        1.85276969770391       -2.43456657135236
C            0.92812930469489        2.12847091470044       -2.25044663451533
C            0.41797676302652        2.31834944541779       -0.95964391784894
N           -0.94143793161931        2.57632070400615       -0.75868866437517
C           -1.32824628094104        3.52918185623476        0.18544611647674
C           -0.56479564052556        4.68579528646077        0.36939059441205
C           -0.94890854562422        5.62720510608757        1.30332725352112
C           -2.09224614414792        5.43474000553337        2.06512556741685
C           -2.84992505412965        4.28635793596616        1.88885465505414
C           -2.47545083157656        3.33618471811632        0.95993677436629
C           -1.89426109826095        1.87511228182985       -1.49592424638810
C           -1.66297065263377        0.54466213004210       -1.85823753780268
C           -2.60215106836881       -0.14512055539400       -2.59877204880829
C           -3.78387508306676        0.47091088701485       -2.98397116799882
C           -4.01916473529259        1.79023026731433       -2.62555551093786
C           -3.08565604919448        2.49200113359237       -1.88962042237494
C            1.28826561423092        2.24989875444209        0.13489033450130
C            2.61419652056873        1.94065296596594       -0.05326946318060
C            4.21421009259052       -0.59120555364190       -0.01412565659810
H            2.24440296865417       -0.35500375534914        1.65362661755409
H           -0.16584399600811       -0.19521203484070        1.28496926787044
H           -1.46030512317729       -1.56766429621880        3.24271676807141
H           -2.83605073588647        0.00298535531141        4.54040842644949
H           -4.75891871988001        1.13688023716948        3.48413237587963
H           -5.27255032934426        0.71752639931813        1.10209662066283
H           -3.87598287871147       -0.82113834024163       -0.21035330641013
H           -4.22881299297452       -3.27697038985556        0.83334155842872
H           -5.26561303240830       -4.72263371993346       -0.86062499828634
H           -4.02372252901113       -5.32755804423647       -2.90870686689868
H           -1.73469674530223       -4.46335242968134       -3.25362353621088
H           -0.70212474225419       -2.99344477367059       -1.57730204301823
H           -0.36479706127739       -4.44172413145846        0.73192837338214
H            2.07628777461774       -4.58124102585728        1.05431134251906
H            6.37846237875754       -2.24022484261290        1.98570006945670
H            7.91580680849983       -0.54722240121518        1.04383916857638
H            7.07101017570068        1.13428283449431       -0.57263002765056
H            2.66719005174915        1.71786199596642       -3.42741629911061
H            0.26773324450571        2.21463744061563       -3.10071972599614
H            0.31614505852145        4.84293169954656       -0.23511834475667
H           -0.35671322631091        6.52091451790667        1.43125682563891
H           -2.38898145471864        6.17510450799283        2.79220046509539
H           -3.73487719826811        4.12710077738067        2.48561487198776
H           -3.05201863840525        2.43149630638097        0.83992815554703
H           -0.75086974567547        0.06045532045740       -1.54262600911489
H           -2.41647116887299       -1.17388528984470       -2.86790489317833
H           -4.51460518547021       -0.07422699391122       -3.56150371230407
H           -4.93177557222361        2.27900977708678       -2.93178979209375
H           -3.25885808910400        3.52599833440817       -1.63228603735999
H            0.90541237869160        2.41881396132044        1.13062611862751
H            3.28008335407142        1.87901571358042        0.79457085864795
H            3.20607249033226       -0.65676115018001       -0.39584346151666

          :  Hamiltonian                  GFN2-xTB          :
         :: gradient norm              0.000062663323 Eh/a0 ::
         :: HOMO-LUMO gap              0.115105805002 eV    ::
         :: SCC energy              -126.692938970095 Eh    ::
         :: -> dispersion             -0.119115449372 Eh    ::
         :: -> Gsolv                  -0.071677492041 Eh    ::
         :: repulsion energy           2.224714864411 Eh    ::

    * Orbital Energies and Occupations

         #    Occupation            Energy/Eh            Energy/eV
      -------------------------------------------------------------
         1        2.0000           -0.6884222             -18.7329
       ...           ...                  ...                  ...
       104        2.0000           -0.4209586             -11.4549
       105        2.0000           -0.4203761             -11.4390
       106        2.0000           -0.4189876             -11.4012
       107        2.0000           -0.4174002             -11.3580
       108        2.0000           -0.4153754             -11.3029
       109        2.0000           -0.4144778             -11.2785
       110        2.0000           -0.4010040             -10.9119
       111        2.0000           -0.3962598             -10.7828
       112        1.9999           -0.3782408             -10.2925
       113        1.9043           -0.3711232             -10.0988
       114        1.6200           -0.3694550             -10.0534
       115        1.4758           -0.3688978             -10.0382
       116        0.9026           -0.2800061              -7.6194 (HOMO)
       117        0.0974           -0.2757755              -7.5042 (LUMO)
       118                         -0.2492236              -6.7817
       119                         -0.2476545              -6.7390
       120                         -0.2423567              -6.5949
       121                         -0.2418144              -6.5801
       122                         -0.2409785              -6.5574
       123                         -0.2381242              -6.4797
       124                         -0.2370613              -6.4508
       125                         -0.2364258              -6.4335
       126                         -0.2341524              -6.3716
       127                         -0.2307085              -6.2779
       ...                                ...                  ...
       224                          0.6777010              18.4412
      -------------------------------------------------------------
                  HL-Gap            0.0042307 Eh            0.1151 eV

     #   Z          covCN         q      C6AA      α(0)
     1   8 O        0.858    -0.505    23.886     6.553
     2   6 C        2.830     0.183    24.087     8.042
     3   6 C        2.968    -0.014    28.355     8.734
     4   6 C        2.917    -0.036    28.895     8.815
     5   6 C        2.916    -0.043    29.065     8.841
     6   6 C        2.926     0.050    26.868     8.501
     7   7 N        2.752    -0.017    21.579     6.899
     8   6 C        2.925     0.062    26.610     8.460
     9   6 C        2.921    -0.038    28.953     8.824
    10   6 C        2.918    -0.024    28.598     8.769
    11   6 C        2.918    -0.027    28.675     8.781
    12   6 C        2.918    -0.025    28.627     8.774
    13   6 C        2.920    -0.042    29.034     8.836
    14   6 C        2.926     0.063    26.581     8.455
    15   6 C        2.921    -0.039    28.976     8.827
    16   6 C        2.918    -0.024    28.599     8.770
    17   6 C        2.919    -0.027    28.676     8.781
    18   6 C        2.918    -0.024    28.607     8.771
    19   6 C        2.921    -0.038    28.948     8.823
    20   6 C        2.916    -0.041    29.024     8.834
    21   6 C        2.922    -0.024    28.610     8.771
    22   6 C        2.966    -0.021    28.531     8.761
    23   6 C        2.922    -0.036    28.895     8.815
    24   6 C        2.913    -0.032    28.803     8.800
    25   6 C        2.920    -0.038    28.957     8.824
    26   6 C        2.970    -0.022    28.556     8.765
    27   6 C        2.829     0.200    23.740     7.984
    28   8 O        0.857    -0.480    23.346     6.478
    29   6 C        2.972    -0.015    28.383     8.739
    30   6 C        2.920    -0.021    28.537     8.760
    31   6 C        2.917    -0.041    29.010     8.832
    32   6 C        2.927     0.058    26.708     8.475
    33   7 N        2.753    -0.026    21.755     6.927
    34   6 C        2.926     0.063    26.596     8.457
    35   6 C        2.921    -0.039    28.981     8.828
    36   6 C        2.918    -0.024    28.609     8.771
    37   6 C        2.919    -0.028    28.694     8.784
    38   6 C        2.919    -0.025    28.618     8.773
    39   6 C        2.920    -0.042    29.043     8.837
    40   6 C        2.925     0.063    26.590     8.456
    41   6 C        2.921    -0.040    29.003     8.831
    42   6 C        2.918    -0.025    28.638     8.776
    43   6 C        2.919    -0.029    28.714     8.787
    44   6 C        2.918    -0.024    28.600     8.770
    45   6 C        2.921    -0.040    28.992     8.830
    46   6 C        2.918    -0.040    29.001     8.831
    47   6 C        2.921    -0.028    28.702     8.786
    48   6 C        2.926    -0.035    28.870     8.812
    49   1 H        0.926     0.041     2.434     2.440
    50   1 H        0.926     0.045     2.379     2.412
    51   1 H        0.926     0.044     2.391     2.418
    52   1 H        0.926     0.047     2.354     2.399
    53   1 H        0.926     0.049     2.332     2.388
    54   1 H        0.926     0.050     2.321     2.382
    55   1 H        0.926     0.048     2.341     2.392
    56   1 H        0.926     0.049     2.331     2.387
    57   1 H        0.926     0.050     2.326     2.385
    58   1 H        0.926     0.047     2.358     2.401
    59   1 H        0.926     0.046     2.374     2.410
    60   1 H        0.926     0.043     2.406     2.426
    61   1 H        0.926     0.045     2.387     2.416
    62   1 H        0.926     0.040     2.444     2.445
    63   1 H        0.926     0.029     2.600     2.522
    64   1 H        0.926     0.028     2.616     2.529
    65   1 H        0.926     0.027     2.635     2.538
    66   1 H        0.926     0.043     2.413     2.429
    67   1 H        0.926     0.049     2.331     2.387
    68   1 H        0.926     0.042     2.419     2.432
    69   1 H        0.926     0.045     2.383     2.414
    70   1 H        0.926     0.046     2.367     2.406
    71   1 H        0.926     0.050     2.317     2.381
    72   1 H        0.926     0.049     2.327     2.385
    73   1 H        0.926     0.039     2.467     2.456
    74   1 H        0.926     0.045     2.382     2.414
    75   1 H        0.926     0.046     2.366     2.405
    76   1 H        0.926     0.049     2.330     2.387
    77   1 H        0.926     0.048     2.340     2.392
    78   1 H        0.926     0.049     2.338     2.391
    79   1 H        0.926     0.038     2.481     2.463
    80   1 H        0.926     0.031     2.570     2.507

molecular dipole:
                 x           y           z       tot (Debye)
 q only:       -9.366       1.900       0.280
   full:       -9.102       1.853       0.293      23.621

 projected vibrational frequencies (cm⁻¹)
eigval :       -0.00    -0.00     0.00     0.00     0.00     0.00
eigval :       14.74    22.04    24.85    29.03    34.01    37.26
eigval :       43.60    51.02    53.72    58.23    58.90    65.30
eigval :       67.32    73.20    81.18    88.02   105.31   105.90
eigval :      120.23   130.22   141.71   169.56   182.69   188.97
eigval :      206.19   219.95   225.28   234.72   234.80   236.99
eigval :      254.66   274.59   308.44   312.84   315.26   326.82
eigval :      333.83   338.49   370.01   375.34   376.88   377.24
eigval :      383.23   385.58   390.32   392.61   400.12   408.55
eigval :      413.75   441.88   443.91   457.46   475.96   489.19
eigval :      511.29   512.94   531.07   542.52   567.04   580.88
eigval :      583.40   583.83   585.96   590.63   596.36   600.19
eigval :      604.22   612.69   617.97   644.96   649.84   656.50
eigval :      657.07   661.07   662.16   671.39   683.97   697.91
eigval :      701.87   723.62   755.53   756.35   758.51   759.54
eigval :      778.34   794.17   807.12   812.40   847.02   858.28
eigval :      861.24   867.86   868.64   870.20   872.29   877.04
eigval :      886.58   896.53   896.93   898.03   900.15   906.98
eigval :      908.04   909.11   912.55   915.34   918.25   922.54
eigval :      925.85   927.14   928.26   928.45   928.95   929.45
eigval :      930.38   931.01   931.97   939.00   969.88   977.45
eigval :      983.52   988.89   997.78  1000.12  1009.33  1016.96
eigval :     1077.46  1078.28  1079.09  1079.87  1117.40  1119.85
eigval :     1120.76  1122.36  1123.05  1127.87  1131.62  1134.25
eigval :     1153.49  1170.86  1172.89  1174.70  1175.53  1175.91
eigval :     1177.14  1177.56  1182.60  1188.58  1190.10  1195.40
eigval :     1205.23  1214.92  1221.18  1238.85  1257.21  1258.01
eigval :     1269.31  1271.83  1272.82  1274.34  1275.45  1292.86
eigval :     1296.71  1301.60  1302.56  1315.98  1316.32  1324.22
eigval :     1325.08  1326.41  1327.86  1330.18  1341.18  1404.33
eigval :     1408.71  1416.89  1427.27  1428.72  1433.12  1435.54
eigval :     1436.89  1441.82  1446.84  1449.82  1450.36  1452.27
eigval :     1454.92  1471.33  1501.43  1508.21  1526.07  1535.55
eigval :     1554.85  1558.87  1559.34  1560.83  1564.16  1569.39
eigval :     1573.33  1574.80  1578.89  1582.86  3063.38  3076.19
eigval :     3078.79  3079.08  3080.56  3081.57  3081.98  3082.68
eigval :     3084.18  3084.60  3084.71  3085.31  3085.70  3086.40
eigval :     3087.04  3087.60  3089.71  3090.24  3091.32  3091.56
eigval :     3091.72  3092.62  3094.48  3095.32  3096.22  3097.13
eigval :     3100.04  3102.41  3102.88  3103.23  3104.66  3106.00

   temp. (K)  partition function   enthalpy   heat capacity  entropy
                                   cal/mol     cal/K/mol   cal/K/mol   J/K/mol
 298.15  VIB  0.837E+18            23449.489    146.736    146.477
         ROT  0.593E+08              888.752      2.981     38.550
         INT  0.496E+26            24338.242    149.717    185.027
         TR   0.150E+29             1481.254      4.968     45.140
         TOT                       25819.4956   154.6855   230.1664   963.0160

       T/K    H(0)-H(T)+PV         H(T)/Eh          T*S/Eh         G(T)/Eh
   ------------------------------------------------------------------------
    298.15    0.411460E-01    0.653555E+00    0.109359E+00    0.544196E+00
   ------------------------------------------------------------------------

         :::::::::::::::::::::::::::::::::::::::::::::::::::::
         ::                  THERMODYNAMIC                  ::
         :::::::::::::::::::::::::::::::::::::::::::::::::::::
         :: total free energy        -123.924028362237 Eh   ::
         ::.................................................::
         :: total energy             -124.468224103820 Eh   ::
         :: zero point energy           0.612409219654 Eh   ::
         :: G(RRHO) w/o ZPVE           -0.068213478072 Eh   ::
         :: G(RRHO) contrib.            0.544195741582 Eh   ::
         :::::::::::::::::::::::::::::::::::::::::::::::::::::

           -------------------------------------------------
          | TOTAL ENERGY             -124.468224103820 Eh   |
          | TOTAL ENTHALPY           -123.814668898815 Eh   |
          | TOTAL FREE ENERGY        -123.924028362237 Eh   |
          | GRADIENT NORM               0.000033286300 Eh/α |
          | HOMO-LUMO GAP               0.115122227419 eV   |
           -------------------------------------------------

 * finished run on 2025/08/22 at 18:51:47.999
