   * xtb version 6.7.1 (edcfbbe) compiled by 'albert@albert-system' on 2024-07-22

   ID    Z sym.   atoms
    1    8 O      1, 28
    2    6 C      2-6, 8-27, 29-32, 34-48
    3    7 N      7, 33
    4    1 H      49-80

          program call               : xtb data2507/toluene/m-DTPACO/m-DTPACO_toluene_S0_crest.xyz --gfn 2 --gbsa toluene --ohess vtight --parallel 40 --molden --ceasefiles --namespace data2507/toluene/m-DTPACO/m-DTPACO_toluene_S0_finalOpt
      * Solvation model:               GBSA
        Solvent                        toluene
        Solvent mass                       9.2140E+01 g/mol
          :  Hamiltonian                  GFN2-xTB          :
 * total energy  :  -124.5451335 Eh     change       -0.9745236E-09 Eh
 * total energy  :  -124.5453026 Eh     change       -0.1690837E-03 Eh
 * total energy  :  -124.5454086 Eh     change       -0.1059703E-03 Eh
 * total energy  :  -124.5454695 Eh     change       -0.6093730E-04 Eh
 * total energy  :  -124.5455569 Eh     change       -0.8735514E-04 Eh
 * total energy  :  -124.5456690 Eh     change       -0.1121286E-03 Eh
 * total energy  :  -124.5457604 Eh     change       -0.9137246E-04 Eh
 * total energy  :  -124.5458210 Eh     change       -0.6065994E-04 Eh
 * total energy  :  -124.5458804 Eh     change       -0.5939295E-04 Eh
 * total energy  :  -124.5459096 Eh     change       -0.2920840E-04 Eh
 * total energy  :  -124.5462221 Eh     change       -0.2183990E-06 Eh
 * total energy  :  -124.5462224 Eh     change       -0.2126974E-06 Eh
 * total energy  :  -124.5462225 Eh     change       -0.1946545E-06 Eh
 * total energy  :  -124.5462227 Eh     change       -0.1499115E-06 Eh
 * total energy  :  -124.5462228 Eh     change       -0.1090974E-06 Eh
 * total energy  :  -124.5462229 Eh     change       -0.1188324E-06 Eh
 * total energy  :  -124.5462231 Eh     change       -0.1372622E-06 Eh
 * total energy  :  -124.5462232 Eh     change       -0.1239952E-06 Eh
 * total energy  :  -124.5462232 Eh     change       -0.2365255E-08 Eh
   *** GEOMETRY OPTIMIZATION CONVERGED AFTER 44 ITERATIONS ***

 final structure:
================
80
 xtb: 6.7.1 (edcfbbe)
O            4.45182657644267        3.60785421284283       -1.72903042308729
C            3.91471281769220        2.58861622544179       -1.31516472941436
C            2.44948004427838        2.46762713813773       -1.20421818894941
C            1.77226536183357        1.25837513932192       -1.38453736563147
C            0.40582067060765        1.18692646918122       -1.23310186648977
C           -0.33542237858314        2.32204681103264       -0.88156230430426
N           -1.70527063313511        2.24431283005875       -0.68194081414495
C           -2.49867885442710        1.36518324317637       -1.43763014525242
C           -2.22972536096891        1.14766607103520       -2.78830889952759
C           -3.03853259820868        0.30852581050396       -3.53131665950137
C           -4.12890222935557       -0.31470339265392       -2.94646167880567
C           -4.39832177255750       -0.10279473833404       -1.60364793757555
C           -3.58920254875208        0.72629330786079       -0.84976471541548
C           -2.32929867750661        3.08889517483403        0.25311518667716
C           -3.56281011105708        3.67141703439710       -0.03138501744790
C           -4.17698023402669        4.48858570061181        0.89893296440425
C           -3.57030438463235        4.74388273481588        2.11814200062707
C           -2.34150182632672        4.17076459536094        2.40353255135171
C           -1.72458720061124        3.34455017531691        1.48305456017841
C            0.33898528096434        3.54164116968757       -0.73739062131986
C            1.70117888678554        3.61171310905014       -0.91215179368298
C            4.72842650944901        1.43363449236565       -0.84720039533270
C            6.01890947339658        1.24926645748454       -1.34511091032943
C            6.81353359116012        0.22204712193643       -0.86881812043887
C            6.33466084913038       -0.63536349044312        0.10852474661871
C            5.04376045059652       -0.47288694215797        0.60246337462649
C            4.48301359241713       -1.37432428796143        1.64876655604795
O            5.13119255626311       -1.74303019029223        2.61487810903303
C            3.07134188779578       -1.73911880085776        1.42249713995500
C            2.17685167298317       -1.82414902652224        2.49045017307275
C            0.84209026860203       -2.08057810555247        2.26932331704641
C            0.36848880822277       -2.31385299341131        0.97271657977595
N           -0.97565680961986       -2.56511831764525        0.73870228781738
C           -1.35865731108712       -3.47117397979253       -0.26527109451866
C           -0.65008980881652       -4.65793796809578       -0.44822401091088
C           -1.03464661753993       -5.55086429278913       -1.43044925818915
C           -2.13116474360668       -5.27999364160127       -2.23343823766986
C           -2.83981882087989       -4.10359621141069       -2.05035880850638
C           -2.45768011226592       -3.19957367593106       -1.07719564697186
C           -1.96255536618410       -1.91644460856493        1.49681226946924
C           -1.80178434953572       -0.58142691128728        1.86474873584681
C           -2.77541644837619        0.05631941102400        2.60988906474203
C           -3.92474258280938       -0.62002808595002        2.98644405106983
C           -4.09259098286534       -1.94429237220986        2.61476774421920
C           -3.11949194597085       -2.59338933462466        1.87878788538919
C            1.27905783650873       -2.29197951329496       -0.09072365511630
C            2.60184318602368       -1.98781391267892        0.12993278785273
C            4.25309194180041        0.57213630241415        0.13507310999014
H            2.32082616459438        0.37121602778508       -1.66076052988882
H           -0.10049885309871        0.24338704908498       -1.36865158011700
H           -1.39300773207777        1.64835359336788       -3.25345384437609
H           -2.82300615804583        0.15259175182625       -4.57815053783104
H           -4.76477018466621       -0.95976443362326       -3.53361659567520
H           -5.24258992009444       -0.58824067363097       -1.13569862238924
H           -3.79663594428522        0.88327305247845        0.19781393990051
H           -4.03387904129675        3.48223117374498       -0.98470003170960
H           -5.13189800224935        4.93612318802706        0.66565138453118
H           -4.05089217120608        5.38595137068843        2.84078534110889
H           -1.86279822594478        4.35993162342642        3.35346134349752
H           -0.77012279197707        2.89281179662628        1.71177301607659
H           -0.22018138296439        4.43339111867304       -0.49674041074455
H            2.21842020615231        4.55461304670164       -0.80884004709902
H            6.38192449044929        1.92645629834641       -2.10455371647949
H            7.81221304630960        0.08998437884059       -1.25706792320068
H            6.94648543889936       -1.43983444879080        0.48961485369054
H            2.54493822815173       -1.66022663965708        3.49283977109355
H            0.15273744690349       -2.11552498285051        3.09976576672561
H            0.19754238890745       -4.87546169649283        0.18547073871376
H           -0.47992462702415       -6.46832096578718       -1.56228830569782
H           -2.43116733941365       -5.98248859315910       -2.99643637084557
H           -3.69325600230915       -3.88339970363195       -2.67395438635482
H           -3.00389327453124       -2.27783765322593       -0.94288633248258
H           -0.91368119325164       -0.04896078116034        1.55710264822830
H           -2.64217628506314        1.09231338149823        2.88519648025476
H           -4.68515147530845       -0.11625304050541        3.56410664779781
H           -4.98421907548709       -2.47950885483441        2.90686720149482
H           -3.24815030112514       -3.62818009441021        1.59726962518942
H            0.92967261238313       -2.49461090630170       -1.09212619404934
H            3.29104706588154       -1.95936455870692       -0.70116001465199
H            3.27782854143128        0.73182382481127        0.56904892623469

          :  Hamiltonian                  GFN2-xTB          :
         :: gradient norm              0.000039092795 Eh/a0 ::
         :: HOMO-LUMO gap              1.764441489987 eV    ::
         :: SCC energy              -126.790056518159 Eh    ::
         :: -> dispersion             -0.118858227741 Eh    ::
         :: -> Gsolv                  -0.052280591973 Eh    ::
         :: repulsion energy           2.243833328600 Eh    ::

    * Orbital Energies and Occupations

         #    Occupation            Energy/Eh            Energy/eV
      -------------------------------------------------------------
         1        2.0000           -0.7124114             -19.3857
       ...           ...                  ...                  ...
       103        2.0000           -0.4185726             -11.3899
       104        2.0000           -0.4163767             -11.3302
       105        2.0000           -0.4156923             -11.3116
       106        2.0000           -0.4136190             -11.2551
       107        2.0000           -0.4122445             -11.2177
       108        2.0000           -0.4104426             -11.1687
       109        2.0000           -0.4098566             -11.1528
       110        2.0000           -0.4088678             -11.1259
       111        2.0000           -0.4079834             -11.1018
       112        2.0000           -0.3988172             -10.8524
       113        2.0000           -0.3927566             -10.6875
       114        2.0000           -0.3597455              -9.7892
       115        2.0000           -0.3588842              -9.7657 (HOMO)
       116                         -0.2940421              -8.0013 (LUMO)
       117                         -0.2872038              -7.8152
       118                         -0.2453840              -6.6772
       119                         -0.2444959              -6.6531
       120                         -0.2365392              -6.4366
       121                         -0.2362651              -6.4291
       122                         -0.2355657              -6.4101
       123                         -0.2348409              -6.3903
       124                         -0.2296631              -6.2495
       125                         -0.2289243              -6.2293
       126                         -0.2269563              -6.1758
       ...                                ...                  ...
       224                          0.6776473              18.4397
      -------------------------------------------------------------
                  HL-Gap            0.0648420 Eh            1.7644 eV

     #   Z          covCN         q      C6AA      α(0)
     1   8 O        0.858    -0.426    22.214     6.319
     2   6 C        2.828     0.225    23.282     7.907
     3   6 C        2.970    -0.026    28.644     8.779
     4   6 C        2.919    -0.028    28.694     8.784
     5   6 C        2.920    -0.049    29.211     8.863
     6   6 C        2.922     0.073    26.361     8.420
     7   7 N        2.752    -0.064    22.485     7.043
     8   6 C        2.924     0.063    26.584     8.455
     9   6 C        2.922    -0.046    29.145     8.853
    10   6 C        2.919    -0.028    28.709     8.787
    11   6 C        2.919    -0.035    28.874     8.812
    12   6 C        2.919    -0.028    28.699     8.785
    13   6 C        2.922    -0.046    29.139     8.852
    14   6 C        2.925     0.064    26.573     8.454
    15   6 C        2.922    -0.044    29.105     8.847
    16   6 C        2.919    -0.028    28.702     8.785
    17   6 C        2.919    -0.036    28.888     8.814
    18   6 C        2.919    -0.029    28.717     8.788
    19   6 C        2.922    -0.044    29.103     8.847
    20   6 C        2.920    -0.048    29.185     8.859
    21   6 C        2.923    -0.018    28.454     8.748
    22   6 C        2.969    -0.010    28.257     8.719
    23   6 C        2.923    -0.013    28.343     8.731
    24   6 C        2.916    -0.024    28.600     8.770
    25   6 C        2.921    -0.014    28.350     8.732
    26   6 C        2.973    -0.009    28.243     8.717
    27   6 C        2.828     0.229    23.201     7.893
    28   8 O        0.857    -0.418    22.040     6.294
    29   6 C        2.974    -0.026    28.643     8.779
    30   6 C        2.920    -0.018    28.462     8.749
    31   6 C        2.920    -0.047    29.158     8.855
    32   6 C        2.924     0.073    26.361     8.420
    33   7 N        2.752    -0.067    22.537     7.051
    34   6 C        2.925     0.063    26.598     8.458
    35   6 C        2.922    -0.046    29.144     8.853
    36   6 C        2.919    -0.029    28.722     8.788
    37   6 C        2.919    -0.036    28.896     8.815
    38   6 C        2.920    -0.028    28.706     8.786
    39   6 C        2.922    -0.046    29.148     8.854
    40   6 C        2.924     0.063    26.583     8.455
    41   6 C        2.922    -0.045    29.106     8.847
    42   6 C        2.919    -0.028    28.706     8.786
    43   6 C        2.919    -0.036    28.905     8.816
    44   6 C        2.919    -0.028    28.701     8.785
    45   6 C        2.922    -0.045    29.121     8.849
    46   6 C        2.920    -0.047    29.157     8.855
    47   6 C        2.921    -0.026    28.641     8.776
    48   6 C        2.927    -0.025    28.631     8.775
    49   1 H        0.926     0.045     2.384     2.415
    50   1 H        0.926     0.044     2.390     2.418
    51   1 H        0.926     0.034     2.527     2.486
    52   1 H        0.926     0.037     2.486     2.466
    53   1 H        0.926     0.036     2.498     2.472
    54   1 H        0.926     0.036     2.500     2.473
    55   1 H        0.926     0.036     2.506     2.476
    56   1 H        0.926     0.036     2.501     2.473
    57   1 H        0.926     0.038     2.477     2.461
    58   1 H        0.926     0.036     2.500     2.473
    59   1 H        0.926     0.036     2.497     2.471
    60   1 H        0.926     0.033     2.543     2.494
    61   1 H        0.926     0.044     2.400     2.423
    62   1 H        0.926     0.045     2.384     2.414
    63   1 H        0.926     0.057     2.240     2.340
    64   1 H        0.926     0.056     2.252     2.347
    65   1 H        0.926     0.053     2.278     2.360
    66   1 H        0.926     0.045     2.389     2.417
    67   1 H        0.926     0.045     2.383     2.414
    68   1 H        0.926     0.034     2.536     2.490
    69   1 H        0.926     0.036     2.497     2.471
    70   1 H        0.926     0.036     2.504     2.475
    71   1 H        0.926     0.038     2.474     2.460
    72   1 H        0.926     0.037     2.485     2.465
    73   1 H        0.926     0.030     2.582     2.513
    74   1 H        0.926     0.035     2.510     2.477
    75   1 H        0.926     0.035     2.519     2.482
    76   1 H        0.926     0.037     2.483     2.464
    77   1 H        0.926     0.036     2.505     2.475
    78   1 H        0.926     0.045     2.379     2.412
    79   1 H        0.926     0.040     2.452     2.449
    80   1 H        0.926     0.048     2.348     2.396

molecular dipole:
                 x           y           z       tot (Debye)
 q only:       -3.351      -0.991      -0.699
   full:       -3.301      -0.991      -0.710       8.944

 projected vibrational frequencies (cm⁻¹)
eigval :       -0.00     0.00     0.00     0.00     0.00     0.00
eigval :       16.03    20.22    25.31    30.78    34.58    36.98
eigval :       44.09    47.60    53.39    56.00    58.52    63.35
eigval :       65.62    72.91    79.76    86.86   104.83   108.17
eigval :      118.74   126.34   135.07   170.20   180.17   185.12
eigval :      207.45   219.80   225.08   230.94   236.63   240.49
eigval :      254.31   274.60   307.56   310.66   322.27   327.01
eigval :      336.88   346.96   365.29   375.91   377.57   379.87
eigval :      382.24   384.23   387.60   391.35   401.25   406.21
eigval :      413.86   446.19   467.66   474.60   486.80   498.76
eigval :      501.24   503.24   538.92   565.10   581.99   585.06
eigval :      586.20   586.39   592.05   593.00   602.26   609.29
eigval :      615.25   623.25   638.30   650.44   660.12   661.58
eigval :      666.75   669.33   675.37   681.11   705.48   713.27
eigval :      729.43   734.40   756.97   758.13   759.75   761.57
eigval :      800.52   806.24   821.54   825.99   869.20   871.12
eigval :      874.12   875.61   876.34   877.56   887.38   894.54
eigval :      895.78   896.81   897.20   899.89   908.91   909.46
eigval :      911.51   916.97   920.53   926.11   926.75   927.36
eigval :      927.94   928.85   929.30   929.70   930.51   931.79
eigval :      932.50   933.15   935.57   938.74   974.91   984.15
eigval :      993.13   998.53  1004.22  1005.02  1023.59  1026.50
eigval :     1081.39  1081.57  1082.58  1083.34  1119.15  1119.91
eigval :     1120.52  1122.11  1122.37  1135.65  1140.11  1155.27
eigval :     1175.29  1176.13  1178.09  1178.54  1179.27  1181.08
eigval :     1183.00  1184.68  1188.27  1193.63  1193.70  1200.15
eigval :     1208.66  1218.65  1242.79  1262.48  1263.74  1266.14
eigval :     1276.17  1276.58  1277.29  1280.95  1281.17  1300.77
eigval :     1304.02  1314.98  1315.71  1319.99  1322.86  1322.99
eigval :     1325.26  1326.67  1332.11  1332.49  1410.11  1412.97
eigval :     1414.35  1433.32  1434.03  1438.70  1439.82  1448.54
eigval :     1466.87  1467.43  1470.66  1471.10  1477.52  1479.27
eigval :     1542.50  1545.28  1566.38  1573.79  1576.15  1576.60
eigval :     1576.86  1577.18  1581.54  1582.04  1590.27  1590.48
eigval :     1596.33  1596.77  1641.76  1664.85  3073.83  3074.48
eigval :     3074.77  3075.41  3075.75  3076.51  3076.97  3079.10
eigval :     3079.59  3081.95  3082.21  3082.26  3083.95  3084.32
eigval :     3084.70  3085.12  3087.76  3087.87  3088.56  3091.28
eigval :     3091.92  3092.61  3093.67  3093.98  3094.50  3094.96
eigval :     3096.17  3096.39  3096.54  3098.00  3100.65  3103.16

   temp. (K)  partition function   enthalpy   heat capacity  entropy
                                   cal/mol     cal/K/mol   cal/K/mol   J/K/mol
 298.15  VIB  0.860E+18            23301.743    145.104    145.905
         ROT  0.594E+08              888.752      2.981     38.554
         INT  0.511E+26            24190.495    148.085    184.459
         TR   0.150E+29             1481.254      4.968     45.140
         TOT                       25671.7490   153.0530   229.5984   960.6397

       T/K    H(0)-H(T)+PV         H(T)/Eh          T*S/Eh         G(T)/Eh
   ------------------------------------------------------------------------
    298.15    0.409105E-01    0.657433E+00    0.109090E+00    0.548344E+00
   ------------------------------------------------------------------------

         :::::::::::::::::::::::::::::::::::::::::::::::::::::
         ::                  THERMODYNAMIC                  ::
         :::::::::::::::::::::::::::::::::::::::::::::::::::::
         :: total free energy        -123.997879622033 Eh   ::
         ::.................................................::
         :: total energy             -124.546223193043 Eh   ::
         :: zero point energy           0.616522647518 Eh   ::
         :: G(RRHO) w/o ZPVE           -0.068179076508 Eh   ::
         :: G(RRHO) contrib.            0.548343571010 Eh   ::
         :::::::::::::::::::::::::::::::::::::::::::::::::::::

           -------------------------------------------------
          | TOTAL ENERGY             -124.546223193043 Eh   |
          | TOTAL ENTHALPY           -123.888790009369 Eh   |
          | TOTAL FREE ENERGY        -123.997879622033 Eh   |
          | GRADIENT NORM               0.000039083694 Eh/α |
          | HOMO-LUMO GAP               1.764441548845 eV   |
           -------------------------------------------------

 * finished run on 2025/08/22 at 18:42:32.582
