   * xtb version 6.7.1 (edcfbbe) compiled by 'albert@albert-system' on 2024-07-22

   ID    Z sym.   atoms
    1    8 O      1, 28
    2    6 C      2-6, 8-27, 29-32, 34-48
    3    7 N      7, 33
    4    1 H      49-80

          program call               : xtb data2507/toluene/m-DTPACO/m-DTPACO.xyz --gfn 2 --gbsa toluene --ohess vtight --parallel 40 --molden --ceasefiles --namespace data2507/toluene/m-DTPACO/m-DTPACO_toluene_S0_preOpt
      * Solvation model:               GBSA
        Solvent                        toluene
        Solvent mass                       9.2140E+01 g/mol
          :  Hamiltonian                  GFN2-xTB          :
 * total energy  :  -124.5200930 Eh     change       -0.8456112E-08 Eh
 * total energy  :  -124.5339626 Eh     change       -0.1386962E-01 Eh
 * total energy  :  -124.5397420 Eh     change       -0.5779431E-02 Eh
 * total energy  :  -124.5415730 Eh     change       -0.1831007E-02 Eh
 * total energy  :  -124.5427820 Eh     change       -0.1208934E-02 Eh
 * total energy  :  -124.5433643 Eh     change       -0.5823115E-03 Eh
 * total energy  :  -124.5437241 Eh     change       -0.3598568E-03 Eh
 * total energy  :  -124.5440267 Eh     change       -0.3025925E-03 Eh
 * total energy  :  -124.5442880 Eh     change       -0.2612559E-03 Eh
 * total energy  :  -124.5444928 Eh     change       -0.2047820E-03 Eh
 * total energy  :  -124.5449890 Eh     change       -0.5311684E-06 Eh
 * total energy  :  -124.5449897 Eh     change       -0.6674522E-06 Eh
 * total energy  :  -124.5449902 Eh     change       -0.5524041E-06 Eh
 * total energy  :  -124.5449906 Eh     change       -0.3959614E-06 Eh
 * total energy  :  -124.5449910 Eh     change       -0.3677254E-06 Eh
 * total energy  :  -124.5449915 Eh     change       -0.4945161E-06 Eh
 * total energy  :  -124.5449922 Eh     change       -0.6915446E-06 Eh
 * total energy  :  -124.5449930 Eh     change       -0.8458065E-06 Eh
 * total energy  :  -124.5449930 Eh     change       -0.4155012E-08 Eh
   *** GEOMETRY OPTIMIZATION CONVERGED AFTER 68 ITERATIONS ***

 final structure:
================
80
 xtb: 6.7.1 (edcfbbe)
O            1.99261443976608       -2.50666981262807       -1.83726857599603
C            2.21599865196257       -1.53398722284026       -1.12515074654099
C            3.57968789212715       -1.08745331791125       -0.81881971748661
C            3.88583965324955       -0.29433299263542        0.29249215994597
C            5.18413159556763        0.07555474784237        0.55426333817916
C            6.23168085957320       -0.33000398003925       -0.28494667169370
N            7.53459252557964        0.04976160454729       -0.02547825311660
C            7.81956838320873        1.26497866434984        0.62248474905071
C            7.10854969214235        2.42123632102790        0.30556175072707
C            7.40547886795984        3.61361436142540        0.93837241120579
C            8.41694230098196        3.67293262632668        1.88365232382533
C            9.13049918239912        2.52705914909405        2.19600719267384
C            8.83552898433960        1.32830102001199        1.57422265056467
C            8.61084784107502       -0.77557168589465       -0.40257388519573
C            9.75898971513772       -0.21735822560368       -0.96047196505593
C           10.82167216482057       -1.02728061859311       -1.31492851752847
C           10.75265064814594       -2.39772298425785       -1.12295009150202
C            9.61261361608338       -2.95591967066085       -0.56705571456164
C            8.54742629323690       -2.15350503114969       -0.20381158199185
C            5.92714214382565       -1.13789991533562       -1.39023720763415
C            4.63007209479327       -1.51172006048276       -1.64168901046748
C            1.08972650576670       -0.75815009527194       -0.53431842315301
C            1.07634843955851        0.63538648491050       -0.53947547362750
C           -0.00324331453914        1.31957107944222       -0.00784301254459
C           -1.08004676644608        0.62953226275471        0.52183991599090
C           -1.08793443356978       -0.76404342471895        0.51248205958731
C           -2.21118983468473       -1.54602684079134        1.10076691718674
O           -1.98445353196422       -2.52267944292361        1.80635018643109
C           -3.57642642353359       -1.09979782188472        0.80064059999840
C           -4.62338894586647       -1.52701637004104        1.62626766532375
C           -5.92143046905614       -1.15190596910065        1.38172370697734
C           -6.23054058402037       -0.34012542676569        0.28055897668649
N           -7.53440432990113        0.04137603828371        0.02818762023931
C           -7.82147191222591        1.25906659541442       -0.61426830937380
C           -8.84223551395752        1.32644409974385       -1.56059488953229
C           -9.13984045471653        2.52760751758177       -2.17643384322565
C           -8.42407074950917        3.67196613769600       -1.86358946176307
C           -7.40758435979152        3.60857083305545       -0.92399097517354
C           -7.10804462908755        2.41375154012463       -0.29700927892614
C           -8.60950773060081       -0.78414019313351        0.40794649792934
C           -9.75563533988391       -0.22638131513413        0.97048213692820
C          -10.81724792466284       -1.03646848963510        1.32773397779691
C          -10.74906233833855       -2.40675161921794        1.13434630756139
C           -9.61105625744285       -2.96451600324961        0.57388371044604
C           -8.54712414375434       -2.16188191425063        0.20746565053739
C           -5.18656204221686        0.06764045083197       -0.56199718331295
C           -3.88720111730645       -0.30321375562061       -0.30688433997556
C            0.00227328020666       -1.44804314491929       -0.01196570931837
H            3.10262362329359        0.00097834572967        0.97436384253496
H            5.40698482165452        0.67078129540240        1.42715116529776
H            6.32916509905300        2.37865474617932       -0.44114575896152
H            6.84978457750209        4.50407207853224        0.68351540278701
H            8.64879699058493        4.60710304199868        2.37262152646148
H            9.91887235267446        2.56425268014367        2.93336752384828
H            9.38857920134064        0.43422471962909        1.82207887714619
H            9.81088845054948        0.85059783247087       -1.11387483237106
H           11.70620486748182       -0.58555847282435       -1.74967808979745
H           11.58317612151007       -3.02782280534219       -1.40344647321874
H            9.55391272571531       -4.02253395096622       -0.40696851904313
H            7.66253386229830       -2.58741528534888        0.23884450509551
H            6.71945167439421       -1.45689867298977       -2.05057734001496
H            4.39156829791759       -2.12740146997273       -2.49700398478810
H            1.90428084188622        1.17699784815433       -0.97208317693628
H           -0.00541243068072        2.39926748298388       -0.00631530325458
H           -1.91005319365607        1.16657299089508        0.95616254581844
H           -4.38143294464858       -2.14583499468869        2.47833989274786
H           -6.71087274729430       -1.47291702574292        2.04450642994143
H           -9.39711643779000        0.43360653846591       -1.80880347861118
H           -9.93219901831874        2.56794734021744       -2.90934308478726
H           -8.65812817486200        4.60809426351260       -2.34775407773223
H           -6.84997232178613        4.49776815015682       -0.66892613241093
H           -6.32473355983477        2.36811751252293        0.44539622015550
H           -9.80689906823250        0.84141034053605        1.12521569384086
H          -11.70022235864733       -0.59496917343271        1.76586488344719
H          -11.57858778776322       -3.03704244194000        1.41734200159305
H           -9.55289896252234       -4.03101031519584        0.41280547798793
H           -7.66399030381561       -2.59556787456672       -0.23889809295109
H           -5.41301019847391        0.66565026951785       -1.43205226850654
H           -3.10684830242435       -0.00592945901957       -0.99117876957529
H            0.00438267847036       -2.52898072480124       -0.01350427284179

          :  Hamiltonian                  GFN2-xTB          :
         :: gradient norm              0.000049908462 Eh/a0 ::
         :: HOMO-LUMO gap              1.890410328858 eV    ::
         :: SCC energy              -126.787993418920 Eh    ::
         :: -> dispersion             -0.105343297648 Eh    ::
         :: -> Gsolv                  -0.061762144941 Eh    ::
         :: repulsion energy           2.243000407785 Eh    ::

    * Orbital Energies and Occupations

         #    Occupation            Energy/Eh            Energy/eV
      -------------------------------------------------------------
         1        2.0000           -0.7047854             -19.1782
       ...           ...                  ...                  ...
       103        2.0000           -0.4170587             -11.3487
       104        2.0000           -0.4147110             -11.2849
       105        2.0000           -0.4146085             -11.2821
       106        2.0000           -0.4134386             -11.2502
       107        2.0000           -0.4134145             -11.2496
       108        2.0000           -0.4106832             -11.1753
       109        2.0000           -0.4106689             -11.1749
       110        2.0000           -0.4093641             -11.1394
       111        2.0000           -0.4093335             -11.1385
       112        2.0000           -0.3970343             -10.8039
       113        2.0000           -0.3874844             -10.5440
       114        2.0000           -0.3603039              -9.8044
       115        2.0000           -0.3601289              -9.7996 (HOMO)
       116                         -0.2906576              -7.9092 (LUMO)
       117                         -0.2852227              -7.7613
       118                         -0.2428353              -6.6079
       119                         -0.2402447              -6.5374
       120                         -0.2359825              -6.4214
       121                         -0.2359640              -6.4209
       122                         -0.2340339              -6.3684
       123                         -0.2340053              -6.3676
       124                         -0.2288784              -6.2281
       125                         -0.2288701              -6.2279
       126                         -0.2269405              -6.1754
       ...                                ...                  ...
       224                          0.6704766              18.2446
      -------------------------------------------------------------
                  HL-Gap            0.0694713 Eh            1.8904 eV

     #   Z          covCN         q      C6AA      α(0)
     1   8 O        0.858    -0.437    22.425     6.349
     2   6 C        2.829     0.224    23.301     7.910
     3   6 C        2.970    -0.028    28.696     8.787
     4   6 C        2.919    -0.026    28.657     8.778
     5   6 C        2.920    -0.049    29.213     8.863
     6   6 C        2.922     0.075    26.326     8.414
     7   7 N        2.752    -0.062    22.442     7.036
     8   6 C        2.925     0.063    26.592     8.457
     9   6 C        2.922    -0.045    29.125     8.850
    10   6 C        2.919    -0.028    28.711     8.787
    11   6 C        2.919    -0.035    28.880     8.813
    12   6 C        2.919    -0.028    28.704     8.786
    13   6 C        2.922    -0.044    29.104     8.847
    14   6 C        2.926     0.063    26.589     8.456
    15   6 C        2.922    -0.044    29.093     8.845
    16   6 C        2.919    -0.028    28.705     8.786
    17   6 C        2.919    -0.035    28.867     8.811
    18   6 C        2.919    -0.028    28.705     8.786
    19   6 C        2.922    -0.044    29.102     8.847
    20   6 C        2.919    -0.049    29.208     8.862
    21   6 C        2.923    -0.017    28.426     8.743
    22   6 C        2.970    -0.009    28.250     8.718
    23   6 C        2.921    -0.024    28.600     8.770
    24   6 C        2.917    -0.026    28.642     8.776
    25   6 C        2.921    -0.024    28.600     8.770
    26   6 C        2.970    -0.010    28.251     8.719
    27   6 C        2.829     0.224    23.301     7.910
    28   8 O        0.858    -0.437    22.425     6.349
    29   6 C        2.970    -0.028    28.696     8.787
    30   6 C        2.923    -0.017    28.426     8.743
    31   6 C        2.919    -0.049    29.208     8.862
    32   6 C        2.922     0.075    26.326     8.414
    33   7 N        2.752    -0.062    22.442     7.036
    34   6 C        2.925     0.063    26.592     8.457
    35   6 C        2.922    -0.044    29.104     8.847
    36   6 C        2.919    -0.028    28.704     8.786
    37   6 C        2.919    -0.035    28.880     8.813
    38   6 C        2.919    -0.028    28.711     8.787
    39   6 C        2.922    -0.045    29.125     8.850
    40   6 C        2.926     0.063    26.589     8.456
    41   6 C        2.922    -0.044    29.094     8.845
    42   6 C        2.919    -0.028    28.705     8.786
    43   6 C        2.919    -0.035    28.868     8.811
    44   6 C        2.919    -0.028    28.705     8.786
    45   6 C        2.922    -0.044    29.103     8.847
    46   6 C        2.920    -0.049    29.213     8.863
    47   6 C        2.919    -0.026    28.657     8.778
    48   6 C        2.929    -0.010    28.266     8.719
    49   1 H        0.926     0.044     2.395     2.420
    50   1 H        0.926     0.046     2.375     2.410
    51   1 H        0.926     0.037     2.495     2.470
    52   1 H        0.926     0.039     2.466     2.455
    53   1 H        0.926     0.037     2.488     2.466
    54   1 H        0.926     0.038     2.473     2.459
    55   1 H        0.926     0.036     2.503     2.474
    56   1 H        0.926     0.037     2.483     2.464
    57   1 H        0.926     0.039     2.459     2.452
    58   1 H        0.926     0.037     2.483     2.464
    59   1 H        0.926     0.038     2.477     2.461
    60   1 H        0.926     0.035     2.514     2.479
    61   1 H        0.926     0.044     2.399     2.422
    62   1 H        0.926     0.047     2.353     2.399
    63   1 H        0.926     0.051     2.302     2.373
    64   1 H        0.926     0.056     2.243     2.342
    65   1 H        0.926     0.051     2.302     2.372
    66   1 H        0.926     0.047     2.354     2.399
    67   1 H        0.926     0.044     2.399     2.422
    68   1 H        0.926     0.036     2.503     2.474
    69   1 H        0.926     0.038     2.473     2.459
    70   1 H        0.926     0.037     2.488     2.466
    71   1 H        0.926     0.039     2.466     2.455
    72   1 H        0.926     0.037     2.495     2.470
    73   1 H        0.926     0.037     2.483     2.464
    74   1 H        0.926     0.039     2.460     2.453
    75   1 H        0.926     0.037     2.483     2.464
    76   1 H        0.926     0.038     2.478     2.462
    77   1 H        0.926     0.035     2.514     2.479
    78   1 H        0.926     0.046     2.375     2.410
    79   1 H        0.926     0.044     2.395     2.420
    80   1 H        0.926     0.042     2.417     2.431

molecular dipole:
                 x           y           z       tot (Debye)
 q only:       -0.000       3.099       0.015
   full:       -0.000       3.097       0.015       7.872

 projected vibrational frequencies (cm⁻¹)
eigval :       -0.00    -0.00    -0.00     0.00     0.00     0.00
eigval :        6.25     8.63    10.16    19.78    21.52    31.88
eigval :       39.06    40.89    44.36    50.03    53.29    62.08
eigval :       65.35    70.14    74.34    85.34    98.82   110.72
eigval :      112.43   118.17   118.64   153.13   175.52   190.97
eigval :      198.70   217.79   222.77   235.42   236.22   240.37
eigval :      268.89   283.33   295.50   309.09   314.89   324.55
eigval :      350.42   351.50   361.24   365.83   377.85   377.88
eigval :      379.78   380.63   389.77   390.81   403.00   404.33
eigval :      427.07   446.87   474.16   474.94   491.96   501.53
eigval :      501.83   507.93   537.35   566.61   582.56   584.47
eigval :      585.76   585.88   592.70   593.82   605.23   607.46
eigval :      615.02   617.43   646.02   657.94   660.97   661.26
eigval :      665.55   668.46   675.27   680.16   695.79   716.48
eigval :      723.66   732.85   757.45   758.04   758.23   761.10
eigval :      774.80   811.81   825.16   826.66   867.53   868.70
eigval :      874.35   874.44   875.08   875.14   885.66   891.67
eigval :      895.66   896.38   896.48   897.24   909.14   909.21
eigval :      911.17   917.43   923.02   925.73   927.30   927.32
eigval :      927.91   928.80   929.45   930.22   930.92   931.56
eigval :      932.01   934.17   936.07   936.96   979.77   984.13
eigval :      995.98  1000.99  1004.69  1004.81  1021.77  1036.70
eigval :     1080.64  1080.73  1082.03  1082.07  1118.58  1118.73
eigval :     1120.20  1120.28  1126.47  1140.61  1141.69  1149.50
eigval :     1177.44  1177.65  1178.87  1178.90  1180.29  1182.26
eigval :     1184.01  1184.71  1191.42  1191.58  1191.89  1202.45
eigval :     1209.47  1219.91  1250.77  1260.62  1266.12  1266.59
eigval :     1274.83  1274.93  1278.21  1278.86  1282.57  1299.18
eigval :     1299.35  1314.26  1314.54  1315.86  1322.11  1322.16
eigval :     1328.79  1329.01  1336.62  1336.77  1412.65  1420.11
eigval :     1420.28  1434.00  1434.05  1438.14  1438.21  1451.56
eigval :     1465.87  1466.00  1469.47  1469.52  1480.38  1480.62
eigval :     1539.71  1539.83  1567.90  1568.91  1569.89  1576.17
eigval :     1577.28  1577.30  1581.50  1581.53  1589.96  1589.97
eigval :     1595.57  1595.58  1634.90  1638.84  3075.49  3075.51
eigval :     3075.70  3075.79  3076.54  3076.60  3077.03  3077.06
eigval :     3080.96  3081.39  3081.45  3082.66  3083.83  3084.05
eigval :     3084.10  3084.19  3085.27  3085.40  3087.47  3087.49
eigval :     3088.09  3088.75  3088.81  3093.85  3093.90  3095.29
eigval :     3095.83  3096.15  3096.24  3096.27  3097.01  3097.03

   temp. (K)  partition function   enthalpy   heat capacity  entropy
                                   cal/mol     cal/K/mol   cal/K/mol   J/K/mol
 298.15  VIB  0.864E+20            23500.326    143.972    149.961
         ROT  0.663E+08              888.752      2.981     38.770
         INT  0.572E+28            24389.078    146.953    188.731
         TR   0.150E+29             1481.254      4.968     45.140
         TOT                       25870.3318   151.9208   233.8710   978.5164

       T/K    H(0)-H(T)+PV         H(T)/Eh          T*S/Eh         G(T)/Eh
   ------------------------------------------------------------------------
    298.15    0.412270E-01    0.657269E+00    0.111120E+00    0.546150E+00
   ------------------------------------------------------------------------

         :::::::::::::::::::::::::::::::::::::::::::::::::::::
         ::                  THERMODYNAMIC                  ::
         :::::::::::::::::::::::::::::::::::::::::::::::::::::
         :: total free energy        -123.998843278026 Eh   ::
         ::.................................................::
         :: total energy             -124.544993009311 Eh   ::
         :: zero point energy           0.616042404322 Eh   ::
         :: G(RRHO) w/o ZPVE           -0.069892673037 Eh   ::
         :: G(RRHO) contrib.            0.546149731285 Eh   ::
         :::::::::::::::::::::::::::::::::::::::::::::::::::::

           -------------------------------------------------
          | TOTAL ENERGY             -124.544993009311 Eh   |
          | TOTAL ENTHALPY           -123.887723606996 Eh   |
          | TOTAL FREE ENERGY        -123.998843278026 Eh   |
          | GRADIENT NORM               0.000049908813 Eh/α |
          | HOMO-LUMO GAP               1.890410485246 eV   |
           -------------------------------------------------

 * finished run on 2025/08/22 at 18:36:45.988
