   * xtb version 6.7.1 (edcfbbe) compiled by 'albert@albert-system' on 2024-07-22

   ID    Z sym.   atoms
    1    6 C      1-5, 7-26, 28-48
    2    7 N      6, 27
    3    1 H      49-94

          program call               : xtb data2507/gas/XT-T/XT-T_gas_S0_crest.xyz --gfn 2 --ohess vtight --parallel 40 --molden --ceasefiles --namespace data2507/gas/XT-T/XT-T_gas_S0_finalOpt
          :  Hamiltonian                  GFN2-xTB          :
 * total energy  :  -127.8561047 Eh     change       -0.3170896E-08 Eh
 * total energy  :  -127.8561073 Eh     change       -0.2614399E-05 Eh
 * total energy  :  -127.8561104 Eh     change       -0.3115420E-05 Eh
 * total energy  :  -127.8561172 Eh     change       -0.6790905E-05 Eh
 * total energy  :  -127.8561200 Eh     change       -0.2825740E-05 Eh
 * total energy  :  -127.8561217 Eh     change       -0.1705891E-05 Eh
 * total energy  :  -127.8561241 Eh     change       -0.2405156E-05 Eh
 * total energy  :  -127.8561266 Eh     change       -0.2402287E-05 Eh
 * total energy  :  -127.8561275 Eh     change       -0.9370910E-06 Eh
 * total energy  :  -127.8561281 Eh     change       -0.6105968E-06 Eh
 * total energy  :  -127.8561344 Eh     change       -0.1587779E-05 Eh
 * total energy  :  -127.8561354 Eh     change       -0.1014533E-05 Eh
 * total energy  :  -127.8561361 Eh     change       -0.7181509E-06 Eh
 * total energy  :  -127.8561367 Eh     change       -0.6126971E-06 Eh
 * total energy  :  -127.8561374 Eh     change       -0.6023966E-06 Eh
 * total energy  :  -127.8561379 Eh     change       -0.5770707E-06 Eh
 * total energy  :  -127.8561385 Eh     change       -0.5227840E-06 Eh
 * total energy  :  -127.8561389 Eh     change       -0.4836273E-06 Eh
 * total energy  :  -127.8561389 Eh     change       -0.3362871E-08 Eh
   *** GEOMETRY OPTIMIZATION CONVERGED AFTER 22 ITERATIONS ***

 final structure:
================
94
 xtb: 6.7.1 (edcfbbe)
C           -2.11030932126763       -1.69071120121062        5.78957552277335
C           -2.08667558443957       -1.49387404771420        4.30396610240141
C           -1.81530612367529       -0.24119122433508        3.76214949999548
C           -1.79664228260941       -0.03965399817680        2.39885738629078
C           -2.06315469810112       -1.09481494933618        1.52171980066207
N           -2.00227438234826       -0.88261289807766        0.13235271881509
C           -2.73245276319533        0.15156495606919       -0.45846051075400
C           -2.54126072698771        0.43760444301614       -1.81256302345613
C           -3.20256190946646        1.48867257345602       -2.41216857759818
C           -4.08905840117493        2.28546162082162       -1.69825251992325
C           -4.77251169173116        3.45080836255796       -2.34746178625877
C           -4.31106992980887        1.97149174298093       -0.36433251759838
C           -3.65594558689287        0.92176278147817        0.24913267676966
C           -1.74541643028566       -2.02439932342237       -0.69159761072026
C           -2.88295057422593       -2.72136952144623       -1.10033256997768
C           -2.80598085800041       -3.85872138478860       -1.87412869083493
C           -1.55557365938733       -4.30753637869175       -2.25410657125068
C           -0.42745986792124       -3.60416975157702       -1.87706353741528
C           -0.46826477993144       -2.44987624896194       -1.09028955288695
C            0.82615049595977       -1.66370463044271       -0.83069309200323
C            0.82411611651275       -0.49348735632151       -1.82478856570352
C            0.42035784817014       -0.79470723224355       -3.12905718354160
C            0.32007326547346        0.15264984601555       -4.12808453856964
C            0.61699129205620        1.47448201995045       -3.84760356304827
C            1.06836629461458        1.79364525104534       -2.58685984032541
C            1.20798682070394        0.83200511803972       -1.58295617919198
N            1.78226134597388        1.29882621791765       -0.36788426293933
C            3.10779035892425        0.95455369392589       -0.09676827360481
C            3.96570967918754        0.55018265791599       -1.11869880951797
C            5.25984264680993        0.15351944112141       -0.83502307667075
C            5.74280166189392        0.14773306042816        0.46511351198884
C            7.14494867758482       -0.27786372344133        0.77965999188181
C            4.88331241145886        0.54901674229648        1.48368814938114
C            3.58900465182146        0.94044420018345        1.21674967763838
C            1.14747218084202        2.36986342093728        0.26298860789064
C           -0.24355003178431        2.45521927656833        0.21031716028970
C           -0.91112410648926        3.49867926890407        0.81900722774726
C           -0.22013296897534        4.49204499212407        1.50017041092549
C           -0.94181898882121        5.61187943271374        2.18736615219497
C            1.16760054414919        4.41700377907990        1.53021922262671
C            1.84756318228849        3.38314937433821        0.91792916619377
C            0.93697974159338       -1.25681056880107        0.64434434167516
C            0.97034740569510       -2.48810550671091        1.54439909228287
C            2.25289474414426       -3.26494878894846        1.27061192240788
C            2.28900865182038       -3.68214495937802       -0.19509945028638
C            2.11233033147395       -2.47657101891557       -1.11873088793772
C           -2.32540679112308       -2.35108958357908        2.06012574853310
C           -2.33553083641040       -2.54088361368931        3.43033903894035
H           -1.21243668992277       -1.27598353335464        6.24523982064433
H           -2.17472618809396       -2.74643815091483        6.04100712545581
H           -2.96979808540889       -1.18048548161567        6.22502224348559
H           -1.60445990499101        0.58887796728564        4.42159651121619
H           -1.56053858611617        0.93751321885215        2.00357044365198
H           -1.86134241980632       -0.16591441249676       -2.39260050799784
H           -3.02108250617493        1.69391789873200       -3.45762003327451
H           -5.03389633989285        3.22062113897744       -3.37834576947798
H           -4.10909050500150        4.31689131884538       -2.35597153195930
H           -5.67662537814827        3.72194879373211       -1.80694046984209
H           -5.01924324103008        2.55348751578496        0.20958365011651
H           -3.87250018908063        0.69368895289694        1.28175149126326
H           -3.84625631593134       -2.34063052888284       -0.78919950617828
H           -3.70139951494934       -4.38257677070287       -2.17246412292156
H           -1.45260628730847       -5.19596430765208       -2.85975007607750
H            0.51814930486389       -3.97366673329508       -2.23658642505745
H            0.15549124683273       -1.81295242980243       -3.37056983266742
H           -0.00210090412051       -0.14137201524408       -5.11594122205070
H            0.52326759036340        2.23790136528585       -4.60490787555822
H            1.34586212879199        2.81153498758307       -2.35121969113549
H            3.61635724455246        0.54999253030276       -2.14090337627114
H            5.90432600651369       -0.15446963769062       -1.64634580649287
H            7.70495181535567        0.54992685725680        1.21429594966747
H            7.14346897875275       -1.09289632671457        1.50273673535871
H            7.66077627581235       -0.61014487452410       -0.11774753814000
H            5.23367421764548        0.54150953612423        2.50622975042757
H            2.93162277565709        1.22124907886197        2.02640356386829
H           -0.79972537322870        1.70443308115799       -0.32782501942484
H           -1.99000576002641        3.53407512951649        0.75899941875087
H           -1.95829342391262        5.70426452454140        1.81243328077076
H           -0.42287703534039        6.55670481060767        2.03627995056375
H           -0.99062679268690        5.42625988792098        3.26116238543819
H            1.72995987907858        5.19258136858716        2.03143280498946
H            2.92731837261456        3.37316049633137        0.93061312429334
H            1.88007211064699       -0.74257941792585        0.80074822374432
H            0.13953228894088       -0.58061814919067        0.92843550464326
H            0.93201506693049       -2.17342896464186        2.58934375870885
H            0.10644526330554       -3.12854580058822        1.35894645344510
H            3.11504547657575       -2.63133975329666        1.49488862734758
H            2.30934298752030       -4.14916094976016        1.90914625114231
H            3.24308390658479       -4.16413163422216       -0.42323615604859
H            1.49718106410583       -4.41341798334468       -0.36396816025560
H            2.95562083598971       -1.79880439137749       -0.96216248760589
H            2.15568229834743       -2.78735870699876       -2.16428013299152
H           -2.52732015117078       -3.18784776607818        1.40777845568256
H           -2.54538407004439       -3.52618579485591        3.82237097037116

          :  Hamiltonian                  GFN2-xTB          :
         :: gradient norm              0.000042354680 Eh/a0 ::
         :: HOMO-LUMO gap              2.926255009799 eV    ::
         :: SCC energy              -130.149083243286 Eh    ::
         :: -> dispersion             -0.141628741084 Eh    ::
         :: repulsion energy           2.292944304670 Eh    ::

    * Orbital Energies and Occupations

         #    Occupation            Energy/Eh            Energy/eV
      -------------------------------------------------------------
         1        2.0000           -0.6557097             -17.8428
       ...           ...                  ...                  ...
       108        2.0000           -0.4031420             -10.9701
       109        2.0000           -0.4007238             -10.9042
       110        2.0000           -0.3976432             -10.8204
       111        2.0000           -0.3967143             -10.7951
       112        2.0000           -0.3944428             -10.7333
       113        2.0000           -0.3933073             -10.7024
       114        2.0000           -0.3909753             -10.6390
       115        2.0000           -0.3903947             -10.6232
       116        2.0000           -0.3897816             -10.6065
       117        2.0000           -0.3854744             -10.4893
       118        2.0000           -0.3830597             -10.4236
       119        2.0000           -0.3392852              -9.2324
       120        2.0000           -0.3380128              -9.1978 (HOMO)
       121                         -0.2304749              -6.2715 (LUMO)
       122                         -0.2264429              -6.1618
       123                         -0.2236733              -6.0865
       124                         -0.2204347              -5.9983
       125                         -0.2174092              -5.9160
       126                         -0.2157196              -5.8700
       127                         -0.2155211              -5.8646
       128                         -0.2134329              -5.8078
       129                         -0.2091900              -5.6923
       130                         -0.2081218              -5.6633
       131                         -0.1896288              -5.1601
       ...                                ...                  ...
       238                          0.6767428              18.4151
      -------------------------------------------------------------
                  HL-Gap            0.1075379 Eh            2.9263 eV

     #   Z          covCN         q      C6AA      α(0)
     1   6 C        3.757    -0.107    22.600     6.778
     2   6 C        2.965     0.008    27.840     8.655
     3   6 C        2.925    -0.041    29.019     8.834
     4   6 C        2.922    -0.050    29.230     8.866
     5   6 C        2.921     0.066    26.522     8.445
     6   7 N        2.750    -0.102    23.243     7.160
     7   6 C        2.925     0.064    26.567     8.453
     8   6 C        2.924    -0.056    29.401     8.892
     9   6 C        2.925    -0.040    28.985     8.829
    10   6 C        2.965     0.005    27.920     8.667
    11   6 C        3.757    -0.106    22.570     6.773
    12   6 C        2.926    -0.040    29.000     8.831
    13   6 C        2.921    -0.056    29.391     8.890
    14   6 C        2.933     0.063    26.582     8.455
    15   6 C        2.930    -0.040    29.001     8.832
    16   6 C        2.916    -0.034    28.842     8.807
    17   6 C        2.920    -0.036    28.906     8.817
    18   6 C        2.930    -0.040    28.987     8.830
    19   6 C        2.966     0.007    27.873     8.660
    20   6 C        3.907     0.018    20.212     6.390
    21   6 C        2.972    -0.001    28.039     8.686
    22   6 C        2.932    -0.039    28.971     8.827
    23   6 C        2.919    -0.035    28.864     8.810
    24   6 C        2.917    -0.032    28.790     8.799
    25   6 C        2.930    -0.041    29.014     8.834
    26   6 C        2.932     0.062    26.601     8.459
    27   7 N        2.753    -0.087    22.926     7.111
    28   6 C        2.921     0.064    26.575     8.454
    29   6 C        2.921    -0.054    29.351     8.884
    30   6 C        2.924    -0.040    29.003     8.832
    31   6 C        2.965     0.006    27.880     8.661
    32   6 C        3.757    -0.107    22.593     6.777
    33   6 C        2.925    -0.041    29.020     8.834
    34   6 C        2.921    -0.051    29.271     8.872
    35   6 C        2.924     0.061    26.629     8.462
    36   6 C        2.924    -0.055    29.368     8.887
    37   6 C        2.924    -0.040    28.987     8.829
    38   6 C        2.965     0.005    27.902     8.664
    39   6 C        3.757    -0.106    22.581     6.775
    40   6 C        2.926    -0.042    29.031     8.836
    41   6 C        2.920    -0.055    29.366     8.886
    42   6 C        3.817    -0.070    21.825     6.649
    43   6 C        3.807    -0.052    21.502     6.601
    44   6 C        3.807    -0.055    21.552     6.609
    45   6 C        3.804    -0.055    21.553     6.609
    46   6 C        3.815    -0.056    21.564     6.609
    47   6 C        2.921    -0.052    29.282     8.874
    48   6 C        2.925    -0.040    29.003     8.832
    49   1 H        0.925     0.042     2.422     2.434
    50   1 H        0.925     0.039     2.466     2.456
    51   1 H        0.924     0.043     2.404     2.425
    52   1 H        0.926     0.029     2.602     2.522
    53   1 H        0.926     0.039     2.465     2.455
    54   1 H        0.926     0.023     2.681     2.561
    55   1 H        0.926     0.024     2.671     2.556
    56   1 H        0.925     0.039     2.466     2.456
    57   1 H        0.924     0.042     2.418     2.432
    58   1 H        0.925     0.038     2.479     2.462
    59   1 H        0.925     0.024     2.669     2.555
    60   1 H        0.926     0.028     2.609     2.526
    61   1 H        0.925     0.033     2.543     2.494
    62   1 H        0.926     0.031     2.572     2.508
    63   1 H        0.926     0.030     2.588     2.516
    64   1 H        0.926     0.043     2.413     2.429
    65   1 H        0.926     0.035     2.522     2.484
    66   1 H        0.926     0.031     2.578     2.511
    67   1 H        0.926     0.032     2.552     2.498
    68   1 H        0.926     0.034     2.526     2.486
    69   1 H        0.926     0.025     2.660     2.550
    70   1 H        0.926     0.026     2.639     2.540
    71   1 H        0.925     0.043     2.413     2.429
    72   1 H        0.925     0.042     2.419     2.432
    73   1 H        0.925     0.038     2.471     2.458
    74   1 H        0.926     0.029     2.606     2.524
    75   1 H        0.926     0.034     2.523     2.484
    76   1 H        0.926     0.032     2.559     2.502
    77   1 H        0.926     0.027     2.624     2.533
    78   1 H        0.925     0.039     2.466     2.456
    79   1 H        0.925     0.039     2.456     2.451
    80   1 H        0.924     0.042     2.418     2.432
    81   1 H        0.926     0.026     2.639     2.540
    82   1 H        0.926     0.029     2.606     2.524
    83   1 H        0.925     0.047     2.363     2.404
    84   1 H        0.925     0.044     2.390     2.418
    85   1 H        0.924     0.024     2.675     2.558
    86   1 H        0.924     0.028     2.613     2.528
    87   1 H        0.924     0.029     2.601     2.522
    88   1 H        0.924     0.025     2.664     2.553
    89   1 H        0.924     0.026     2.647     2.544
    90   1 H        0.924     0.034     2.529     2.487
    91   1 H        0.924     0.036     2.502     2.474
    92   1 H        0.924     0.026     2.642     2.542
    93   1 H        0.926     0.025     2.655     2.548
    94   1 H        0.926     0.027     2.636     2.539

molecular dipole:
                 x           y           z       tot (Debye)
 q only:        0.277      -0.258       0.074
   full:        0.185      -0.246      -0.024       0.786

 projected vibrational frequencies (cm⁻¹)
eigval :       -0.00    -0.00    -0.00    -0.00    -0.00     0.00
eigval :       12.02    14.00    16.65    17.29    20.14    27.37
eigval :       31.97    33.67    36.50    42.01    49.79    52.27
eigval :       56.30    62.15    63.94    69.44    84.42    92.99
eigval :       99.57   104.16   118.55   129.28   136.11   148.72
eigval :      152.97   162.70   171.05   181.95   188.19   219.30
eigval :      232.54   242.34   262.69   264.98   270.69   277.85
eigval :      299.06   307.69   308.61   321.24   328.23   330.65
eigval :      339.89   349.64   362.01   368.67   374.36   379.21
eigval :      380.64   392.14   392.85   394.01   404.41   413.38
eigval :      441.76   449.18   456.40   465.32   471.75   482.86
eigval :      489.43   495.77   510.58   525.81   536.73   542.42
eigval :      554.33   560.23   566.07   574.44   580.60   610.43
eigval :      612.30   613.56   615.35   616.31   647.01   658.39
eigval :      660.16   661.17   667.65   673.66   704.09   710.89
eigval :      719.31   778.78   781.27   796.87   798.41   804.28
eigval :      804.38   806.74   808.75   822.53   824.55   826.68
eigval :      838.82   865.62   870.53   878.03   879.38   882.67
eigval :      889.60   891.81   909.29   910.90   911.99   914.08
eigval :      915.36   917.65   919.89   922.82   923.04   924.75
eigval :      928.19   928.60   931.74   935.43   937.73   941.41
eigval :      945.16   951.07   953.15   976.94  1005.97  1008.18
eigval :     1008.39  1009.05  1009.65  1016.10  1017.98  1027.25
eigval :     1028.58  1033.47  1033.81  1033.86  1034.16  1077.77
eigval :     1088.98  1099.22  1111.91  1115.30  1118.31  1131.02
eigval :     1146.43  1149.50  1150.50  1152.10  1154.42  1156.55
eigval :     1178.93  1179.91  1181.91  1193.23  1199.55  1200.87
eigval :     1203.33  1204.31  1209.36  1210.17  1213.63  1238.97
eigval :     1239.70  1245.81  1247.09  1250.37  1255.12  1265.69
eigval :     1269.51  1277.19  1278.66  1279.84  1280.53  1284.78
eigval :     1293.66  1296.96  1304.59  1315.68  1320.19  1324.57
eigval :     1325.36  1327.84  1330.69  1337.93  1339.64  1344.22
eigval :     1348.26  1356.35  1365.98  1404.99  1405.31  1405.40
eigval :     1406.18  1409.71  1412.57  1413.39  1414.63  1423.95
eigval :     1425.43  1470.16  1474.85  1483.09  1483.25  1484.37
eigval :     1484.70  1485.11  1487.48  1487.80  1488.08  1488.90
eigval :     1491.08  1493.97  1494.79  1496.82  1498.39  1499.69
eigval :     1505.58  1525.53  1565.87  1567.39  1568.60  1570.15
eigval :     1575.18  1575.30  1591.69  1593.74  1609.54  1610.30
eigval :     1612.28  1614.88  2957.08  2961.05  2963.50  2972.35
eigval :     2980.49  2985.83  2989.05  2991.12  2991.75  2996.56
eigval :     2997.88  3000.45  3014.52  3019.27  3024.17  3028.39
eigval :     3034.89  3039.85  3042.61  3043.23  3064.56  3068.17
eigval :     3068.71  3069.14  3069.64  3071.25  3072.48  3072.76
eigval :     3073.32  3074.29  3075.17  3078.62  3080.55  3087.43
eigval :     3088.01  3088.34  3090.40  3090.81  3092.17  3092.79
eigval :     3093.39  3097.12  3099.75  3114.50  3120.43  3124.65

   temp. (K)  partition function   enthalpy   heat capacity  entropy
                                   cal/mol     cal/K/mol   cal/K/mol   J/K/mol
 298.15  VIB  0.463E+22            26067.245    157.348    165.196
         ROT  0.490E+08              888.752      2.981     38.168
         INT  0.227E+30            26955.997    160.329    203.364
         TR   0.152E+29             1481.254      4.968     45.169
         TOT                       28437.2510   165.2969   248.5329  1039.8616

       T/K    H(0)-H(T)+PV         H(T)/Eh          T*S/Eh         G(T)/Eh
   ------------------------------------------------------------------------
    298.15    0.453176E-01    0.824696E+00    0.118086E+00    0.706610E+00
   ------------------------------------------------------------------------

         :::::::::::::::::::::::::::::::::::::::::::::::::::::
         ::                  THERMODYNAMIC                  ::
         :::::::::::::::::::::::::::::::::::::::::::::::::::::
         :: total free energy        -127.149529022284 Eh   ::
         ::.................................................::
         :: total energy             -127.856138938615 Eh   ::
         :: zero point energy           0.779378268844 Eh   ::
         :: G(RRHO) w/o ZPVE           -0.072768352512 Eh   ::
         :: G(RRHO) contrib.            0.706609916332 Eh   ::
         :::::::::::::::::::::::::::::::::::::::::::::::::::::

           -------------------------------------------------
          | TOTAL ENERGY             -127.856138938615 Eh   |
          | TOTAL ENTHALPY           -127.031443025639 Eh   |
          | TOTAL FREE ENERGY        -127.149529022284 Eh   |
          | GRADIENT NORM               0.000042352056 Eh/α |
          | HOMO-LUMO GAP               2.926254972499 eV   |
           -------------------------------------------------

 * finished run on 2025/07/19 at 12:22:38.035
