   * xtb version 6.7.1 (edcfbbe) compiled by 'albert@albert-system' on 2024-07-22

   ID    Z sym.   atoms
    1    6 C      1-5, 7-26, 28-48
    2    7 N      6, 27
    3    1 H      49-94

          program call               : xtb data2507/gas/XT-T/XT-T_gas_T1_crest.xyz --gfn 2 --spinpol --tblite --uhf 2 --ohess vtight --parallel 40 --molden --ceasefiles --namespace data2507/gas/XT-T/XT-T_gas_T1_finalOpt
 * total energy  :  -127.7454036 Eh     change        0.1113877E-07 Eh
 * total energy  :  -127.7454358 Eh     change       -0.3226296E-04 Eh
 * total energy  :  -127.7454543 Eh     change       -0.1846662E-04 Eh
 * total energy  :  -127.7454600 Eh     change       -0.5641203E-05 Eh
 * total energy  :  -127.7454638 Eh     change       -0.3837190E-05 Eh
 * total energy  :  -127.7454660 Eh     change       -0.2248862E-05 Eh
 * total energy  :  -127.7454688 Eh     change       -0.2787008E-05 Eh
 * total energy  :  -127.7454714 Eh     change       -0.2613975E-05 Eh
 * total energy  :  -127.7454739 Eh     change       -0.2440033E-05 Eh
 * total energy  :  -127.7454761 Eh     change       -0.2237952E-05 Eh
 * total energy  :  -127.7454845 Eh     change       -0.1816058E-05 Eh
 * total energy  :  -127.7454857 Eh     change       -0.1158298E-05 Eh
 * total energy  :  -127.7454864 Eh     change       -0.7164614E-06 Eh
 * total energy  :  -127.7454869 Eh     change       -0.4614421E-06 Eh
 * total energy  :  -127.7454873 Eh     change       -0.4647464E-06 Eh
 * total energy  :  -127.7454879 Eh     change       -0.5536740E-06 Eh
 * total energy  :  -127.7454884 Eh     change       -0.5208808E-06 Eh
 * total energy  :  -127.7454888 Eh     change       -0.3850075E-06 Eh
 * total energy  :  -127.7454888 Eh     change       -0.3643805E-07 Eh
   *** GEOMETRY OPTIMIZATION CONVERGED AFTER 22 ITERATIONS ***

 final structure:
================
94
 xtb: 6.7.1 (edcfbbe)
C           -2.23590892328789       -1.66615522643043        5.77355839659428
C           -2.18956333644500       -1.47369990233924        4.28845289909937
C           -1.89038256407707       -0.22806547443649        3.74538625991089
C           -1.82926845452857       -0.03788495384172        2.38158346059832
C           -2.07582421223774       -1.09870139834150        1.50483197445689
N           -1.97781626126077       -0.90412777973182        0.11804187125266
C           -2.65941813763236        0.13694132119565       -0.50607945547829
C           -2.42118837589373        0.39821679737221       -1.85967021197087
C           -3.04180253303738        1.45287839263823       -2.49269205972147
C           -3.93337839127392        2.27894105665699       -1.81653789771730
C           -4.57194604266401        3.44493613147328       -2.50705429483051
C           -4.20481001230989        1.98874736021680       -0.48598216582790
C           -3.59075247954897        0.93572597181363        0.16239348313536
C           -1.68417923883197       -2.05041576119506       -0.69100144635669
C           -2.80449949604887       -2.74796354457223       -1.13425235349195
C           -2.70285754885498       -3.89690400417659       -1.89128743335774
C           -1.43396010686861       -4.35284122488098       -2.21423375181962
C           -0.32223507299477       -3.64853871853228       -1.80449893655419
C           -0.38549898847569       -2.47600363699006       -1.03821487790309
C            0.89751566349003       -1.68035174955645       -0.76413568930045
C            0.90774974390932       -0.56141248721208       -1.81259124493621
C            0.60129962653313       -0.92795156544567       -3.11717491162065
C            0.39608261833026       -0.01711380947146       -4.14140431677619
C            0.43690498596413        1.35367580534255       -3.85698512529548
C            0.78043971836389        1.75748268225999       -2.59764938219135
C            1.09730344284664        0.83248448605161       -1.57737100841644
N            1.72373840298717        1.39414318004738       -0.44623549280275
C            3.00999339313074        1.01055403968778       -0.14182392310137
C            3.86979449493331        0.49822840001549       -1.14413646828088
C            5.13139991467791        0.08016320169342       -0.83335055101431
C            5.61131257361667        0.11330115286945        0.49896823290019
C            6.98770446412162       -0.37399145882546        0.81164362875154
C            4.75628396653614        0.60285166563134        1.49370274371371
C            3.49530445314878        1.04912247869932        1.20483993024250
C            1.11549955025293        2.45635700363821        0.19214251835915
C           -0.28831233501994        2.54553090578620        0.21732942351762
C           -0.91340915088826        3.57359566447631        0.87150988169093
C           -0.17164740807669        4.56949619371685        1.53433914804985
C           -0.87461335492393        5.67538838652045        2.25339938238217
C            1.22025652404783        4.49871954779271        1.47883924278921
C            1.86526897051006        3.47858111103238        0.82125004794638
C            0.95763897579615       -1.19983402256654        0.69034939576658
C            0.94484864381636       -2.38362218015673        1.65263071668676
C            2.22608786153969       -3.18788473599851        1.46443041370916
C            2.30852725031364       -3.67664522370411        0.02304924740337
C            2.18937869787364       -2.51258194065406       -0.95994633979425
C           -2.36264964842470       -2.34991152740440        2.04578854405003
C           -2.41917556412347       -2.52713268800829        3.41547546299282
H           -2.70882146438406       -2.61128299494120        6.02854350355920
H           -2.78675515691289       -0.85701795705067        6.24985303810131
H           -1.22559179652880       -1.66769515302240        6.18397553039339
H           -1.69304841030818        0.60576872648407        4.40426135716776
H           -1.57392126640700        0.93524556251691        1.98750293344202
H           -1.73531794052432       -0.22696152641313       -2.40779356866738
H           -2.82425135723089        1.63976138923615       -3.53420641551505
H           -5.43094405454853        3.80713208688938       -1.94708823104236
H           -4.89531918121302        3.16954148116743       -3.50913461143872
H           -3.85567377120430        4.26219039429673       -2.60113933809083
H           -4.92063347357001        2.59135512081728        0.05605340205345
H           -3.84805957561195        0.72252849384294        1.18882265172623
H           -3.77868157828331       -2.36475127902265       -0.86082469814525
H           -3.58670829521309       -4.42321532829545       -2.21655787095203
H           -1.31025796645514       -5.25284799542478       -2.79872763179264
H            0.63593435710441       -4.03207720607525       -2.11285344506910
H            0.48143682853381       -1.97545017135896       -3.34851552606108
H            0.17039042610908       -0.36419870784546       -5.13732126097549
H            0.22422256186623        2.07948439596714       -4.62693496872277
H            0.87767860504876        2.80918865905396       -2.36635524355948
H            3.52074566013626        0.48562428477934       -2.16637267733087
H            5.78580355065808       -0.28205262207927       -1.61261671291813
H            7.73125664488109        0.18236029288014        0.23881998155915
H            7.21046559326498       -0.26214025917886        1.87000141361616
H            7.09269866689243       -1.42691579950461        0.54396146675789
H            5.09989788713570        0.61763305718199        2.51885251799374
H            2.83220967099521        1.37838368161894        1.99026339215861
H           -0.86501899459594        1.78715978586046       -0.28838665608113
H           -1.99276193950847        3.62019614767245        0.88218524247818
H           -1.49358937693630        5.27422025436282        3.05683340155990
H           -1.53312899090055        6.21571989611359        1.57275518532733
H           -0.16385971732221        6.37780620288019        2.68159715352173
H            1.80645363713467        5.27642900061663        1.94824415169344
H            2.94120662891531        3.47407763298622        0.73919135282130
H            1.90118367403734       -0.68667175309104        0.85682667770292
H            0.15623589049183       -0.50255967104826        0.91014531228230
H            0.87261592362469       -2.01701529091668        2.67905711107488
H            0.08176349310874       -3.02455016894909        1.46647454367502
H            3.08865759005576       -2.55478510085778        1.68900673056763
H            2.24590258721820       -4.03950439209768        2.14792162295354
H            3.26110888311142       -4.18556883024366       -0.14524880420751
H            1.50897774346666       -4.40012652639982       -0.14321814923403
H            3.03088524670578       -1.83487396012061       -0.79598481025853
H            2.27671309764075       -2.86952315519760       -1.98695827565604
H           -2.55212676056798       -3.18776592446359        1.39150390136125
H           -2.65121516812372       -3.50636710259562        3.80970557893808

 projected vibrational frequencies (cm⁻¹)
eigval :       -0.00    -0.00    -0.00    -0.00     0.00     0.00
eigval :      -10.38    16.41    18.74    26.83    30.56    31.14
eigval :       32.20    36.04    40.78    43.38    46.37    49.98
eigval :       57.33    62.28    65.98    70.55    85.70    96.49
eigval :      101.70   105.66   116.42   126.99   133.33   143.48
eigval :      148.03   159.84   168.59   179.69   187.64   210.56
eigval :      230.11   241.18   252.52   262.25   267.80   271.92
eigval :      284.26   290.47   304.35   316.59   319.97   325.07
eigval :      338.22   341.00   359.22   361.65   370.22   377.59
eigval :      378.35   387.88   391.67   392.12   396.92   408.97
eigval :      416.52   419.59   437.81   445.43   451.12   466.52
eigval :      476.22   485.30   501.95   516.43   525.30   530.75
eigval :      543.88   555.52   558.24   564.56   577.15   593.65
eigval :      601.16   606.14   611.00   611.61   613.88   634.55
eigval :      641.49   649.06   658.58   661.98   668.32   697.91
eigval :      707.78   723.66   741.17   766.02   768.94   780.58
eigval :      791.63   795.37   802.73   808.78   811.10   819.21
eigval :      825.10   827.32   835.13   839.82   852.97   863.03
eigval :      873.02   876.37   878.05   884.03   888.70   892.29
eigval :      896.17   899.35   906.76   907.21   908.69   911.76
eigval :      915.19   916.35   918.61   924.42   926.89   932.94
eigval :      942.99   947.45   950.21   961.52   969.05   976.70
eigval :      986.84   989.84   997.90  1007.87  1008.53  1014.60
eigval :     1018.37  1022.43  1025.74  1031.97  1032.18  1064.90
eigval :     1071.56  1087.55  1091.32  1101.58  1102.51  1105.25
eigval :     1125.51  1126.71  1136.35  1140.38  1146.68  1149.67
eigval :     1152.02  1153.15  1154.14  1160.22  1173.35  1175.03
eigval :     1179.07  1187.26  1197.12  1200.95  1203.03  1207.61
eigval :     1210.00  1226.02  1238.74  1240.53  1243.18  1244.18
eigval :     1248.37  1254.49  1258.94  1263.74  1276.45  1278.24
eigval :     1278.80  1291.98  1293.60  1295.75  1308.71  1311.46
eigval :     1315.25  1317.02  1324.24  1328.03  1332.94  1336.33
eigval :     1338.93  1339.97  1345.33  1350.00  1354.65  1363.27
eigval :     1375.14  1401.05  1401.36  1402.90  1403.82  1404.41
eigval :     1412.18  1418.60  1423.03  1433.49  1435.46  1443.97
eigval :     1451.98  1453.90  1469.23  1473.60  1475.11  1475.78
eigval :     1476.36  1481.65  1481.95  1482.85  1485.26  1486.08
eigval :     1488.13  1489.81  1490.03  1491.48  1491.86  1496.96
eigval :     1505.61  1525.00  1526.43  1561.71  1567.67  1585.15
eigval :     1600.38  1606.42  2955.97  2961.35  2967.83  2968.99
eigval :     2970.51  2979.10  2984.69  2990.92  2991.80  2991.88
eigval :     2992.09  2995.63  2996.62  3002.33  3023.76  3025.60
eigval :     3037.87  3040.03  3042.30  3042.47  3047.01  3064.72
eigval :     3064.94  3065.78  3065.86  3068.74  3070.96  3072.93
eigval :     3074.90  3075.84  3076.10  3079.71  3081.16  3084.06
eigval :     3087.44  3087.58  3088.40  3091.15  3091.56  3093.18
eigval :     3093.58  3094.95  3101.57  3112.88  3121.02  3122.23

   temp. (K)  partition function   enthalpy   heat capacity  entropy
                                   cal/mol     cal/K/mol   cal/K/mol   J/K/mol
 298.15  VIB  0.229E+22            26501.374    161.105    167.019
         ROT  0.483E+08              888.752      2.981     38.141
         INT  0.111E+30            27390.127    164.085    205.160
         TR   0.152E+29             1481.254      4.968     45.169
         TOT                       28871.3806   169.0536   250.3294  1047.3780

       T/K    H(0)-H(T)+PV         H(T)/Eh          T*S/Eh         G(T)/Eh
   ------------------------------------------------------------------------
    298.15    0.460095E-01    0.816746E+00    0.118940E+00    0.697807E+00
   ------------------------------------------------------------------------

         :::::::::::::::::::::::::::::::::::::::::::::::::::::
         ::                  THERMODYNAMIC                  ::
         :::::::::::::::::::::::::::::::::::::::::::::::::::::
         :: total free energy        -127.047682255747 Eh   ::
         ::.................................................::
         :: total energy             -127.745488848279 Eh   ::
         :: zero point energy           0.770736672602 Eh   ::
         :: G(RRHO) w/o ZPVE           -0.072930080070 Eh   ::
         :: G(RRHO) contrib.            0.697806592531 Eh   ::
         :::::::::::::::::::::::::::::::::::::::::::::::::::::

           -------------------------------------------------
          | TOTAL ENERGY             -127.745488848279 Eh   |
          | TOTAL ENTHALPY           -126.928742702112 Eh   |
          | TOTAL FREE ENERGY        -127.047682255747 Eh   |
          | GRADIENT NORM               0.000096552667 Eh/α |
           -------------------------------------------------

 * finished run on 2025/07/19 at 12:42:45.898
