   * xtb version 6.7.1 (edcfbbe) compiled by 'albert@albert-system' on 2024-07-22

   ID    Z sym.   atoms
    1    6 C      1-5, 7-26, 28-48
    2    7 N      6, 27
    3    1 H      49-94

          program call               : xtb data2507/gas/XT-T/XT-T_gas_S0_finalOpt.xtbopt.xyz --gfn 2 --spinpol --tblite --uhf 2 --ohess vtight --parallel 40 --molden --ceasefiles --namespace data2507/gas/XT-T/XT-T_gas_T1_preOpt
 * total energy  :  -127.7401071 Eh     change       -0.1631543E-07 Eh
 * total energy  :  -127.7429512 Eh     change       -0.2844084E-02 Eh
 * total energy  :  -127.7441799 Eh     change       -0.1228696E-02 Eh
 * total energy  :  -127.7444458 Eh     change       -0.2659671E-03 Eh
 * total energy  :  -127.7446426 Eh     change       -0.1968109E-03 Eh
 * total energy  :  -127.7447144 Eh     change       -0.7174780E-04 Eh
 * total energy  :  -127.7448275 Eh     change       -0.1130955E-03 Eh
 * total energy  :  -127.7449115 Eh     change       -0.8397491E-04 Eh
 * total energy  :  -127.7449922 Eh     change       -0.8075820E-04 Eh
 * total energy  :  -127.7450581 Eh     change       -0.6587913E-04 Eh
 * total energy  :  -127.7454890 Eh     change       -0.6810405E-06 Eh
 * total energy  :  -127.7454896 Eh     change       -0.6346435E-06 Eh
 * total energy  :  -127.7454904 Eh     change       -0.7028703E-06 Eh
 * total energy  :  -127.7454910 Eh     change       -0.6145750E-06 Eh
 * total energy  :  -127.7454908 Eh     change        0.1202628E-06 Eh
 * total energy  :  -127.7454912 Eh     change       -0.3990609E-06 Eh
 * total energy  :  -127.7454916 Eh     change       -0.3078280E-06 Eh
 * total energy  :  -127.7454917 Eh     change       -0.1446601E-06 Eh
 * total energy  :  -127.7454918 Eh     change       -0.7964876E-07 Eh
   *** GEOMETRY OPTIMIZATION CONVERGED AFTER 176 ITERATIONS ***

 final structure:
================
94
 xtb: 6.7.1 (edcfbbe)
C           -2.14062353100522       -1.72529458069469        5.78394219933730
C           -2.10040472072271       -1.52252579090662        4.30002909194796
C           -1.81651425806610       -0.26913621041914        3.76619412152420
C           -1.78516826574687       -0.06177432365007        2.40406211282418
C           -2.04839755525205       -1.11220706868648        1.51945347563717
N           -1.97829560623734       -0.90047664840151        0.13357104590876
C           -2.67170241834078        0.14851903472134       -0.46388625714576
C           -2.46009737009213        0.42665374370147       -1.81843286523528
C           -3.09274497943511        1.48919627481929       -2.42617174602347
C           -3.97058683341460        2.30665239518689       -1.72257306778133
C           -4.62124332474888        3.48305610648750       -2.38347459805496
C           -4.21605293875733        1.99976940954079       -0.39052301736501
C           -3.58976287333849        0.93885560430468        0.23255567892729
C           -1.70224118168608       -2.03612212992250       -0.69642095189744
C           -2.83223032102497       -2.72715977647066       -1.12516487333237
C           -2.74760686272759       -3.86435175886391       -1.90175665506334
C           -1.48634509486484       -4.31454308295164       -2.26045975848934
C           -0.36561862534152       -3.61670869398444       -1.86422290006745
C           -0.41166470822066       -2.45672242919096       -1.07796258146950
C            0.87775428600740       -1.66700013537740       -0.81684176486627
C            0.86886707589660       -0.52988959452865       -1.84559664902972
C            0.53613266281136       -0.87398189157558       -3.15000299864923
C            0.31581457471606        0.05423936114681       -4.15528856121814
C            0.36899836342800        1.41962864155536       -3.84988253602553
C            0.73784356672208        1.80131734563497       -2.59054797856809
C            1.06792752923529        0.85857823469986       -1.59142328700206
N            1.71344784489932        1.39990251382403       -0.46040119874758
C            3.00502421595272        1.01180281262919       -0.18651555797323
C            3.84804182709420        0.52164009740553       -1.21407051457771
C            5.11598768454348        0.10129483079118       -0.93440536119049
C            5.61972904789906        0.10899944807950        0.38992442153584
C            7.00254460152451       -0.38073231533815        0.66815349685057
C            4.78077156031798        0.57437814291756        1.40963887623859
C            3.51385761901350        1.02303379211322        1.15248516021994
C            1.11517448162026        2.44812030256941        0.20903799898856
C           -0.28819365368380        2.53831809872785        0.25491207752735
C           -0.90324972858103        3.55022845120331        0.94265799919905
C           -0.15148006022621        4.52827341179111        1.62112901470131
C           -0.84354682091075        5.61379773840582        2.38054508156976
C            1.23948908433461        4.45830613658461        1.54423258236498
C            1.87451974192873        3.45499952368557        0.85215782956534
C            0.96816336578984       -1.21277873520057        0.64452568912000
C            0.97343661532305       -2.41366302447296        1.58546723755726
C            2.24996885921208       -3.21499338255249        1.35709323143614
C            2.30288470130263       -3.67782921769964       -0.09419775444653
C            2.16450818007725       -2.49648580015179       -1.05383837117312
C           -2.32084644376269       -2.37061155614713        2.05073093251773
C           -2.34712020076823       -2.56520314922791        3.41916953927521
H           -1.25706742330493       -1.29604034879710        6.25364398693093
H           -2.19020574456273       -2.78278438774322        6.03086118680814
H           -3.01533902309324       -1.23200376156638        6.20867408483850
H           -1.60571757884821        0.55646626210144        4.43125727564149
H           -1.53829197418481        0.91618311854050        2.01670149611460
H           -1.78532420875774       -0.19159294128178       -2.38777391102217
H           -2.89543466314785        1.68868246262065       -3.46938496111613
H           -4.91205067608798        3.24061173419110       -3.40364509077242
H           -3.92384547852621        4.32089485588170       -2.42555395632548
H           -5.50258462797920        3.80200693274310       -1.83183249451426
H           -4.92118361639818        2.59563963065321        0.17257081757769
H           -3.82709360883535        0.71275828920219        1.26103741205478
H           -3.80002037312185       -2.34816742759766       -0.82455816764801
H           -3.63856376786498       -4.38585210398260       -2.21519376752378
H           -1.37584752436173       -5.20490269505988       -2.86211462957111
H            0.58538613202808       -3.99502153260616       -2.19996151510352
H            0.40745554435816       -1.91710324997194       -3.39592991745198
H            0.06975485588351       -0.27583941223303       -5.15218562418529
H            0.14590090333146        2.15896612714534       -4.60383890705919
H            0.84412857046712        2.84866922442310       -2.34395835906975
H            3.48086292573547        0.52864310544446       -2.23000907428388
H            5.75751725369631       -0.24281216886364       -1.73234516057838
H            7.25229849143753       -0.26816741019807        1.72038814951505
H            7.09835699996921       -1.43452074089913        0.39989481778911
H            7.73246161043712        0.17272936807290        0.07553652024132
H            5.14217326166008        0.56812880800834        2.42875173741917
H            2.86345874803881        1.33288106271353        1.95619557056441
H           -0.87259516559545        1.79338197736643       -0.26180224285226
H           -1.98231050258792        3.59774271200495        0.96850705552240
H           -1.53240649408186        6.15526033379998        1.73178044323258
H           -0.12759911012372        6.31883848474592        2.79559780887043
H           -1.42883413159510        5.19192833150207        3.19870303574625
H            1.83275472431194        5.22384202455464        2.02465687320790
H            2.94908307816297        3.45280441056939        0.75409099733608
H            1.91573163434253       -0.70394793554005        0.80084819240814
H            0.17253578650726       -0.51862854289456        0.89325607513739
H            0.92212298699452       -2.06563495294290        2.61956257053091
H            0.10623414330261       -3.05066063152753        1.40508224965865
H            3.11738336877464       -2.58640117701133        1.57554970485033
H            2.28290522363565       -4.07874132703093        2.02466115284331
H            3.25151345368796       -4.18392896794442       -0.29087130145149
H            1.49970277838187       -4.39805503008835       -0.25709407002060
H            3.00989066384829       -1.82216215545763       -0.89555542422692
H            2.23023406744911       -2.83543845094460       -2.08854250446040
H           -2.52115292472785       -3.20110031869940        1.39030945151535
H           -2.56710111113999       -3.55029311038232        3.80561221019324

 projected vibrational frequencies (cm⁻¹)
eigval :       -0.00    -0.00    -0.00     0.00     0.00     0.00
eigval :       -4.19    16.67    19.14    28.00    30.50    30.62
eigval :       33.63    36.06    40.96    42.88    46.39    50.60
eigval :       57.38    62.29    66.15    70.90    85.54    96.18
eigval :      101.88   105.92   116.41   126.91   133.98   143.76
eigval :      148.18   159.96   168.54   179.69   187.57   210.92
eigval :      230.28   241.12   252.45   262.54   267.76   272.00
eigval :      284.18   290.35   303.92   316.38   320.03   324.70
eigval :      338.27   341.33   359.20   361.87   370.23   377.67
eigval :      378.50   387.66   391.78   392.20   397.15   408.87
eigval :      416.41   420.25   437.59   445.96   451.25   466.27
eigval :      477.12   485.18   502.56   516.81   525.29   530.88
eigval :      544.00   556.04   558.21   564.52   576.94   592.99
eigval :      601.26   606.27   611.04   611.34   614.00   634.07
eigval :      641.85   649.63   658.67   662.42   668.45   698.04
eigval :      707.58   723.26   741.73   765.71   769.40   781.25
eigval :      791.56   796.91   802.32   807.54   810.64   819.94
eigval :      825.66   827.47   835.69   839.91   852.64   863.02
eigval :      872.62   876.29   878.19   884.31   888.71   892.78
eigval :      896.66   899.36   906.89   907.13   908.72   911.80
eigval :      915.28   916.19   918.63   924.40   927.03   933.06
eigval :      943.33   947.57   950.32   961.23   968.62   976.74
eigval :      986.76   989.69   998.26  1007.98  1008.65  1014.46
eigval :     1018.28  1022.48  1025.59  1032.11  1032.56  1066.01
eigval :     1071.35  1087.57  1091.62  1100.00  1102.50  1104.72
eigval :     1125.76  1126.83  1136.47  1140.76  1146.88  1149.82
eigval :     1152.24  1153.31  1154.45  1160.78  1173.70  1175.31
eigval :     1179.31  1187.47  1197.39  1201.21  1203.25  1207.67
eigval :     1210.03  1226.49  1239.00  1240.70  1243.72  1244.70
eigval :     1248.53  1254.69  1259.28  1263.55  1276.55  1278.26
eigval :     1278.95  1292.47  1293.64  1295.81  1308.75  1311.54
eigval :     1315.38  1317.65  1324.41  1328.25  1333.32  1336.23
eigval :     1339.04  1340.18  1345.71  1350.10  1354.90  1363.67
eigval :     1375.81  1401.21  1401.50  1403.18  1404.10  1404.82
eigval :     1412.29  1418.61  1423.24  1433.84  1435.70  1443.82
eigval :     1452.67  1454.29  1469.13  1473.43  1475.25  1476.14
eigval :     1476.87  1481.86  1482.46  1483.26  1485.89  1486.34
eigval :     1488.41  1490.16  1490.38  1491.63  1492.03  1497.32
eigval :     1506.08  1525.80  1526.49  1561.79  1567.97  1585.18
eigval :     1600.55  1606.68  2956.20  2961.56  2967.46  2969.57
eigval :     2969.80  2979.65  2983.87  2990.35  2991.53  2992.12
eigval :     2992.37  2996.83  2997.32  3003.04  3021.04  3028.56
eigval :     3037.02  3040.22  3042.44  3044.20  3047.68  3065.04
eigval :     3065.09  3066.03  3066.20  3068.92  3071.21  3073.27
eigval :     3075.09  3076.22  3076.26  3079.93  3081.18  3084.11
eigval :     3087.67  3088.19  3088.68  3091.28  3091.61  3093.28
eigval :     3093.92  3095.59  3101.78  3113.11  3121.45  3122.54

   temp. (K)  partition function   enthalpy   heat capacity  entropy
                                   cal/mol     cal/K/mol   cal/K/mol   J/K/mol
 298.15  VIB  0.497E+22            26501.192    161.120    167.816
         ROT  0.483E+08              888.752      2.981     38.140
         INT  0.240E+30            27389.944    164.101    205.956
         TR   0.152E+29             1481.254      4.968     45.169
         TOT                       28871.1982   169.0693   251.1250  1050.7072

       T/K    H(0)-H(T)+PV         H(T)/Eh          T*S/Eh         G(T)/Eh
   ------------------------------------------------------------------------
    298.15    0.460092E-01    0.816830E+00    0.119318E+00    0.697512E+00
   ------------------------------------------------------------------------

         :::::::::::::::::::::::::::::::::::::::::::::::::::::
         ::                  THERMODYNAMIC                  ::
         :::::::::::::::::::::::::::::::::::::::::::::::::::::
         :: total free energy        -127.047979745421 Eh   ::
         ::.................................................::
         :: total energy             -127.745491780790 Eh   ::
         :: zero point energy           0.770820463360 Eh   ::
         :: G(RRHO) w/o ZPVE           -0.073308427991 Eh   ::
         :: G(RRHO) contrib.            0.697512035369 Eh   ::
         :::::::::::::::::::::::::::::::::::::::::::::::::::::

           -------------------------------------------------
          | TOTAL ENERGY             -127.745491780790 Eh   |
          | TOTAL ENTHALPY           -126.928662134525 Eh   |
          | TOTAL FREE ENERGY        -127.047979745421 Eh   |
          | GRADIENT NORM               0.000120116028 Eh/α |
           -------------------------------------------------

 * finished run on 2025/07/19 at 12:23:15.293
