   * xtb version 6.7.1 (edcfbbe) compiled by 'albert@albert-system' on 2024-07-22

   ID    Z sym.   atoms
    1    6 C      1-5, 7-26, 28-48
    2    7 N      6, 27
    3    1 H      49-94

          program call               : xtb data2507/gas/XT-T/XT-T.xyz --gfn 2 --ohess vtight --parallel 40 --molden --ceasefiles --namespace data2507/gas/XT-T/XT-T_gas_S0_preOpt
          :  Hamiltonian                  GFN2-xTB          :
 * total energy  :  -127.8059320 Eh     change       -0.3468585E-08 Eh
 * total energy  :  -127.8263351 Eh     change       -0.2040306E-01 Eh
 * total energy  :  -127.8357315 Eh     change       -0.9396366E-02 Eh
 * total energy  :  -127.8396141 Eh     change       -0.3882666E-02 Eh
 * total energy  :  -127.8418636 Eh     change       -0.2249480E-02 Eh
 * total energy  :  -127.8429354 Eh     change       -0.1071799E-02 Eh
 * total energy  :  -127.8434177 Eh     change       -0.4822708E-03 Eh
 * total energy  :  -127.8437446 Eh     change       -0.3269734E-03 Eh
 * total energy  :  -127.8439997 Eh     change       -0.2550387E-03 Eh
 * total energy  :  -127.8441809 Eh     change       -0.1811697E-03 Eh
 * total energy  :  -127.8448279 Eh     change        0.9834193E-06 Eh
 * total energy  :  -127.8448308 Eh     change       -0.2883600E-05 Eh
 * total energy  :  -127.8448311 Eh     change       -0.2803614E-06 Eh
 * total energy  :  -127.8448316 Eh     change       -0.5899548E-06 Eh
 * total energy  :  -127.8448312 Eh     change        0.4759119E-06 Eh
 * total energy  :  -127.8448318 Eh     change       -0.6210883E-06 Eh
 * total energy  :  -127.8448313 Eh     change        0.4644160E-06 Eh
 * total energy  :  -127.8448319 Eh     change       -0.5668377E-06 Eh
 * total energy  :  -127.8448320 Eh     change       -0.8027884E-07 Eh
   *** GEOMETRY OPTIMIZATION CONVERGED AFTER 128 ITERATIONS ***

 final structure:
================
94
 xtb: 6.7.1 (edcfbbe)
C           -3.61328476991660        5.17093812399963        2.35532545030344
C           -3.30196084534040        3.88107258645686        1.65805400216047
C           -4.29327190794804        3.19384047249525        0.96657644495958
C           -4.02044887464239        2.01341673744675        0.30634535817818
C           -2.73626877331034        1.46755436352550        0.33008291658336
N           -2.42622626333401        0.25839811612078       -0.32252404759144
C           -3.48270100719287       -0.62108174911784       -0.59705190935997
C           -3.64894794325260       -1.21982888071157       -1.84320277320137
C           -4.67638925971666       -2.12114887563443       -2.05597230068717
C           -5.56828192503673       -2.44944274689008       -1.04654266236655
C           -6.68885249062336       -3.41858864968273       -1.27396933568352
C           -5.39933711781541       -1.84860247985681        0.19773241136271
C           -4.37565467147015       -0.95525299813749        0.42523895922334
C           -1.34690792347342        0.30513543095155       -1.26088034779492
C           -1.45217758231121        1.28187407223160       -2.25098287232085
C           -0.51323380332334        1.40806116911587       -3.25318322974583
C            0.54652133947287        0.52275856396237       -3.28027875050522
C            0.66767831488214       -0.43821608105111       -2.29365282335442
C           -0.24445939940452       -0.56886420674798       -1.24953975827393
C            0.00574388565330       -1.58595182331490       -0.12761773801813
C            0.29738512151898       -0.73122701002677        1.11085520749874
C           -0.56269479844167       -0.75152757685754        2.20704510443116
C           -0.39588125688424        0.06120772247474        3.31282470334535
C            0.65106904930372        0.96170094330998        3.35341700525193
C            1.52340097055642        1.00436377843181        2.28600044110220
C            1.37693021613697        0.17022378158448        1.17729167641297
N            2.38994712669273        0.30321730860431        0.17359170926882
C            2.59157386227417        1.58875718500419       -0.35417421835808
C            1.49515634450995        2.36962595544432       -0.71084560449183
C            1.66512754524953        3.63054635721896       -1.24468683048011
C            2.93128224112361        4.16339246949117       -1.44371651930507
C            3.11896886899468        5.52023252801467       -2.05254226418719
C            4.02439899470298        3.39153076774922       -1.07056570484898
C            3.86514438664554        2.13257339760994       -0.52726467892931
C            3.50024415391038       -0.55251726896946        0.26414883559049
C            3.85977504310998       -1.17990048351038        1.45377630932487
C            4.94449609874388       -2.03889031285467        1.49322013322994
C            5.70224337476573       -2.29442924995999        0.36134878074086
C            6.87738749651214       -3.22366530151231        0.39758037761731
C            5.34432082528545       -1.65979760044680       -0.82545653554746
C            4.26462988648655       -0.80630511669666       -0.87960864117666
C           -1.22871224665760       -2.51785929683303       -0.04017873183269
C           -0.94671924322462       -3.92256675897529        0.51353310360501
C            0.21399791148640       -3.91929830340189        1.49621870417784
C            1.48130932069009       -3.45073736583402        0.77953761545969
C            1.17737424528308       -2.54146356862665       -0.41574620564453
C           -1.74098082368149        2.15904453226897        1.01330114918959
C           -2.02214335887974        3.34516278834829        1.66247799410706
H           -4.53021803230167        5.08332102061357        2.93561102363860
H           -3.75597821620968        5.96924914505336        1.62629283440828
H           -2.80245811520878        5.45724353503949        3.02056724107973
H           -5.29578235883082        3.59729750047447        0.93449828326681
H           -4.80752270558789        1.51275319737417       -0.23884615530225
H           -2.97314270812857       -0.97718999774516       -2.65035044383109
H           -4.78602450677468       -2.57110269209249       -3.03278705938026
H           -6.64590836310440       -4.22941119380201       -0.54768244627877
H           -6.63815382092919       -3.84368483433237       -2.27321173347484
H           -7.65146633398217       -2.92052163185320       -1.15857651848176
H           -6.07910719898871       -2.09365804308194        1.00168199862052
H           -4.25202836854301       -0.50454159300364        1.39966065597764
H           -2.30507686532389        1.94616232893683       -2.21954382769519
H           -0.61717006879380        2.17470767093469       -4.00584724332168
H            1.28754003958779        0.58108907791910       -4.06342616566231
H            1.51213407743980       -1.10290223255152       -2.34943271917899
H           -1.40808223347178       -1.41838935991489        2.21239409608850
H           -1.09416273520793       -0.00360793025144        4.13385869894526
H            0.79133110778895        1.61531010995599        4.20101292119998
H            2.35523900669295        1.69583277447368        2.29236738837422
H            0.50103783298289        1.98328328199772       -0.57483356208812
H            0.79064340209210        4.20651764538620       -1.51225376221917
H            3.29476035942155        5.42939425622876       -3.12535408598422
H            2.23438718907192        6.13570856746473       -1.90648666354890
H            3.97749158016344        6.02591280173271       -1.61514896725095
H            5.02272582909945        3.78798729198939       -1.19383089543893
H            4.73856443607659        1.57437317442876       -0.22388072550356
H            3.29787518661157       -0.98370246630466        2.35547739239167
H            5.20569649814979       -2.51196984380633        2.42942087252706
H            7.03300574789218       -3.61458141693604        1.39989364017004
H            7.78272084459588       -2.70650454405690        0.08132425099392
H            6.71986510163392       -4.06160397753829       -0.28101541267771
H            5.92143419128695       -1.84456815424396       -1.72046812931554
H            3.99570935575479       -0.32329771437370       -1.80802855727757
H           -2.02205415159637       -2.05992270528517        0.53902061530567
H           -1.61528003178309       -2.63067078418733       -1.05568918767966
H           -1.85081249357445       -4.30174169360994        0.99441738243545
H           -0.70660144202869       -4.60687145821026       -0.30296809832547
H           -0.01280600223386       -3.25378000253170        2.32908074379772
H            0.36103028865636       -4.92006374173291        1.90721058049622
H            2.12488373661126       -2.92168054023221        1.48324152827624
H            2.04570986016231       -4.31097892608368        0.41257290467189
H            2.09111251590390       -2.01103877481983       -0.65864152162431
H            0.90408515586994       -3.15060960662000       -1.28007487298407
H           -0.74314897579568        1.75915807262811        1.04725054140442
H           -1.22656595324529        3.85582796030041        2.18618325109292

          :  Hamiltonian                  GFN2-xTB          :
         :: gradient norm              0.000062263519 Eh/a0 ::
         :: HOMO-LUMO gap              3.024664657292 eV    ::
         :: SCC energy              -130.136184030101 Eh    ::
         :: -> dispersion             -0.143265589474 Eh    ::
         :: repulsion energy           2.291352056987 Eh    ::

    * Orbital Energies and Occupations

         #    Occupation            Energy/Eh            Energy/eV
      -------------------------------------------------------------
         1        2.0000           -0.6544102             -17.8074
       ...           ...                  ...                  ...
       108        2.0000           -0.4004550             -10.8969
       109        2.0000           -0.3984993             -10.8437
       110        2.0000           -0.3980867             -10.8325
       111        2.0000           -0.3957193             -10.7681
       112        2.0000           -0.3943582             -10.7310
       113        2.0000           -0.3928393             -10.6897
       114        2.0000           -0.3917958             -10.6613
       115        2.0000           -0.3905958             -10.6287
       116        2.0000           -0.3875738             -10.5464
       117        2.0000           -0.3850952             -10.4790
       118        2.0000           -0.3845319             -10.4636
       119        2.0000           -0.3410668              -9.2809
       120        2.0000           -0.3396957              -9.2436 (HOMO)
       121                         -0.2285413              -6.2189 (LUMO)
       122                         -0.2247714              -6.1163
       123                         -0.2229189              -6.0659
       124                         -0.2180923              -5.9346
       125                         -0.2171890              -5.9100
       126                         -0.2166753              -5.8960
       127                         -0.2153122              -5.8589
       128                         -0.2123410              -5.7781
       129                         -0.2104678              -5.7271
       130                         -0.2084266              -5.6716
       131                         -0.1927376              -5.2447
       ...                                ...                  ...
       238                          0.6777429              18.4423
      -------------------------------------------------------------
                  HL-Gap            0.1111544 Eh            3.0247 eV

     #   Z          covCN         q      C6AA      α(0)
     1   6 C        3.757    -0.107    22.597     6.778
     2   6 C        2.965     0.008    27.841     8.655
     3   6 C        2.925    -0.042    29.034     8.837
     4   6 C        2.921    -0.051    29.277     8.873
     5   6 C        2.929     0.063    26.594     8.457
     6   7 N        2.749    -0.110    23.402     7.185
     7   6 C        2.927     0.066    26.513     8.444
     8   6 C        2.920    -0.054    29.352     8.884
     9   6 C        2.925    -0.040    29.003     8.832
    10   6 C        2.965     0.006    27.879     8.661
    11   6 C        3.757    -0.107    22.597     6.777
    12   6 C        2.925    -0.041    29.027     8.835
    13   6 C        2.922    -0.051    29.258     8.870
    14   6 C        2.929     0.061    26.644     8.465
    15   6 C        2.928    -0.041    29.027     8.835
    16   6 C        2.917    -0.032    28.787     8.798
    17   6 C        2.920    -0.033    28.816     8.803
    18   6 C        2.928    -0.036    28.908     8.817
    19   6 C        2.974     0.001    27.999     8.680
    20   6 C        3.903     0.019    20.198     6.388
    21   6 C        2.971     0.008    27.829     8.653
    22   6 C        2.928    -0.035    28.863     8.811
    23   6 C        2.920    -0.034    28.840     8.806
    24   6 C        2.916    -0.033    28.814     8.802
    25   6 C        2.928    -0.041    29.031     8.836
    26   6 C        2.928     0.061    26.636     8.464
    27   7 N        2.749    -0.108    23.355     7.178
    28   6 C        2.927     0.062    26.607     8.459
    29   6 C        2.925    -0.055    29.363     8.886
    30   6 C        2.925    -0.040    28.987     8.829
    31   6 C        2.965     0.006    27.888     8.662
    32   6 C        3.757    -0.106    22.586     6.776
    33   6 C        2.926    -0.042    29.040     8.837
    34   6 C        2.922    -0.055    29.361     8.886
    35   6 C        2.926     0.067    26.498     8.442
    36   6 C        2.920    -0.052    29.285     8.874
    37   6 C        2.924    -0.040    28.997     8.831
    38   6 C        2.965     0.008    27.841     8.655
    39   6 C        3.757    -0.107    22.605     6.779
    40   6 C        2.925    -0.041    29.030     8.836
    41   6 C        2.922    -0.049    29.228     8.866
    42   6 C        3.814    -0.062    21.684     6.628
    43   6 C        3.804    -0.053    21.517     6.604
    44   6 C        3.803    -0.055    21.565     6.611
    45   6 C        3.804    -0.054    21.549     6.609
    46   6 C        3.814    -0.062    21.682     6.628
    47   6 C        2.924    -0.053    29.317     8.879
    48   6 C        2.925    -0.039    28.980     8.828
    49   1 H        0.925     0.042     2.426     2.436
    50   1 H        0.924     0.043     2.404     2.425
    51   1 H        0.925     0.039     2.460     2.453
    52   1 H        0.926     0.028     2.616     2.529
    53   1 H        0.926     0.028     2.612     2.527
    54   1 H        0.926     0.024     2.680     2.560
    55   1 H        0.926     0.026     2.643     2.542
    56   1 H        0.925     0.042     2.423     2.434
    57   1 H        0.925     0.038     2.472     2.459
    58   1 H        0.925     0.043     2.415     2.430
    59   1 H        0.926     0.028     2.614     2.528
    60   1 H        0.926     0.029     2.601     2.522
    61   1 H        0.925     0.031     2.572     2.508
    62   1 H        0.926     0.031     2.568     2.506
    63   1 H        0.926     0.030     2.583     2.513
    64   1 H        0.926     0.043     2.413     2.429
    65   1 H        0.926     0.045     2.379     2.412
    66   1 H        0.926     0.030     2.589     2.516
    67   1 H        0.926     0.030     2.588     2.516
    68   1 H        0.925     0.030     2.584     2.514
    69   1 H        0.926     0.030     2.585     2.514
    70   1 H        0.926     0.026     2.647     2.544
    71   1 H        0.924     0.043     2.415     2.430
    72   1 H        0.925     0.039     2.462     2.454
    73   1 H        0.925     0.040     2.452     2.449
    74   1 H        0.925     0.026     2.639     2.540
    75   1 H        0.926     0.027     2.630     2.536
    76   1 H        0.926     0.026     2.643     2.542
    77   1 H        0.926     0.027     2.627     2.534
    78   1 H        0.925     0.039     2.462     2.454
    79   1 H        0.925     0.043     2.408     2.427
    80   1 H        0.925     0.043     2.405     2.425
    81   1 H        0.926     0.029     2.595     2.519
    82   1 H        0.926     0.032     2.554     2.499
    83   1 H        0.925     0.044     2.396     2.421
    84   1 H        0.924     0.030     2.585     2.514
    85   1 H        0.924     0.025     2.662     2.552
    86   1 H        0.924     0.030     2.591     2.517
    87   1 H        0.925     0.033     2.542     2.493
    88   1 H        0.924     0.025     2.664     2.553
    89   1 H        0.924     0.028     2.616     2.529
    90   1 H        0.924     0.025     2.656     2.549
    91   1 H        0.925     0.043     2.411     2.428
    92   1 H        0.924     0.033     2.540     2.492
    93   1 H        0.926     0.033     2.547     2.496
    94   1 H        0.926     0.027     2.625     2.534

molecular dipole:
                 x           y           z       tot (Debye)
 q only:        0.041      -0.295       0.026
   full:        0.041      -0.104       0.001       0.285

 projected vibrational frequencies (cm⁻¹)
eigval :       -0.00    -0.00     0.00     0.00     0.00     0.00
eigval :      -16.45     8.95    10.80    13.34    15.10    18.64
eigval :       23.65    28.83    40.34    46.84    46.94    49.90
eigval :       58.28    59.55    68.21    74.17    80.81    89.92
eigval :      103.50   113.59   114.63   131.28   137.27   143.74
eigval :      151.61   155.90   159.28   169.60   180.95   216.17
eigval :      227.61   239.59   247.35   260.38   262.45   281.72
eigval :      290.26   301.47   313.61   315.40   330.02   331.04
eigval :      339.24   343.47   353.62   360.56   371.62   372.27
eigval :      380.54   385.05   390.90   395.09   404.13   411.55
eigval :      443.43   449.50   462.17   470.09   476.86   481.03
eigval :      491.18   492.26   521.97   531.31   538.96   542.61
eigval :      552.84   555.45   567.38   574.80   586.83   612.34
eigval :      613.53   614.00   614.47   620.86   653.76   661.76
eigval :      664.03   667.55   669.60   678.96   703.33   716.51
eigval :      726.76   772.38   776.64   793.57   798.77   801.36
eigval :      803.26   804.71   807.46   810.89   818.40   825.65
eigval :      827.29   865.88   872.92   875.29   877.92   881.30
eigval :      882.40   893.36   909.81   909.86   911.33   911.81
eigval :      914.02   915.46   918.12   921.08   924.37   925.19
eigval :      926.57   930.63   931.20   932.02   935.74   941.56
eigval :      948.11   953.87   962.99   976.89  1000.04  1007.81
eigval :     1008.18  1008.65  1008.98  1015.75  1016.89  1026.51
eigval :     1026.71  1033.36  1033.43  1033.62  1033.65  1080.61
eigval :     1094.67  1111.71  1115.58  1126.37  1131.34  1142.75
eigval :     1144.83  1145.77  1147.61  1150.55  1154.67  1168.58
eigval :     1178.15  1178.97  1186.74  1193.12  1198.63  1201.01
eigval :     1201.51  1205.65  1207.49  1210.31  1217.89  1235.19
eigval :     1236.71  1239.96  1244.61  1246.74  1254.64  1266.31
eigval :     1269.99  1275.15  1276.53  1277.96  1278.46  1282.42
eigval :     1291.84  1293.48  1299.63  1300.88  1312.62  1314.41
eigval :     1325.42  1325.93  1329.68  1335.80  1336.10  1340.21
eigval :     1346.31  1357.05  1360.20  1404.71  1404.88  1405.57
eigval :     1405.70  1411.96  1412.15  1415.13  1416.73  1422.61
eigval :     1424.30  1464.13  1467.60  1482.74  1483.51  1483.73
eigval :     1484.97  1487.57  1487.60  1488.04  1488.68  1491.08
eigval :     1492.23  1493.67  1495.43  1497.91  1501.15  1505.49
eigval :     1514.75  1529.11  1566.17  1568.14  1569.64  1570.68
eigval :     1576.49  1577.06  1589.75  1592.64  1609.76  1610.64
eigval :     1613.08  1614.43  2959.78  2961.90  2971.03  2975.67
eigval :     2978.62  2988.62  2990.17  2995.42  2999.74  2999.96
eigval :     3001.85  3009.56  3015.23  3015.32  3022.62  3028.60
eigval :     3037.65  3042.30  3043.51  3044.32  3067.29  3067.71
eigval :     3068.32  3068.78  3069.76  3070.03  3071.36  3071.68
eigval :     3071.94  3073.96  3074.55  3078.88  3080.89  3081.22
eigval :     3082.78  3084.71  3085.12  3085.99  3086.54  3088.29
eigval :     3092.83  3093.75  3123.30  3134.40  3152.33  3156.66

   temp. (K)  partition function   enthalpy   heat capacity  entropy
                                   cal/mol     cal/K/mol   cal/K/mol   J/K/mol
 298.15  VIB  0.320E+23            26194.679    157.368    167.393
         ROT  0.534E+08              888.752      2.981     38.342
         INT  0.171E+31            27083.432    160.349    205.735
         TR   0.152E+29             1481.254      4.968     45.169
         TOT                       28564.6858   165.3167   250.9043  1049.7838

       T/K    H(0)-H(T)+PV         H(T)/Eh          T*S/Eh         G(T)/Eh
   ------------------------------------------------------------------------
    298.15    0.455207E-01    0.824819E+00    0.119213E+00    0.705606E+00
   ------------------------------------------------------------------------

         :::::::::::::::::::::::::::::::::::::::::::::::::::::
         ::                  THERMODYNAMIC                  ::
         :::::::::::::::::::::::::::::::::::::::::::::::::::::
         :: total free energy        -127.139226114653 Eh   ::
         ::.................................................::
         :: total energy             -127.844831973115 Eh   ::
         :: zero point energy           0.779297884430 Eh   ::
         :: G(RRHO) w/o ZPVE           -0.073692025969 Eh   ::
         :: G(RRHO) contrib.            0.705605858461 Eh   ::
         :::::::::::::::::::::::::::::::::::::::::::::::::::::

           -------------------------------------------------
          | TOTAL ENERGY             -127.844831973115 Eh   |
          | TOTAL ENTHALPY           -127.020013364389 Eh   |
          | TOTAL FREE ENERGY        -127.139226114653 Eh   |
          | GRADIENT NORM               0.000062236624 Eh/α |
          | HOMO-LUMO GAP               3.024664830039 eV   |
           -------------------------------------------------

 * finished run on 2025/07/19 at 12:12:14.338
