   * xtb version 6.7.1 (edcfbbe) compiled by 'albert@albert-system' on 2024-07-22

   ID    Z sym.   atoms
    1    7 N      1, 6, 9, 14
    2    6 C      2-5, 7, 8, 10-13, 15-24
    3    1 H      25-32

          program call               : xtb data2507/toluene/ANQDC/ANQDC_toluene_T1_crest.xyz --gfn 2 --uhf 2 --gbsa toluene --ohess vtight --parallel 40 --molden --ceasefiles --namespace data2507/toluene/ANQDC/ANQDC_toluene_T1_finalOpt
      * Solvation model:               GBSA
        Solvent                        toluene
        Solvent mass                       9.2140E+01 g/mol
          :  Hamiltonian                  GFN2-xTB          :
 * total energy  :   -58.5061008 Eh     change       -0.1049187E-08 Eh
 * total energy  :   -58.5061160 Eh     change       -0.1513415E-04 Eh
 * total energy  :   -58.5061178 Eh     change       -0.1807495E-05 Eh
 * total energy  :   -58.5061159 Eh     change        0.1883390E-05 Eh
 * total energy  :   -58.5061185 Eh     change       -0.2592647E-05 Eh
 * total energy  :   -58.5061180 Eh     change        0.5220563E-06 Eh
 * total energy  :   -58.5061187 Eh     change       -0.7831027E-06 Eh
 * total energy  :   -58.5061188 Eh     change       -0.1720163E-07 Eh
 * total energy  :   -58.5061189 Eh     change       -0.1482610E-06 Eh
 * total energy  :   -58.5061190 Eh     change       -0.5655925E-07 Eh
   *** GEOMETRY OPTIMIZATION CONVERGED AFTER 10 ITERATIONS ***

 final structure:
================
32
 xtb: 6.7.1 (edcfbbe)
N            6.03358507529412        1.99405176226952        0.00513242285672
C            5.04550388186663        1.40841863938438        0.00310293674112
C            3.82587597023658        0.70325429647439        0.00092214572386
C            2.61657075550601        1.40114991869402        0.00104737305275
C            1.39648094848068        0.73055060458794       -0.00024758300782
N            0.23010114444227        1.36551186386796       -0.00065230325498
C           -0.91156254754435        0.72138937744062       -0.00080273079575
C           -0.91157229755011       -0.72133849196549       -0.00035963790154
N            0.23004554986455       -1.36550342882822       -0.00077735700408
C            1.39647099518035       -0.73058485358639       -0.00102504440741
C            2.61651542405050       -1.40123469384898       -0.00191722963360
C            3.82586210622827       -0.70339088017230       -0.00106106804978
C            5.04546856171534       -1.40857995719688       -0.00208957090177
N            6.03355004395274       -1.99421544032828       -0.00327324847344
C           -2.28325503937184       -1.17117590878400        0.00052252661979
C           -2.91109900423703       -2.39604977178127        0.00172135066849
C           -4.31844187745246       -2.41587237071625        0.00269653838822
C           -5.08670761048973       -1.27456080198044        0.00226836440742
C           -4.47125892301012        0.00007009148576        0.00086180835668
C           -5.08668059985519        1.27471660639163        0.00007977145581
C           -4.31838261107202        2.41600587690124       -0.00104794352058
C           -2.91104136339192        2.39615011840463       -0.00137724650979
C           -2.28321649908231        1.17126137622682       -0.00075525352938
C           -3.07799242022084        0.00005199082279        0.00020469600762
H            2.61425013702034        2.47987086317709        0.00219179021725
H            2.61414651778632       -2.47995570083296       -0.00308354889340
H           -2.35340178692945       -3.31978315212785        0.00202796920185
H           -4.80885849797952       -3.37838035316267        0.00383480246337
H           -6.16405511054670       -1.34612122223768        0.00309498952038
H           -6.16402588778215        1.34630412871798        0.00030534997034
H           -4.80877526423446        3.37852677101544       -0.00169478380559
H           -2.35332207167448        3.31986996168743       -0.00216571966280

          :  Hamiltonian                  GFN2-xTB          :
         :: gradient norm              0.000069922300 Eh/a0 ::
         :: HOMO-LUMO gap              0.217309071215 eV    ::
         :: SCC energy               -59.636696194134 Eh    ::
         :: -> dispersion             -0.042489265659 Eh    ::
         :: -> Gsolv                  -0.034249636755 Eh    ::
         :: repulsion energy           1.130577228931 Eh    ::

    * Orbital Energies and Occupations

         #    Occupation            Energy/Eh            Energy/eV
      -------------------------------------------------------------
         1        2.0000           -0.7120985             -19.3772
       ...           ...                  ...                  ...
        43        2.0000           -0.4679615             -12.7339
        44        2.0000           -0.4645515             -12.6411
        45        2.0000           -0.4576123             -12.4523
        46        2.0000           -0.4434455             -12.0668
        47        2.0000           -0.4397268             -11.9656
        48        2.0000           -0.4383563             -11.9283
        49        2.0000           -0.4367149             -11.8836
        50        2.0000           -0.4343205             -11.8185
        51        2.0000           -0.4277915             -11.6408
        52        2.0000           -0.4220866             -11.4856
        53        2.0000           -0.4081390             -11.1060
        54        1.0000           -0.3866210             -10.5205
        55        0.9853           -0.3289640              -8.9516 (HOMO)
        56        0.0147           -0.3209780              -8.7343 (LUMO)
        57                         -0.2915588              -7.9337
        58                         -0.2546919              -6.9305
        59                         -0.2500381              -6.8039
        60                         -0.2263056              -6.1581
        61                         -0.2209379              -6.0120
        62                         -0.2207953              -6.0081
        63                         -0.1984985              -5.4014
        64                         -0.1802436              -4.9047
        65                         -0.1754514              -4.7743
        66                         -0.1206718              -3.2836
       ...                                ...                  ...
       104                          1.1673179              31.7643
      -------------------------------------------------------------
                  HL-Gap            0.0079860 Eh            0.2173 eV

     #   Z          covCN         q      C6AA      α(0)
     1   7 N        0.911    -0.260    26.737     7.479
     2   6 C        1.912     0.118    28.207     8.577
     3   6 C        2.973     0.017    27.620     8.621
     4   6 C        2.924    -0.052    29.281     8.874
     5   6 C        2.944     0.092    25.947     8.354
     6   7 N        1.843    -0.179    25.685     7.511
     7   6 C        3.029     0.078    26.220     8.399
     8   6 C        3.029     0.078    26.220     8.399
     9   7 N        1.843    -0.179    25.685     7.511
    10   6 C        2.944     0.092    25.947     8.354
    11   6 C        2.924    -0.052    29.281     8.874
    12   6 C        2.973     0.017    27.620     8.621
    13   6 C        1.912     0.118    28.208     8.577
    14   7 N        0.911    -0.260    26.738     7.479
    15   6 C        3.036    -0.001    28.023     8.683
    16   6 C        2.912    -0.014    28.372     8.734
    17   6 C        2.919    -0.024    28.600     8.770
    18   6 C        2.918    -0.023    28.577     8.766
    19   6 C        2.976     0.023    27.478     8.599
    20   6 C        2.918    -0.023    28.577     8.766
    21   6 C        2.919    -0.024    28.600     8.770
    22   6 C        2.912    -0.014    28.372     8.734
    23   6 C        3.036    -0.001    28.023     8.683
    24   6 C        3.147    -0.012    28.035     8.662
    25   1 H        0.926     0.065     2.139     2.287
    26   1 H        0.926     0.065     2.139     2.287
    27   1 H        0.926     0.057     2.238     2.339
    28   1 H        0.926     0.059     2.215     2.327
    29   1 H        0.926     0.061     2.193     2.316
    30   1 H        0.926     0.061     2.193     2.316
    31   1 H        0.926     0.059     2.215     2.327
    32   1 H        0.926     0.057     2.238     2.339

molecular dipole:
                 x           y           z       tot (Debye)
 q only:       -5.348       0.000      -0.000
   full:       -5.929       0.000      -0.000      15.069

 projected vibrational frequencies (cm⁻¹)
eigval :       -0.00    -0.00    -0.00     0.00     0.00     0.00
eigval :       35.45    37.67    90.72    98.64    98.98   109.64
eigval :      151.89   161.75   190.54   190.87   244.84   258.25
eigval :      287.09   310.52   374.24   382.47   395.72   413.34
eigval :      420.11   422.66   455.07   477.63   478.04   523.20
eigval :      529.90   548.96   561.59   564.55   587.56   587.80
eigval :      628.95   634.66   641.40   664.97   671.90   703.51
eigval :      721.14   726.34   770.98   781.80   786.89   801.15
eigval :      808.26   837.32   865.11   886.10   891.88   919.81
eigval :      925.81   966.91   997.96  1054.35  1071.24  1089.92
eigval :     1111.93  1144.62  1171.73  1176.56  1187.49  1206.43
eigval :     1221.49  1223.99  1232.97  1251.73  1264.01  1324.16
eigval :     1358.96  1366.13  1382.91  1399.44  1400.77  1419.35
eigval :     1428.62  1471.99  1490.75  1508.66  1513.59  1565.82
eigval :     1589.04  1607.56  2336.20  2349.04  3080.81  3081.48
eigval :     3092.06  3093.53  3099.49  3100.75  3102.66  3102.72

   temp. (K)  partition function   enthalpy   heat capacity  entropy
                                   cal/mol     cal/K/mol   cal/K/mol   J/K/mol
 298.15  VIB  0.662E+06             9396.784     63.795     55.533
         ROT  0.453E+07              888.752      2.981     33.436
         INT  0.299E+13            10285.537     66.776     88.969
         TR   0.514E+28             1481.254      4.968     43.016
         TOT                       11766.7906    71.7438   131.9844   552.2229

       T/K    H(0)-H(T)+PV         H(T)/Eh          T*S/Eh         G(T)/Eh
   ------------------------------------------------------------------------
    298.15    0.187516E-01    0.233577E+00    0.627101E-01    0.170867E+00
   ------------------------------------------------------------------------

         :::::::::::::::::::::::::::::::::::::::::::::::::::::
         ::                  THERMODYNAMIC                  ::
         :::::::::::::::::::::::::::::::::::::::::::::::::::::
         :: total free energy         -58.335251925601 Eh   ::
         ::.................................................::
         :: total energy              -58.506118965197 Eh   ::
         :: zero point energy           0.214825529522 Eh   ::
         :: G(RRHO) w/o ZPVE           -0.043958489925 Eh   ::
         :: G(RRHO) contrib.            0.170867039597 Eh   ::
         :::::::::::::::::::::::::::::::::::::::::::::::::::::

           -------------------------------------------------
          | TOTAL ENERGY              -58.506118965197 Eh   |
          | TOTAL ENTHALPY            -58.272541861284 Eh   |
          | TOTAL FREE ENERGY         -58.335251925601 Eh   |
          | GRADIENT NORM               0.000070526779 Eh/α |
          | HOMO-LUMO GAP               0.217310930845 eV   |
           -------------------------------------------------

 * finished run on 2025/09/13 at 13:06:13.199
