   * xtb version 6.7.1 (edcfbbe) compiled by 'albert@albert-system' on 2024-07-22

   ID    Z sym.   atoms
    1    7 N      1, 6, 9, 14
    2    6 C      2-5, 7, 8, 10-13, 15-24
    3    1 H      25-32

          program call               : xtb data2507/toluene/ANQDC/ANQDC.xyz --gfn 2 --gbsa toluene --ohess vtight --parallel 40 --molden --ceasefiles --namespace data2507/toluene/ANQDC/ANQDC_toluene_S0_preOpt
      * Solvation model:               GBSA
        Solvent                        toluene
        Solvent mass                       9.2140E+01 g/mol
          :  Hamiltonian                  GFN2-xTB          :
 * total energy  :   -58.5498698 Eh     change       -0.7699867E-09 Eh
 * total energy  :   -58.5590082 Eh     change       -0.9138367E-02 Eh
 * total energy  :   -58.5608625 Eh     change       -0.1854275E-02 Eh
 * total energy  :   -58.5610383 Eh     change       -0.1758020E-03 Eh
 * total energy  :   -58.5611186 Eh     change       -0.8035596E-04 Eh
 * total energy  :   -58.5610916 Eh     change        0.2704988E-04 Eh
 * total energy  :   -58.5611269 Eh     change       -0.3536669E-04 Eh
 * total energy  :   -58.5611276 Eh     change       -0.6627773E-06 Eh
 * total energy  :   -58.5611269 Eh     change        0.7306273E-06 Eh
 * total energy  :   -58.5611358 Eh     change       -0.8950550E-05 Eh
 * total energy  :   -58.5611329 Eh     change        0.2874797E-05 Eh
 * total energy  :   -58.5611371 Eh     change       -0.4139378E-05 Eh
 * total energy  :   -58.5611374 Eh     change       -0.2776919E-06 Eh
 * total energy  :   -58.5611375 Eh     change       -0.1399953E-06 Eh
 * total energy  :   -58.5611375 Eh     change       -0.6859857E-08 Eh
   *** GEOMETRY OPTIMIZATION CONVERGED AFTER 15 ITERATIONS ***

 final structure:
================
32
 xtb: 6.7.1 (edcfbbe)
N            6.68462162702605        1.98304395742300       -0.00037615498379
C            5.69216879236262        1.40868094157028       -0.00016483734010
C            4.46162724353026        0.71194797085820       -0.00000587102106
C            3.27099965961624        1.40609108511520        0.00006547911692
C            2.04898522374298        0.71382669828210        0.00010254201782
N            0.89498226434788        1.43017988468847        0.00014461145410
C           -0.20306568614352        0.72976225223766        0.00008733612825
C           -0.20306633120660       -0.72976218410615        0.00000945877156
N            0.89498113541845       -1.43018054209972       -0.00001817679952
C            2.04898462984776       -0.71382822829737        0.00003410808696
C            3.27099805780222       -1.40609495004465        0.00003364252002
C            4.46162679108410       -0.71195394227120        0.00003777490259
C            5.69217161712772       -1.40868400568140        0.00001081077149
N            6.68463661883876       -1.98304344449689        0.00003231502638
C           -1.58267149984036       -1.17784882015915       -0.00001181997025
C           -2.21561791724318       -2.39843459877315       -0.00002809280168
C           -3.62219983607790       -2.41765376898096       -0.00007197085891
C           -4.38373529855631       -1.27148249572409       -0.00009012310605
C           -3.76556810142142        0.00000143888465       -0.00002007729438
C           -4.38373403330410        1.27148596376859        0.00003152857268
C           -3.62219753408421        2.41765655060501        0.00006135716736
C           -2.21561567992355        2.39843611152089        0.00007458995529
C           -1.58267053629993        1.17784977439275        0.00007093708232
C           -2.36756309184418        0.00000081027183        0.00000959142933
H            3.25578420266400        2.48545658424324        0.00007285754010
H            3.25577865477241       -2.48546031338334        0.00002290878093
H           -1.65538286589362       -3.32055988475199       -0.00002734816868
H           -4.11822628629406       -3.37715321871791       -0.00011191412590
H           -5.46171589126499       -1.33720814580175       -0.00015149642029
H           -5.46171454958192        1.33721248995916        0.00005675677119
H           -4.11822303848820        3.37715645378288        0.00003979040545
H           -1.65537934071340        3.32056057568581        0.00008048638989

          :  Hamiltonian                  GFN2-xTB          :
         :: gradient norm              0.000041870667 Eh/a0 ::
         :: HOMO-LUMO gap              1.386018756667 eV    ::
         :: SCC energy               -59.685879011096 Eh    ::
         :: -> dispersion             -0.042671104148 Eh    ::
         :: -> Gsolv                  -0.033040461321 Eh    ::
         :: repulsion energy           1.124741503633 Eh    ::

    * Orbital Energies and Occupations

         #    Occupation            Energy/Eh            Energy/eV
      -------------------------------------------------------------
         1        2.0000           -0.7038032             -19.1515
       ...           ...                  ...                  ...
        42        2.0000           -0.4769739             -12.9791
        43        2.0000           -0.4659628             -12.6795
        44        2.0000           -0.4611933             -12.5497
        45        2.0000           -0.4482443             -12.1973
        46        2.0000           -0.4454354             -12.1209
        47        2.0000           -0.4428328             -12.0501
        48        2.0000           -0.4419192             -12.0252
        49        2.0000           -0.4404291             -11.9847
        50        2.0000           -0.4372836             -11.8991
        51        2.0000           -0.4278604             -11.6427
        52        2.0000           -0.4228910             -11.5074
        53        2.0000           -0.4078380             -11.0978
        54        2.0000           -0.3770556             -10.2602 (HOMO)
        55                         -0.3261203              -8.8742 (LUMO)
        56                         -0.3202596              -8.7147
        57                         -0.2945087              -8.0140
        58                         -0.2625894              -7.1454
        59                         -0.2514115              -6.8413
        60                         -0.2338734              -6.3640
        61                         -0.2288839              -6.2282
        62                         -0.2205352              -6.0011
        63                         -0.1984622              -5.4004
        64                         -0.1881446              -5.1197
        65                         -0.1758029              -4.7838
       ...                                ...                  ...
       104                          1.1611011              31.5952
      -------------------------------------------------------------
                  HL-Gap            0.0509353 Eh            1.3860 eV

     #   Z          covCN         q      C6AA      α(0)
     1   7 N        0.911    -0.238    26.232     7.407
     2   6 C        1.911     0.121    28.133     8.566
     3   6 C        2.974     0.023    27.488     8.600
     4   6 C        2.927    -0.028    28.695     8.785
     5   6 C        2.985     0.083    26.142     8.387
     6   7 N        1.838    -0.245    27.235     7.734
     7   6 C        3.056     0.093    25.890     8.344
     8   6 C        3.056     0.093    25.890     8.344
     9   7 N        1.838    -0.245    27.235     7.734
    10   6 C        2.985     0.083    26.142     8.387
    11   6 C        2.927    -0.028    28.695     8.785
    12   6 C        2.974     0.023    27.488     8.600
    13   6 C        1.911     0.121    28.133     8.566
    14   7 N        0.911    -0.238    26.232     7.407
    15   6 C        3.025    -0.009    28.223     8.714
    16   6 C        2.912    -0.013    28.344     8.730
    17   6 C        2.918    -0.024    28.600     8.770
    18   6 C        2.918    -0.022    28.548     8.762
    19   6 C        2.975     0.022    27.515     8.604
    20   6 C        2.918    -0.022    28.548     8.762
    21   6 C        2.918    -0.024    28.600     8.770
    22   6 C        2.912    -0.013    28.344     8.730
    23   6 C        3.025    -0.009    28.223     8.714
    24   6 C        3.142    -0.003    27.861     8.637
    25   1 H        0.926     0.073     2.052     2.240
    26   1 H        0.926     0.073     2.052     2.240
    27   1 H        0.926     0.059     2.210     2.325
    28   1 H        0.926     0.058     2.224     2.332
    29   1 H        0.926     0.060     2.193     2.316
    30   1 H        0.926     0.060     2.193     2.316
    31   1 H        0.926     0.058     2.224     2.332
    32   1 H        0.926     0.059     2.210     2.325

molecular dipole:
                 x           y           z       tot (Debye)
 q only:       -4.543       0.000       0.000
   full:       -5.191       0.000       0.000      13.194

 projected vibrational frequencies (cm⁻¹)
eigval :       -0.00    -0.00    -0.00     0.00     0.00     0.00
eigval :       33.98    35.65    92.12    98.67    99.27   102.93
eigval :      154.39   166.63   188.21   192.44   256.13   264.77
eigval :      313.06   315.08   372.23   376.67   384.83   418.70
eigval :      421.03   441.15   454.60   477.53   478.22   524.49
eigval :      536.44   558.70   562.09   580.73   591.26   602.95
eigval :      642.25   657.51   667.19   696.01   732.52   733.17
eigval :      737.90   753.53   787.56   787.72   815.21   837.18
eigval :      852.79   872.51   895.24   900.56   906.32   925.04
eigval :      931.01   970.51  1056.64  1078.89  1107.82  1111.18
eigval :     1136.43  1169.77  1171.69  1184.66  1189.63  1227.84
eigval :     1231.27  1251.88  1260.58  1288.41  1327.84  1359.45
eigval :     1367.51  1395.43  1404.30  1411.09  1432.12  1445.97
eigval :     1464.02  1479.11  1531.29  1562.83  1577.71  1595.26
eigval :     1603.96  1608.29  2366.28  2367.13  3081.15  3082.11
eigval :     3091.52  3092.98  3100.69  3100.81  3101.70  3102.63

   temp. (K)  partition function   enthalpy   heat capacity  entropy
                                   cal/mol     cal/K/mol   cal/K/mol   J/K/mol
 298.15  VIB  0.615E+06             9216.708     62.302     54.600
         ROT  0.449E+07              888.752      2.981     33.420
         INT  0.276E+13            10105.461     65.283     88.020
         TR   0.514E+28             1481.254      4.968     43.016
         TOT                       11586.7147    70.2515   131.0358   548.2538

       T/K    H(0)-H(T)+PV         H(T)/Eh          T*S/Eh         G(T)/Eh
   ------------------------------------------------------------------------
    298.15    0.184646E-01    0.236523E+00    0.622593E-01    0.174264E+00
   ------------------------------------------------------------------------

         :::::::::::::::::::::::::::::::::::::::::::::::::::::
         ::                  THERMODYNAMIC                  ::
         :::::::::::::::::::::::::::::::::::::::::::::::::::::
         :: total free energy         -58.386873975651 Eh   ::
         ::.................................................::
         :: total energy              -58.561137507460 Eh   ::
         :: zero point energy           0.218058270363 Eh   ::
         :: G(RRHO) w/o ZPVE           -0.043794738554 Eh   ::
         :: G(RRHO) contrib.            0.174263531810 Eh   ::
         :::::::::::::::::::::::::::::::::::::::::::::::::::::

           -------------------------------------------------
          | TOTAL ENERGY              -58.561137507460 Eh   |
          | TOTAL ENTHALPY            -58.324614631829 Eh   |
          | TOTAL FREE ENERGY         -58.386873975651 Eh   |
          | GRADIENT NORM               0.000041967541 Eh/α |
          | HOMO-LUMO GAP               1.386019245673 eV   |
           -------------------------------------------------

 * finished run on 2025/09/13 at 13:04:20.213
