   * xtb version 6.7.1 (edcfbbe) compiled by 'albert@albert-system' on 2024-07-22

   ID    Z sym.   atoms
    1    7 N      1, 6, 9, 14
    2    6 C      2-5, 7, 8, 10-13, 15-24
    3    1 H      25-32

          program call               : xtb data2507/toluene/ANQDC/ANQDC_toluene_S0_finalOpt.xtbopt.xyz --gfn 2 --uhf 2 --gbsa toluene --ohess vtight --parallel 40 --molden --ceasefiles --namespace data2507/toluene/ANQDC/ANQDC_toluene_T1_preOpt
      * Solvation model:               GBSA
        Solvent                        toluene
        Solvent mass                       9.2140E+01 g/mol
          :  Hamiltonian                  GFN2-xTB          :
 * total energy  :   -58.4990959 Eh     change       -0.8044196E-09 Eh
 * total energy  :   -58.5040580 Eh     change       -0.4962106E-02 Eh
 * total energy  :   -58.5059178 Eh     change       -0.1859783E-02 Eh
 * total energy  :   -58.5060619 Eh     change       -0.1440958E-03 Eh
 * total energy  :   -58.5058949 Eh     change        0.1669810E-03 Eh
 * total energy  :   -58.5061145 Eh     change       -0.2196085E-03 Eh
 * total energy  :   -58.5060994 Eh     change        0.1510458E-04 Eh
 * total energy  :   -58.5061188 Eh     change       -0.1943367E-04 Eh
 * total energy  :   -58.5061190 Eh     change       -0.1760102E-06 Eh
 * total energy  :   -58.5061189 Eh     change        0.4952965E-07 Eh
 * total energy  :   -58.5061190 Eh     change       -0.9625334E-07 Eh
   *** GEOMETRY OPTIMIZATION CONVERGED AFTER 11 ITERATIONS ***

 final structure:
================
32
 xtb: 6.7.1 (edcfbbe)
N            6.03592919467077        1.99340748344947        0.00172978704816
C            5.04750666291190        1.40833314469994        0.00093447266740
C            3.82777399301294        0.70337366693998        0.00003631099542
C            2.61841691707946        1.40122265205546        0.00116046758344
C            1.39838989480464        0.73057569261459        0.00058776623737
N            0.23193968216601        1.36548371689634        0.00141026857458
C           -0.90970570908617        0.72136301134900        0.00120402764090
C           -0.90967908281082       -0.72141595363692        0.00021154918779
N            0.23198344613835       -1.36550225351737       -0.00089390260208
C            1.39841891629684       -0.73055277432426       -0.00091311234995
C            2.61846315032685       -1.40115648513280       -0.00229246738635
C            3.82780187968021       -0.70326602982089       -0.00191698892967
C            5.04756301738533       -1.40816957133972       -0.00354114277840
N            6.03606576493643       -1.99317216666517       -0.00496411434228
C           -2.28132133020552       -1.17125374902931        0.00068219362361
C           -2.90916880087241       -2.39615512163742        0.00047190119332
C           -4.31649303764458       -2.41603303065597        0.00132587058983
C           -5.08479059416511       -1.27471392654557        0.00225780169880
C           -4.46935143057355       -0.00008242023813        0.00245464061474
C           -5.08482999348381        1.27453040454154        0.00329818529888
C           -4.31656690128469        2.41587277784921        0.00341766430408
C           -2.90924275457173        2.39603838547358        0.00281175084231
C           -2.28135646809989        1.17115690440735        0.00199079322660
C           -3.07609876254120       -0.00006100573336        0.00173078086138
H            2.61608229263698        2.47994596261533        0.00248645375345
H            2.61617056022606       -2.47988009497423       -0.00360122792579
H           -2.35142414184657       -3.31987056009261       -0.00027350398508
H           -4.80690077243124       -3.37854019868203        0.00122834996928
H           -6.16213131646924       -1.34626467765759        0.00286204557331
H           -6.16217286933052        1.34604750968987        0.00382812842941
H           -4.80700348535498        3.37836519468574        0.00401100072276
H           -2.35152421853526        3.31976990692036        0.00297965298692

          :  Hamiltonian                  GFN2-xTB          :
         :: gradient norm              0.000157215018 Eh/a0 ::
         :: HOMO-LUMO gap              0.217173863431 eV    ::
         :: SCC energy               -59.636659632659 Eh    ::
         :: -> dispersion             -0.042489609219 Eh    ::
         :: -> Gsolv                  -0.034251194843 Eh    ::
         :: repulsion energy           1.130540585096 Eh    ::

    * Orbital Energies and Occupations

         #    Occupation            Energy/Eh            Energy/eV
      -------------------------------------------------------------
         1        2.0000           -0.7120941             -19.3771
       ...           ...                  ...                  ...
        43        2.0000           -0.4679665             -12.7340
        44        2.0000           -0.4645470             -12.6410
        45        2.0000           -0.4576097             -12.4522
        46        2.0000           -0.4434488             -12.0669
        47        2.0000           -0.4397288             -11.9656
        48        2.0000           -0.4383544             -11.9282
        49        2.0000           -0.4367130             -11.8836
        50        2.0000           -0.4343226             -11.8185
        51        2.0000           -0.4277927             -11.6408
        52        2.0000           -0.4220876             -11.4856
        53        2.0000           -0.4081364             -11.1060
        54        1.0000           -0.3866170             -10.5204
        55        0.9852           -0.3289642              -8.9516 (HOMO)
        56        0.0148           -0.3209832              -8.7344 (LUMO)
        57                         -0.2915655              -7.9339
        58                         -0.2546944              -6.9306
        59                         -0.2500361              -6.8038
        60                         -0.2263198              -6.1585
        61                         -0.2209402              -6.0121
        62                         -0.2207956              -6.0082
        63                         -0.1984991              -5.4014
        64                         -0.1802476              -4.9048
        65                         -0.1754549              -4.7744
        66                         -0.1206750              -3.2837
       ...                                ...                  ...
       104                          1.1672261              31.7618
      -------------------------------------------------------------
                  HL-Gap            0.0079810 Eh            0.2172 eV

     #   Z          covCN         q      C6AA      α(0)
     1   7 N        0.911    -0.260    26.737     7.479
     2   6 C        1.912     0.118    28.208     8.577
     3   6 C        2.973     0.017    27.620     8.621
     4   6 C        2.924    -0.052    29.281     8.874
     5   6 C        2.944     0.092    25.947     8.354
     6   7 N        1.843    -0.179    25.685     7.511
     7   6 C        3.029     0.078    26.220     8.399
     8   6 C        3.029     0.078    26.220     8.399
     9   7 N        1.843    -0.179    25.685     7.511
    10   6 C        2.944     0.092    25.947     8.354
    11   6 C        2.924    -0.052    29.281     8.874
    12   6 C        2.973     0.017    27.620     8.621
    13   6 C        1.912     0.118    28.208     8.577
    14   7 N        0.911    -0.260    26.738     7.479
    15   6 C        3.036    -0.001    28.023     8.683
    16   6 C        2.912    -0.014    28.372     8.734
    17   6 C        2.919    -0.024    28.600     8.770
    18   6 C        2.918    -0.023    28.577     8.766
    19   6 C        2.976     0.023    27.478     8.599
    20   6 C        2.918    -0.023    28.577     8.766
    21   6 C        2.919    -0.024    28.600     8.770
    22   6 C        2.912    -0.014    28.372     8.734
    23   6 C        3.036    -0.001    28.023     8.683
    24   6 C        3.147    -0.012    28.035     8.662
    25   1 H        0.926     0.065     2.139     2.287
    26   1 H        0.926     0.065     2.139     2.287
    27   1 H        0.926     0.057     2.238     2.339
    28   1 H        0.926     0.059     2.215     2.327
    29   1 H        0.926     0.061     2.193     2.316
    30   1 H        0.926     0.061     2.193     2.316
    31   1 H        0.926     0.059     2.215     2.327
    32   1 H        0.926     0.057     2.238     2.339

molecular dipole:
                 x           y           z       tot (Debye)
 q only:       -5.348      -0.000       0.002
   full:       -5.930      -0.000       0.002      15.071

 projected vibrational frequencies (cm⁻¹)
eigval :       -0.00    -0.00     0.00     0.00     0.00     0.00
eigval :       35.64    37.91    90.80    98.83    99.10   109.72
eigval :      151.94   161.82   190.59   190.96   244.83   258.24
eigval :      287.18   310.55   374.21   382.43   395.78   413.34
eigval :      420.12   422.72   455.04   477.63   478.13   523.20
eigval :      529.96   548.98   561.60   564.54   587.55   587.78
eigval :      628.95   634.65   641.42   664.94   671.90   703.50
eigval :      721.13   726.37   770.98   781.81   786.89   801.15
eigval :      808.27   837.32   865.09   886.11   891.90   919.80
eigval :      925.81   966.92   997.91  1054.42  1071.19  1089.83
eigval :     1111.82  1144.59  1171.73  1176.53  1187.48  1206.42
eigval :     1221.48  1223.91  1233.04  1251.74  1264.00  1324.18
eigval :     1358.91  1366.10  1382.89  1399.40  1400.76  1419.30
eigval :     1428.62  1472.00  1490.76  1508.63  1513.60  1565.83
eigval :     1588.99  1607.53  2336.02  2348.86  3080.87  3081.54
eigval :     3092.10  3093.56  3099.43  3100.70  3102.63  3102.70

   temp. (K)  partition function   enthalpy   heat capacity  entropy
                                   cal/mol     cal/K/mol   cal/K/mol   J/K/mol
 298.15  VIB  0.651E+06             9395.249     63.803     55.520
         ROT  0.452E+07              888.752      2.981     33.436
         INT  0.295E+13            10284.001     66.784     88.955
         TR   0.514E+28             1481.254      4.968     43.016
         TOT                       11765.2552    71.7520   131.9712   552.1674

       T/K    H(0)-H(T)+PV         H(T)/Eh          T*S/Eh         G(T)/Eh
   ------------------------------------------------------------------------
    298.15    0.187491E-01    0.233576E+00    0.627038E-01    0.170872E+00
   ------------------------------------------------------------------------

         :::::::::::::::::::::::::::::::::::::::::::::::::::::
         ::                  THERMODYNAMIC                  ::
         :::::::::::::::::::::::::::::::::::::::::::::::::::::
         :: total free energy         -58.335247000627 Eh   ::
         ::.................................................::
         :: total energy              -58.506119047570 Eh   ::
         :: zero point energy           0.214826685750 Eh   ::
         :: G(RRHO) w/o ZPVE           -0.043954638807 Eh   ::
         :: G(RRHO) contrib.            0.170872046943 Eh   ::
         :::::::::::::::::::::::::::::::::::::::::::::::::::::

           -------------------------------------------------
          | TOTAL ENERGY              -58.506119047570 Eh   |
          | TOTAL ENTHALPY            -58.272543234238 Eh   |
          | TOTAL FREE ENERGY         -58.335247000627 Eh   |
          | GRADIENT NORM               0.000157513560 Eh/α |
          | HOMO-LUMO GAP               0.217174909904 eV   |
           -------------------------------------------------

 * finished run on 2025/09/13 at 13:05:15.535
