   * xtb version 6.7.1 (edcfbbe) compiled by 'albert@albert-system' on 2024-07-22

   ID    Z sym.   atoms
    1    7 N      1, 6, 9, 14
    2    6 C      2-5, 7, 8, 10-13, 15-24
    3    1 H      25-32

          program call               : xtb data2507/toluene/ANQDC/ANQDC_toluene_S0_crest.xyz --gfn 2 --gbsa toluene --ohess vtight --parallel 40 --molden --ceasefiles --namespace data2507/toluene/ANQDC/ANQDC_toluene_S0_finalOpt
      * Solvation model:               GBSA
        Solvent                        toluene
        Solvent mass                       9.2140E+01 g/mol
          :  Hamiltonian                  GFN2-xTB          :
 * total energy  :   -58.5611143 Eh     change       -0.1692626E-08 Eh
 * total energy  :   -58.5611315 Eh     change       -0.1727213E-04 Eh
 * total energy  :   -58.5610830 Eh     change        0.4855382E-04 Eh
 * total energy  :   -58.5611294 Eh     change       -0.4641741E-04 Eh
 * total energy  :   -58.5611319 Eh     change       -0.2516076E-05 Eh
 * total energy  :   -58.5611267 Eh     change        0.5232323E-05 Eh
 * total energy  :   -58.5611350 Eh     change       -0.8295267E-05 Eh
 * total energy  :   -58.5611359 Eh     change       -0.9538929E-06 Eh
 * total energy  :   -58.5611362 Eh     change       -0.2855316E-06 Eh
 * total energy  :   -58.5611362 Eh     change        0.1879647E-07 Eh
 * total energy  :   -58.5611365 Eh     change       -0.2687983E-06 Eh
 * total energy  :   -58.5611369 Eh     change       -0.4251401E-06 Eh
 * total energy  :   -58.5611373 Eh     change       -0.3747812E-06 Eh
 * total energy  :   -58.5611373 Eh     change       -0.3222205E-08 Eh
 * total energy  :   -58.5611374 Eh     change       -0.1429112E-06 Eh
 * total energy  :   -58.5611374 Eh     change       -0.4088285E-07 Eh
   *** GEOMETRY OPTIMIZATION CONVERGED AFTER 16 ITERATIONS ***

 final structure:
================
32
 xtb: 6.7.1 (edcfbbe)
N            6.00885321097308        1.98233575631509        0.00207716637427
C            5.01605286708463        1.40860046926710        0.00127781287926
C            3.78543316073046        0.71201140123988        0.00029612388775
C            2.59478150735378        1.40611082084350        0.00166377011868
C            1.37278707522343        0.71380226910485        0.00076746026094
N            0.21875394233330        1.43012036025608        0.00169379750874
C           -0.87928831581719        0.72969389223431        0.00117374382604
C           -0.87926519875272       -0.72985301581192        0.00014214837703
N            0.21881679720962       -1.43022451967042       -0.00124214977709
C            1.37282120535920       -0.71384983924853       -0.00117022549131
C            2.59486913835797       -1.40607192950902       -0.00283646691192
C            3.78547304351948       -0.71188992174784       -0.00216450652371
C            5.01619598235415       -1.40831819997073       -0.00380989547624
N            6.00919836339443       -1.98174871976627       -0.00498800534039
C           -2.25887645065438       -1.17794822255380        0.00081108945645
C           -2.89184935094998       -2.39852883036023        0.00086029779775
C           -4.29843589194267       -2.41774361733131        0.00182354550107
C           -5.05996795753153       -1.27156789144477        0.00257478272564
C           -4.44178307127503       -0.00009305405033        0.00248117468987
C           -5.05996524228574        1.27138420655539        0.00305827550946
C           -4.29843984518416        2.41756598282494        0.00290751889326
C           -2.89185618477147        2.39834813725321        0.00233255379009
C           -2.25889776648074        1.17776301184236        0.00179337913400
C           -3.04377756301959       -0.00009664883581        0.00171859428783
H            2.57952778189053        2.48547665861449        0.00341851760900
H            2.57969799005734       -2.48543961605716       -0.00457079046251
H           -2.33164287832526       -3.32067197087249        0.00021410394675
H           -4.79447121608810       -3.37724023152252        0.00194018330246
H           -6.13795112141986       -1.33727696002168        0.00325305478525
H           -6.13794825491718        1.33709322951090        0.00359138012472
H           -4.79447431734401        3.37706208047988        0.00326312107338
H           -2.33162782578175        3.32047796803284        0.00228831792350

          :  Hamiltonian                  GFN2-xTB          :
         :: gradient norm              0.000089794241 Eh/a0 ::
         :: HOMO-LUMO gap              1.385970830166 eV    ::
         :: SCC energy               -59.685866229008 Eh    ::
         :: -> dispersion             -0.042671382591 Eh    ::
         :: -> Gsolv                  -0.033041323192 Eh    ::
         :: repulsion energy           1.124728776977 Eh    ::

    * Orbital Energies and Occupations

         #    Occupation            Energy/Eh            Energy/eV
      -------------------------------------------------------------
         1        2.0000           -0.7037992             -19.1514
       ...           ...                  ...                  ...
        42        2.0000           -0.4769727             -12.9791
        43        2.0000           -0.4659640             -12.6795
        44        2.0000           -0.4611926             -12.5497
        45        2.0000           -0.4482460             -12.1974
        46        2.0000           -0.4454316             -12.1208
        47        2.0000           -0.4428292             -12.0500
        48        2.0000           -0.4419185             -12.0252
        49        2.0000           -0.4404301             -11.9847
        50        2.0000           -0.4372828             -11.8991
        51        2.0000           -0.4278596             -11.6427
        52        2.0000           -0.4228902             -11.5074
        53        2.0000           -0.4078375             -11.0978
        54        2.0000           -0.3770524             -10.2601 (HOMO)
        55                         -0.3261189              -8.8741 (LUMO)
        56                         -0.3202588              -8.7147
        57                         -0.2945069              -8.0139
        58                         -0.2625904              -7.1454
        59                         -0.2514119              -6.8413
        60                         -0.2338715              -6.3640
        61                         -0.2288765              -6.2280
        62                         -0.2205365              -6.0011
        63                         -0.1984628              -5.4004
        64                         -0.1881395              -5.1195
        65                         -0.1758042              -4.7839
       ...                                ...                  ...
       104                          1.1611305              31.5960
      -------------------------------------------------------------
                  HL-Gap            0.0509335 Eh            1.3860 eV

     #   Z          covCN         q      C6AA      α(0)
     1   7 N        0.911    -0.238    26.232     7.407
     2   6 C        1.911     0.121    28.133     8.566
     3   6 C        2.974     0.023    27.488     8.600
     4   6 C        2.927    -0.028    28.695     8.785
     5   6 C        2.985     0.083    26.142     8.387
     6   7 N        1.838    -0.245    27.235     7.734
     7   6 C        3.056     0.093    25.890     8.344
     8   6 C        3.056     0.093    25.890     8.344
     9   7 N        1.838    -0.245    27.235     7.734
    10   6 C        2.985     0.083    26.143     8.387
    11   6 C        2.927    -0.028    28.695     8.785
    12   6 C        2.974     0.023    27.488     8.600
    13   6 C        1.911     0.121    28.133     8.566
    14   7 N        0.911    -0.238    26.232     7.407
    15   6 C        3.025    -0.009    28.223     8.714
    16   6 C        2.912    -0.013    28.344     8.730
    17   6 C        2.918    -0.024    28.600     8.770
    18   6 C        2.918    -0.022    28.548     8.762
    19   6 C        2.975     0.022    27.515     8.604
    20   6 C        2.918    -0.022    28.548     8.762
    21   6 C        2.918    -0.024    28.600     8.770
    22   6 C        2.912    -0.013    28.344     8.730
    23   6 C        3.025    -0.009    28.223     8.714
    24   6 C        3.142    -0.003    27.861     8.637
    25   1 H        0.926     0.073     2.052     2.240
    26   1 H        0.926     0.073     2.052     2.240
    27   1 H        0.926     0.059     2.210     2.325
    28   1 H        0.926     0.058     2.224     2.332
    29   1 H        0.926     0.060     2.193     2.316
    30   1 H        0.926     0.060     2.193     2.316
    31   1 H        0.926     0.058     2.224     2.332
    32   1 H        0.926     0.059     2.210     2.325

molecular dipole:
                 x           y           z       tot (Debye)
 q only:       -4.544      -0.000       0.002
   full:       -5.192      -0.000       0.002      13.196

 projected vibrational frequencies (cm⁻¹)
eigval :       -0.00    -0.00     0.00     0.00     0.00     0.00
eigval :       33.92    35.76    92.12    98.66    99.18   102.99
eigval :      154.46   166.65   188.17   192.39   256.12   264.75
eigval :      313.07   315.09   372.23   376.61   384.80   418.73
eigval :      421.04   441.18   454.58   477.56   478.21   524.46
eigval :      536.44   558.70   562.07   580.70   591.24   602.94
eigval :      642.27   657.52   667.18   695.99   732.51   733.17
eigval :      737.93   753.54   787.51   787.72   815.18   837.19
eigval :      852.94   872.67   895.26   900.60   906.32   925.04
eigval :      931.02   970.51  1056.64  1078.89  1107.81  1111.17
eigval :     1136.41  1169.85  1171.70  1184.66  1189.73  1227.84
eigval :     1231.27  1251.85  1260.56  1288.36  1327.84  1359.44
eigval :     1367.50  1395.43  1404.29  1411.10  1432.10  1445.96
eigval :     1464.01  1479.10  1531.29  1562.81  1577.69  1595.25
eigval :     1603.94  1608.26  2366.30  2367.18  3081.14  3082.10
eigval :     3091.51  3092.96  3100.66  3100.79  3101.70  3102.63

   temp. (K)  partition function   enthalpy   heat capacity  entropy
                                   cal/mol     cal/K/mol   cal/K/mol   J/K/mol
 298.15  VIB  0.614E+06             9216.672     62.303     54.600
         ROT  0.449E+07              888.752      2.981     33.420
         INT  0.276E+13            10105.425     65.284     88.020
         TR   0.514E+28             1481.254      4.968     43.016
         TOT                       11586.6785    70.2524   131.0361   548.2552

       T/K    H(0)-H(T)+PV         H(T)/Eh          T*S/Eh         G(T)/Eh
   ------------------------------------------------------------------------
    298.15    0.184645E-01    0.236523E+00    0.622595E-01    0.174263E+00
   ------------------------------------------------------------------------

         :::::::::::::::::::::::::::::::::::::::::::::::::::::
         ::                  THERMODYNAMIC                  ::
         :::::::::::::::::::::::::::::::::::::::::::::::::::::
         :: total free energy         -58.386873957523 Eh   ::
         ::.................................................::
         :: total energy              -58.561137452027 Eh   ::
         :: zero point energy           0.218058447116 Eh   ::
         :: G(RRHO) w/o ZPVE           -0.043794952612 Eh   ::
         :: G(RRHO) contrib.            0.174263494504 Eh   ::
         :::::::::::::::::::::::::::::::::::::::::::::::::::::

           -------------------------------------------------
          | TOTAL ENERGY              -58.561137452027 Eh   |
          | TOTAL ENTHALPY            -58.324614457473 Eh   |
          | TOTAL FREE ENERGY         -58.386873957523 Eh   |
          | GRADIENT NORM               0.000089829919 Eh/α |
          | HOMO-LUMO GAP               1.385971828524 eV   |
           -------------------------------------------------

 * finished run on 2025/09/13 at 13:05:14.651
