   * xtb version 6.7.1 (edcfbbe) compiled by 'albert@albert-system' on 2024-07-22

   ID    Z sym.   atoms
    1    6 C      1-6, 8, 10-18, 20-44, 46-62
    2    7 N      7, 19, 45
    3    8 O      9, 63
    4    1 H      64-108

          program call               : xtb data2507/gas/Cbz-MI/Cbz-MI_gas_S0_crest.xyz --gfn 2 --ohess vtight --parallel 40 --molden --ceasefiles --namespace data2507/gas/Cbz-MI/Cbz-MI_gas_S0_finalOpt
          :  Hamiltonian                  GFN2-xTB          :
 * total energy  :  -164.1658439 Eh     change       -0.5968928E-08 Eh
 * total energy  :  -164.1658453 Eh     change       -0.1353690E-05 Eh
 * total energy  :  -164.1658472 Eh     change       -0.1960574E-05 Eh
 * total energy  :  -164.1658495 Eh     change       -0.2303935E-05 Eh
 * total energy  :  -164.1658509 Eh     change       -0.1339963E-05 Eh
 * total energy  :  -164.1658526 Eh     change       -0.1748649E-05 Eh
 * total energy  :  -164.1658557 Eh     change       -0.3048177E-05 Eh
 * total energy  :  -164.1658598 Eh     change       -0.4149482E-05 Eh
 * total energy  :  -164.1658635 Eh     change       -0.3668204E-05 Eh
 * total energy  :  -164.1658667 Eh     change       -0.3199993E-05 Eh
 * total energy  :  -164.1659428 Eh     change       -0.9209953E-06 Eh
 * total energy  :  -164.1659436 Eh     change       -0.8173415E-06 Eh
 * total energy  :  -164.1659442 Eh     change       -0.6380683E-06 Eh
 * total energy  :  -164.1659447 Eh     change       -0.5013088E-06 Eh
 * total energy  :  -164.1659451 Eh     change       -0.4102277E-06 Eh
 * total energy  :  -164.1659455 Eh     change       -0.3975472E-06 Eh
 * total energy  :  -164.1659460 Eh     change       -0.4667552E-06 Eh
 * total energy  :  -164.1659466 Eh     change       -0.5891406E-06 Eh
 * total energy  :  -164.1659466 Eh     change       -0.3038139E-08 Eh
   *** GEOMETRY OPTIMIZATION CONVERGED AFTER 68 ITERATIONS ***

 final structure:
================
108
 xtb: 6.7.1 (edcfbbe)
C           -0.36211383504924       -4.93777387675963       -3.24722921495726
C            0.12888202418607       -6.32026731167478       -2.83441977949377
C           -1.02136565624286       -7.19133697538839       -2.33513831770958
C           -0.59963221611660       -8.59184872898464       -1.88560393218621
C            0.41758872160908       -8.65744581050105       -0.74378774812126
C           -0.05867770150909       -8.06360593920785        0.58432090795254
N           -0.03405425357321       -6.61647076964526        0.59357307089693
C            1.10707488353680       -5.85268885327342        0.45361025148065
O            2.22971792946611       -6.28871700580227        0.37494725772964
C            0.65785059169666       -4.42684685008793        0.45853638660128
C            1.61312190260245       -3.33974706451779        0.36950688164103
C            1.43927153818828       -2.16761746188109        1.11132290619808
C            2.37203248415811       -1.15620744109302        1.05206785888334
C            3.51058165938841       -1.27709191121288        0.25322254845147
C            4.51024789778437       -0.20406934752408        0.20139320435106
C            5.87179456688767       -0.50329487521749        0.17638996417334
C            6.81772927700908        0.49976345475994        0.13044356515045
C            6.42232875311373        1.83505146854805        0.10977200030315
N            7.38042816281451        2.85438504593012        0.06484355133225
C            7.39309625782065        3.91500323314745       -0.82027601543213
C            6.52927058437461        4.20406908414778       -1.86688396944575
C            6.78959314754883        5.32860190643300       -2.62649607152134
C            7.88611874362051        6.14664692711645       -2.36387116314536
C            8.76320652600547        5.85026893040912       -1.33988217391797
C            8.52253435477649        4.72526923912950       -0.56236925916608
C            9.21742316969921        4.11907120881410        0.53862946607734
C           10.36543299167459        4.45465579478084        1.24409359209612
C           10.75738034121050        3.64665502489818        2.29248478624586
C           10.01143121743823        2.52583604604026        2.65024773654161
C            8.86592504149254        2.17158034350230        1.96354561300907
C            8.48126015292016        2.96525385708811        0.89239964861018
C            5.06465170048237        2.14406194098649        0.13493106256699
C            4.12418974337298        1.13525477318486        0.17972246057892
C            3.68133219592180       -2.44719339266939       -0.48534140031577
C            2.75257227188630       -3.46481440208189       -0.42771565777295
C           -0.68820862153967       -4.41039591503355        0.62421614991327
C           -1.62833292521179       -3.30652708963056        0.58524478785658
C           -1.41418793673289       -2.21592748387497       -0.26348685516341
C           -2.33171210095657       -1.19154730378701       -0.33322143210229
C           -3.49477277406096       -1.21683943337010        0.43863980314213
C           -4.47563475120152       -0.12940535342559        0.35456914527259
C           -5.84299378228418       -0.40228327873330        0.37323651656494
C           -6.77054971185730        0.61445516566292        0.28081467429423
C           -6.35084241562657        1.93909193091560        0.18433794501875
N           -7.28929122101829        2.97315143081587        0.09600719296881
C           -7.28894642087176        3.98724877270598       -0.84229271667096
C           -6.43050209731429        4.20333948803033       -1.91067062630368
C           -6.67518159165675        5.29263411573376       -2.72488185798766
C           -7.75131718087239        6.14657955145845       -2.49428346513390
C           -8.62360901020214        5.92210819652979       -1.44812005775486
C           -8.39845314258405        4.83357339803727       -0.61598699069480
C           -9.09471319884952        4.29919983676356        0.52084105872789
C          -10.22820194797310        4.69482958872151        1.21854038774542
C          -10.62660668042934        3.94964382859317        2.31017640921001
C           -9.90104338040126        2.83250191306821        2.71774746133773
C           -8.77011117505094        2.41936992947288        2.03978669541297
C           -8.37939356522906        3.14931954053914        0.92640756086463
C           -4.98720993660157        2.22250968055639        0.17489270740671
C           -4.06519034670718        1.19894391027220        0.25005775109696
C           -3.70660550045135       -2.30647521603836        1.28238319182058
C           -2.79357347397440       -3.33739545035003        1.35416594994490
C           -1.15355204824183       -5.82372484051393        0.75868420051420
O           -2.26682122109361       -6.24055618753590        0.96589077779420
H           -1.07979018088192       -5.01358451257843       -4.06134565867373
H            0.46818365701578       -4.31705336415446       -3.57719730657795
H           -0.85054156767005       -4.44170054620733       -2.41002358706111
H            0.60903010121833       -6.80843976265474       -3.68586832637365
H            0.88223590226793       -6.20640514301860       -2.05369607519033
H           -1.74579495850113       -7.30449348192379       -3.14641632282301
H           -1.53932793367811       -6.68074923450156       -1.52307835307739
H           -1.49788061846490       -9.13554073856365       -1.58197783735496
H           -0.17057383835897       -9.11813692019602       -2.74238663876656
H            1.34859548589858       -8.16989357402369       -1.03263437734029
H            0.64697347628401       -9.70978499806271       -0.56256230879968
H           -1.08932323764346       -8.35822714038781        0.79750893700124
H            0.59303539112154       -8.41970094021996        1.38894128628906
H            0.57596944820940       -2.06996939997322        1.75271482461873
H            2.23574779150708       -0.26994517643027        1.65425735697634
H            6.19145109168346       -1.53420767082668        0.20895262501995
H            7.86901531320479        0.25600491874749        0.09646169527955
H            5.68744788206629        3.56647374976925       -2.09145532727189
H            6.12982922772198        5.57649871535897       -3.44498411216972
H            8.05350870208846        7.01823896536007       -2.97899388751083
H            9.62272905250547        6.47419817872026       -1.14651210621611
H           10.93358262469970        5.33292341916340        0.97701947436484
H           11.64860803323058        3.88795660594472        2.85243225578284
H           10.33345015440766        1.92176046442195        3.48569596875312
H            8.28514201058203        1.31157552016985        2.26135593925603
H            4.75460310014207        3.17839168291027        0.13397420152192
H            3.07405319595474        1.38775310426697        0.18440509660163
H            4.54487454090736       -2.55136669002592       -1.12541148211654
H            2.90156298214978       -4.36112256186529       -1.00851190095590
H           -0.53146877754031       -2.19252165268125       -0.88520470104375
H           -2.16309241698679       -0.37181450777352       -1.01597871746394
H           -6.18091055573642       -1.42650016737678        0.42630593833661
H           -7.82629789540473        0.38895221841863        0.26352080775178
H           -5.60504576107887        3.53673597686833       -2.11025080733408
H           -6.01927638314384        5.48365748197916       -3.56151499230786
H           -7.90691751975976        6.98875492410925       -3.15199632361694
H           -9.46784642689648        6.57339927760375       -1.27922359715790
H          -10.78028001926781        5.57053878855249        0.91226085723594
H          -11.50683285843911        4.23828811456236        2.86509046958104
H          -10.22754968108415        2.27858640190489        3.58559135822229
H           -8.20454766773875        1.56327959343232        2.37563049712084
H           -4.65835823908748        3.24981837927834        0.12558781194207
H           -3.01092528753248        1.43335122470499        0.25996309758848
H           -4.59030373547485       -2.33577539933369        1.90236343168409
H           -2.97467052372029       -4.17189301506563        2.01258588414915

          :  Hamiltonian                  GFN2-xTB          :
         :: gradient norm              0.000037952723 Eh/a0 ::
         :: HOMO-LUMO gap              1.096209287640 eV    ::
         :: SCC energy              -167.090155531654 Eh    ::
         :: -> dispersion             -0.146569629214 Eh    ::
         :: repulsion energy           2.924208935283 Eh    ::

    * Orbital Energies and Occupations

         #    Occupation            Energy/Eh            Energy/eV
      -------------------------------------------------------------
         1        2.0000           -0.7271006             -19.7854
       ...           ...                  ...                  ...
       140        2.0000           -0.4163807             -11.3303
       141        2.0000           -0.4158474             -11.3158
       142        2.0000           -0.4143800             -11.2759
       143        2.0000           -0.4125604             -11.2263
       144        2.0000           -0.4061888             -11.0530
       145        2.0000           -0.4052035             -11.0261
       146        2.0000           -0.4049796             -11.0201
       147        2.0000           -0.4004379             -10.8965
       148        2.0000           -0.3864908             -10.5169
       149        2.0000           -0.3786336             -10.3031
       150        2.0000           -0.3784067             -10.2970
       151        2.0000           -0.3628698              -9.8742
       152        2.0000           -0.3621525              -9.8547 (HOMO)
       153                         -0.3218675              -8.7585 (LUMO)
       154                         -0.2615184              -7.1163
       155                         -0.2582189              -7.0265
       156                         -0.2445822              -6.6554
       157                         -0.2441149              -6.6427
       158                         -0.2360759              -6.4240
       159                         -0.2360600              -6.4235
       160                         -0.2353504              -6.4042
       161                         -0.2313319              -6.2949
       162                         -0.2244348              -6.1072
       163                         -0.2218751              -6.0375
       ...                                ...                  ...
       297                          0.7559093              20.5693
      -------------------------------------------------------------
                  HL-Gap            0.0402850 Eh            1.0962 eV

     #   Z          covCN         q      C6AA      α(0)
     1   6 C        3.752    -0.099    22.455     6.757
     2   6 C        3.800    -0.051    21.492     6.601
     3   6 C        3.802    -0.057    21.605     6.618
     4   6 C        3.800    -0.059    21.636     6.623
     5   6 C        3.800    -0.064    21.738     6.638
     6   6 C        3.739     0.010    20.481     6.458
     7   7 N        2.779    -0.110    23.408     7.186
     8   6 C        2.864     0.278    22.301     7.741
     9   8 O        0.857    -0.380    21.281     6.185
    10   6 C        3.026    -0.028    28.665     8.782
    11   6 C        2.972     0.021    27.542     8.608
    12   6 C        2.922    -0.030    28.750     8.793
    13   6 C        2.923    -0.033    28.824     8.804
    14   6 C        2.976     0.014    27.691     8.632
    15   6 C        2.976     0.007    27.867     8.659
    16   6 C        2.925    -0.033    28.813     8.803
    17   6 C        2.920    -0.043    29.067     8.841
    18   6 C        2.913     0.064    26.562     8.451
    19   7 N        2.802    -0.044    22.080     6.979
    20   6 C        3.075     0.047    26.879     8.500
    21   6 C        2.910    -0.051    29.267     8.871
    22   6 C        2.924    -0.033    28.834     8.806
    23   6 C        2.920    -0.041    29.011     8.833
    24   6 C        2.913    -0.033    28.815     8.802
    25   6 C        3.068    -0.017    28.356     8.732
    26   6 C        3.068    -0.017    28.358     8.732
    27   6 C        2.913    -0.033    28.815     8.802
    28   6 C        2.920    -0.041    29.009     8.832
    29   6 C        2.924    -0.033    28.830     8.805
    30   6 C        2.910    -0.051    29.263     8.870
    31   6 C        3.075     0.047    26.879     8.500
    32   6 C        2.920    -0.043    29.077     8.843
    33   6 C        2.924    -0.033    28.823     8.804
    34   6 C        2.923    -0.032    28.803     8.801
    35   6 C        2.922    -0.025    28.635     8.775
    36   6 C        3.024    -0.029    28.701     8.788
    37   6 C        2.972     0.019    27.578     8.614
    38   6 C        2.922    -0.031    28.769     8.796
    39   6 C        2.923    -0.033    28.831     8.805
    40   6 C        2.976     0.014    27.692     8.632
    41   6 C        2.976     0.007    27.870     8.660
    42   6 C        2.925    -0.033    28.813     8.803
    43   6 C        2.920    -0.043    29.068     8.841
    44   6 C        2.913     0.064    26.563     8.451
    45   7 N        2.802    -0.043    22.074     6.978
    46   6 C        3.075     0.047    26.879     8.500
    47   6 C        2.910    -0.051    29.265     8.871
    48   6 C        2.924    -0.033    28.833     8.806
    49   6 C        2.920    -0.041    29.010     8.832
    50   6 C        2.913    -0.033    28.814     8.802
    51   6 C        3.068    -0.017    28.355     8.731
    52   6 C        3.068    -0.017    28.356     8.732
    53   6 C        2.913    -0.033    28.814     8.802
    54   6 C        2.920    -0.041    29.008     8.832
    55   6 C        2.924    -0.033    28.830     8.805
    56   6 C        2.910    -0.051    29.262     8.870
    57   6 C        3.075     0.047    26.879     8.500
    58   6 C        2.920    -0.043    29.078     8.843
    59   6 C        2.924    -0.033    28.823     8.804
    60   6 C        2.923    -0.032    28.801     8.801
    61   6 C        2.922    -0.027    28.684     8.783
    62   6 C        2.865     0.278    22.316     7.743
    63   8 O        0.857    -0.381    21.299     6.188
    64   1 H        0.925     0.035     2.519     2.482
    65   1 H        0.925     0.032     2.562     2.503
    66   1 H        0.925     0.027     2.636     2.539
    67   1 H        0.924     0.032     2.565     2.505
    68   1 H        0.924     0.025     2.652     2.547
    69   1 H        0.924     0.032     2.560     2.502
    70   1 H        0.925     0.031     2.570     2.507
    71   1 H        0.924     0.036     2.506     2.475
    72   1 H        0.924     0.035     2.523     2.484
    73   1 H        0.925     0.058     2.225     2.332
    74   1 H        0.924     0.042     2.419     2.432
    75   1 H        0.924     0.071     2.076     2.253
    76   1 H        0.924     0.052     2.291     2.367
    77   1 H        0.926     0.036     2.507     2.476
    78   1 H        0.926     0.037     2.492     2.469
    79   1 H        0.926     0.041     2.438     2.442
    80   1 H        0.926     0.043     2.412     2.429
    81   1 H        0.926     0.027     2.634     2.538
    82   1 H        0.926     0.029     2.603     2.523
    83   1 H        0.926     0.028     2.613     2.528
    84   1 H        0.926     0.031     2.570     2.507
    85   1 H        0.926     0.031     2.570     2.507
    86   1 H        0.926     0.028     2.611     2.527
    87   1 H        0.926     0.029     2.596     2.520
    88   1 H        0.926     0.027     2.625     2.533
    89   1 H        0.926     0.042     2.425     2.435
    90   1 H        0.926     0.037     2.485     2.465
    91   1 H        0.926     0.040     2.452     2.449
    92   1 H        0.926     0.054     2.273     2.358
    93   1 H        0.926     0.036     2.498     2.472
    94   1 H        0.926     0.036     2.497     2.471
    95   1 H        0.926     0.041     2.439     2.442
    96   1 H        0.926     0.043     2.412     2.429
    97   1 H        0.926     0.027     2.633     2.537
    98   1 H        0.926     0.029     2.602     2.523
    99   1 H        0.926     0.028     2.611     2.527
   100   1 H        0.926     0.031     2.569     2.506
   101   1 H        0.926     0.031     2.569     2.507
   102   1 H        0.926     0.028     2.610     2.526
   103   1 H        0.926     0.029     2.596     2.520
   104   1 H        0.926     0.027     2.626     2.534
   105   1 H        0.926     0.042     2.425     2.435
   106   1 H        0.926     0.037     2.485     2.465
   107   1 H        0.926     0.040     2.453     2.449
   108   1 H        0.926     0.057     2.237     2.339

molecular dipole:
                 x           y           z       tot (Debye)
 q only:       -0.025       0.315      -0.262
   full:       -0.027       0.242      -0.196       0.794

 projected vibrational frequencies (cm⁻¹)
eigval :       -0.00    -0.00     0.00     0.00     0.00     0.00
eigval :        5.45     8.31     9.12    12.57    13.84    18.24
eigval :       21.90    28.00    34.18    34.92    47.25    51.62
eigval :       57.48    61.94    74.66    75.73    77.88    84.95
eigval :       89.24    95.61   100.36   104.34   108.18   112.54
eigval :      118.95   124.54   136.18   136.68   145.57   146.37
eigval :      154.05   187.50   205.68   210.55   214.86   218.43
eigval :      227.33   235.59   236.92   248.77   252.85   270.54
eigval :      271.65   272.00   275.14   298.73   307.00   310.00
eigval :      324.81   350.31   355.62   369.76   374.06   374.67
eigval :      379.65   383.57   385.63   393.55   395.16   400.44
eigval :      416.31   418.24   420.61   422.13   433.03   434.29
eigval :      435.12   447.16   458.37   467.55   488.74   498.12
eigval :      511.08   515.46   518.68   520.60   532.05   534.29
eigval :      540.01   541.11   541.13   549.13   582.57   582.71
eigval :      589.71   594.79   596.59   601.35   606.95   610.57
eigval :      616.84   617.72   635.18   671.26   673.92   674.13
eigval :      681.36   686.12   691.12   696.70   700.74   708.57
eigval :      708.90   709.40   728.74   735.93   752.51   754.62
eigval :      763.18   767.81   768.01   769.56   769.68   780.86
eigval :      780.94   807.60   808.50   819.77   832.86   833.72
eigval :      840.67   863.22   865.15   865.91   868.09   868.26
eigval :      872.64   873.80   874.00   880.71   881.33   897.88
eigval :      898.16   902.54   902.60   902.95   903.07   915.49
eigval :      916.38   919.74   920.49   920.63   921.39   921.48
eigval :      923.42   926.54   927.36   928.28   929.17   930.76
eigval :      931.94   936.16   936.45   945.07   987.72   988.12
eigval :     1012.14  1012.22  1012.30  1017.08  1020.88  1037.86
eigval :     1070.59  1070.61  1073.78  1073.98  1075.24  1077.76
eigval :     1081.21  1083.23  1090.87  1097.70  1117.90  1117.94
eigval :     1129.64  1135.99  1136.17  1147.71  1149.52  1152.18
eigval :     1153.09  1153.22  1159.55  1176.95  1176.97  1181.38
eigval :     1181.39  1183.70  1184.00  1199.82  1200.64  1207.21
eigval :     1207.75  1216.79  1228.91  1236.64  1236.73  1243.98
eigval :     1244.92  1246.41  1266.18  1267.19  1267.29  1274.76
eigval :     1274.94  1279.65  1286.09  1288.72  1296.88  1301.60
eigval :     1302.62  1302.72  1305.37  1310.58  1315.54  1315.90
eigval :     1317.72  1319.35  1333.63  1335.48  1350.72  1352.24
eigval :     1357.73  1357.89  1362.01  1362.05  1365.36  1371.10
eigval :     1371.24  1375.90  1395.63  1396.22  1412.77  1413.56
eigval :     1418.81  1428.36  1428.39  1430.73  1431.55  1439.13
eigval :     1470.88  1476.19  1476.22  1479.13  1483.32  1488.39
eigval :     1488.46  1488.73  1499.85  1505.17  1505.54  1507.13
eigval :     1507.61  1511.17  1545.55  1546.58  1561.55  1562.28
eigval :     1575.45  1575.52  1577.95  1584.13  1589.39  1589.48
eigval :     1599.17  1599.20  1599.28  1600.92  1615.05  1615.13
eigval :     1625.26  1741.95  1766.24  2943.32  2959.93  2961.35
eigval :     2970.90  2974.12  2977.26  2983.94  3000.17  3016.76
eigval :     3019.07  3024.37  3030.62  3035.55  3076.10  3076.19
eigval :     3076.64  3076.68  3078.50  3079.10  3081.17  3081.32
eigval :     3082.09  3082.36  3082.46  3082.71  3083.82  3083.94
eigval :     3086.85  3087.23  3088.39  3088.52  3090.03  3090.17
eigval :     3091.49  3093.46  3094.42  3094.72  3095.33  3095.45
eigval :     3096.51  3096.53  3097.14  3097.20  3110.54  3113.00

   temp. (K)  partition function   enthalpy   heat capacity  entropy
                                   cal/mol     cal/K/mol   cal/K/mol   J/K/mol
 298.15  VIB  0.157E+27            31293.583    192.863    198.806
         ROT  0.380E+09              888.752      2.981     42.240
         INT  0.597E+35            32182.335    195.844    241.046
         TR   0.226E+29             1481.254      4.968     45.955
         TOT                       33663.5892   200.8121   287.0002  1200.8088

       T/K    H(0)-H(T)+PV         H(T)/Eh          T*S/Eh         G(T)/Eh
   ------------------------------------------------------------------------
    298.15    0.536463E-01    0.905561E+00    0.136363E+00    0.769198E+00
   ------------------------------------------------------------------------

         :::::::::::::::::::::::::::::::::::::::::::::::::::::
         ::                  THERMODYNAMIC                  ::
         :::::::::::::::::::::::::::::::::::::::::::::::::::::
         :: total free energy        -163.396749043568 Eh   ::
         ::.................................................::
         :: total energy             -164.165946596371 Eh   ::
         :: zero point energy           0.851914255034 Eh   ::
         :: G(RRHO) w/o ZPVE           -0.082716702232 Eh   ::
         :: G(RRHO) contrib.            0.769197552803 Eh   ::
         :::::::::::::::::::::::::::::::::::::::::::::::::::::

           -------------------------------------------------
          | TOTAL ENERGY             -164.165946596371 Eh   |
          | TOTAL ENTHALPY           -163.260385997245 Eh   |
          | TOTAL FREE ENERGY        -163.396749043568 Eh   |
          | GRADIENT NORM               0.000037950753 Eh/α |
          | HOMO-LUMO GAP               1.096209464424 eV   |
           -------------------------------------------------

 * finished run on 2025/08/25 at 10:01:16.224
