   * xtb version 6.7.1 (edcfbbe) compiled by 'albert@albert-system' on 2024-07-22

   ID    Z sym.   atoms
    1    6 C      1-6, 8, 10-18, 20-44, 46-62
    2    7 N      7, 19, 45
    3    8 O      9, 63
    4    1 H      64-108

          program call               : xtb data2507/gas/Cbz-MI/Cbz-MI.xyz --gfn 2 --ohess vtight --parallel 40 --molden --ceasefiles --namespace data2507/gas/Cbz-MI/Cbz-MI_gas_S0_preOpt
          :  Hamiltonian                  GFN2-xTB          :
 * total energy  :  -164.1369684 Eh     change       -0.1876430E-08 Eh
 * total energy  :  -164.1539285 Eh     change       -0.1696006E-01 Eh
 * total energy  :  -164.1579624 Eh     change       -0.4033926E-02 Eh
 * total energy  :  -164.1590196 Eh     change       -0.1057195E-02 Eh
 * total energy  :  -164.1601174 Eh     change       -0.1097869E-02 Eh
 * total energy  :  -164.1607647 Eh     change       -0.6472304E-03 Eh
 * total energy  :  -164.1612412 Eh     change       -0.4765673E-03 Eh
 * total energy  :  -164.1615878 Eh     change       -0.3465106E-03 Eh
 * total energy  :  -164.1618365 Eh     change       -0.2487420E-03 Eh
 * total energy  :  -164.1620226 Eh     change       -0.1860989E-03 Eh
 * total energy  :  -164.1638655 Eh     change       -0.5120220E-06 Eh
 * total energy  :  -164.1638659 Eh     change       -0.4241241E-06 Eh
 * total energy  :  -164.1638664 Eh     change       -0.4715980E-06 Eh
 * total energy  :  -164.1638668 Eh     change       -0.3686272E-06 Eh
 * total energy  :  -164.1638670 Eh     change       -0.2161307E-06 Eh
 * total energy  :  -164.1638672 Eh     change       -0.1849249E-06 Eh
 * total energy  :  -164.1638674 Eh     change       -0.2123028E-06 Eh
 * total energy  :  -164.1638675 Eh     change       -0.1688435E-06 Eh
 * total energy  :  -164.1638676 Eh     change       -0.9848557E-07 Eh
   *** GEOMETRY OPTIMIZATION CONVERGED AFTER 115 ITERATIONS ***

 final structure:
================
108
 xtb: 6.7.1 (edcfbbe)
C            2.71829234039140      -10.57954288480032       -2.83828162000738
C            2.66355148124667       -9.87121901641436       -1.48997266258773
C            2.27496836995638       -8.40227821663646       -1.64455049531974
C            2.31888926842959       -7.61834324570562       -0.33297976537956
C            1.23372113078019       -8.04291149285229        0.65416706289710
C            1.26558086802883       -7.21195917201937        1.93740019577501
N            0.99779893569768       -5.81379261481718        1.68170936584555
C            1.96101319213557       -4.82359221166866        1.69748011002806
O            3.12508948329737       -5.00028962918572        1.95798769039097
C            1.25798862098594       -3.55491063129312        1.33786602636710
C            1.98371335233721       -2.31129114802637        1.16022409739525
C            3.08558068030273       -2.01141992774007        1.96382074818809
C            3.78063694494673       -0.83340436823693        1.78642743380829
C            3.41548585286876        0.07243205920190        0.79165364570572
C            4.16045234164228        1.32281776418689        0.60437510832885
C            4.44964839170597        1.79720565933183       -0.67419702809171
C            5.15176533631441        2.97145386898895       -0.85288627658660
C            5.58353588997933        3.70392980026930        0.25005260562826
N            6.29608556653609        4.89563497525362        0.07268916525022
C            6.01136148265337        6.10529980932765        0.67588458472800
C            4.96905664645003        6.44565576399703        1.52611986091292
C            4.89872843277294        7.75250215200705        1.96938368481104
C            5.83371215616806        8.70650093141335        1.57400291483383
C            6.85842035730696        8.37972435760492        0.70862077381999
C            6.95010788297501        7.07249503545798        0.24937066765118
C            7.84632353992541        6.40255038310571       -0.65096025755566
C            8.96489497814575        6.81144569930326       -1.36497898834972
C            9.62995738228989        5.88336660933201       -2.14087172171716
C            9.20178536960419        4.55892452636315       -2.19777082876032
C            8.09174621564104        4.12826487339589       -1.49665337880470
C            7.40455084447218        5.06227852401336       -0.73476145078204
C            5.29923887022112        3.23830168902901        1.53136917158405
C            4.59706792666497        2.06297427200864        1.70217378629663
C            2.32804270634032       -0.24088302408257       -0.02555575274141
C            1.62012995323566       -1.40783489232493        0.15695649980261
C           -0.05774849097959       -3.83762459062214        1.16303804900455
C           -1.18403073836871       -2.95724795752964        0.91687572823844
C           -1.22597428281795       -1.67622352958815        1.47572203150737
C           -2.31135146901848       -0.85526633479521        1.26621387947153
C           -3.38861926981550       -1.27689893648943        0.48482467878412
C           -4.53899863924232       -0.39566839253444        0.25404409741315
C           -5.15064741197379       -0.33483389152333       -0.99735585733215
C           -6.23216495001067        0.49264477217739       -1.21905151391462
C           -6.73064427583016        1.28485259741772       -0.18781313159618
N           -7.82568364314683        2.12784766877947       -0.40980401375818
C           -7.95394337312067        3.02894025223229       -1.44907340544272
C           -7.05633053096988        3.34953121766616       -2.45737836834258
C           -7.42735206314606        4.32197145954717       -3.36621842441780
C           -8.65643090297568        4.97145919121681       -3.27614940628465
C           -9.54293375599977        4.67475597560989       -2.26038890032448
C           -9.19247654848312        3.70089022763451       -1.33468989235711
C           -9.83995466750050        3.16824678357084       -0.16863869207216
C          -11.06448957504396        3.41251258300864        0.43884569218366
C          -11.39895197453970        2.69040318551005        1.56682090256320
C          -10.53686004999109        1.72390552452866        2.08001437611112
C           -9.31338756079396        1.46294300976957        1.49326990304922
C           -8.96067428394592        2.20352370593057        0.37421880136150
C           -6.12726822946666        1.23011951969891        1.06615619935736
C           -5.04648845672631        0.39968323215266        1.28045606279932
C           -3.34742696518075       -2.55694389811281       -0.06593836855199
C           -2.26971697480379       -3.38947641924146        0.15239881877559
C           -0.24692315010526       -5.30705983752067        1.36400776461808
O           -1.25952112799360       -5.95835757000374        1.29547475598263
H            2.99188147129731      -11.62445999285054       -2.71177003289681
H            3.45296343346933      -10.10884053828562       -3.48818647918778
H            1.74923516580631      -10.53592102911673       -3.33086467841645
H            1.94089203022316      -10.38093665179282       -0.85077228604412
H            3.64133614041114       -9.93510859207072       -1.00710457627902
H            1.27077614768730       -8.33710703594272       -2.07048054113065
H            2.96370072290911       -7.93361765867582       -2.35186698052506
H            3.29947812571018       -7.74143391971856        0.13241853169084
H            2.19693154825658       -6.55578423532899       -0.56016647267299
H            1.36834004445387       -9.08840687111789        0.93219686629254
H            0.25041313400178       -7.93838425877750        0.19113666839812
H            0.50894802290000       -7.57961459703050        2.63646281418258
H            2.25319257535741       -7.26143057764381        2.40253802971049
H            3.38911540575741       -2.70566632043984        2.73108790026734
H            4.63550491806212       -0.62104403229050        2.41129551258546
H            4.13382883669638        1.23001316581095       -1.53725677127968
H            5.35901530058957        3.33656551833577       -1.84771761373848
H            4.22836208137043        5.71870610961165        1.82381332290878
H            4.09823711016924        8.04151612022422        2.63447485972000
H            5.74566049446995        9.71682595528517        1.94491108968599
H            7.57347160889737        9.12254923553197        0.38865666200330
H            9.30619196402244        7.83401651066945       -1.30708923899067
H           10.50078205938360        6.18096689292487       -2.70581458976288
H            9.75204088966761        3.85142333666737       -2.80046804301124
H            7.77959946856460        3.09536102251428       -1.53285320353937
H            5.64502293957104        3.79625457504557        2.38870576312453
H            4.37085163084367        1.71924218949948        2.70070721515577
H            2.02568262091950        0.45052363528190       -0.79837325277917
H            0.78485986283420       -1.63889714208590       -0.48720504655517
H           -0.40420878155301       -1.33834998971184        2.08924339283354
H           -2.32072216137743        0.13534043724817        1.69662299049661
H           -4.76418344730789       -0.93300652086456       -1.80925788648208
H           -6.70718147467618        0.52079305226287       -2.18830642006588
H           -6.09338424379772        2.86601811566879       -2.52535947789194
H           -6.74700234343462        4.58704725671231       -4.16215835804257
H           -8.91041183323820        5.72381740636399       -4.00794107446477
H          -10.48834035706600        5.18974272974702       -2.18008260388153
H          -11.73937030171404        4.14968003960551        0.03067957152637
H          -12.34526129374834        2.86657926641589        2.05622613801080
H          -10.83285476725820        1.16283912014999        2.95418227798841
H           -8.66129809660084        0.69838407254452        1.88803896981897
H           -6.50286672853345        1.85253939262769        1.86454813395082
H           -4.59761349683927        0.35444491711807        2.26165208854384
H           -4.18295231813374       -2.91133148384430       -0.65130673322944
H           -2.26059453935168       -4.38057145265303       -0.27239517835344

          :  Hamiltonian                  GFN2-xTB          :
         :: gradient norm              0.000045641742 Eh/a0 ::
         :: HOMO-LUMO gap              1.092617370380 eV    ::
         :: SCC energy              -167.088798223692 Eh    ::
         :: -> dispersion             -0.140757121475 Eh    ::
         :: repulsion energy           2.924930576240 Eh    ::

    * Orbital Energies and Occupations

         #    Occupation            Energy/Eh            Energy/eV
      -------------------------------------------------------------
         1        2.0000           -0.7265150             -19.7695
       ...           ...                  ...                  ...
       140        2.0000           -0.4164744             -11.3328
       141        2.0000           -0.4162734             -11.3274
       142        2.0000           -0.4157526             -11.3132
       143        2.0000           -0.4129523             -11.2370
       144        2.0000           -0.4064686             -11.0606
       145        2.0000           -0.4049263             -11.0186
       146        2.0000           -0.4048534             -11.0166
       147        2.0000           -0.3995612             -10.8726
       148        2.0000           -0.3863752             -10.5138
       149        2.0000           -0.3783455             -10.2953
       150        2.0000           -0.3782754             -10.2934
       151        2.0000           -0.3625856              -9.8665
       152        2.0000           -0.3620623              -9.8522 (HOMO)
       153                         -0.3219093              -8.7596 (LUMO)
       154                         -0.2611081              -7.1051
       155                         -0.2580543              -7.0220
       156                         -0.2444275              -6.6512
       157                         -0.2439813              -6.6391
       158                         -0.2361209              -6.4252
       159                         -0.2360991              -6.4246
       160                         -0.2354130              -6.4059
       161                         -0.2311318              -6.2894
       162                         -0.2244928              -6.1088
       163                         -0.2215920              -6.0298
       ...                                ...                  ...
       297                          0.7554305              20.5563
      -------------------------------------------------------------
                  HL-Gap            0.0401530 Eh            1.0926 eV

     #   Z          covCN         q      C6AA      α(0)
     1   6 C        3.752    -0.103    22.523     6.768
     2   6 C        3.800    -0.054    21.550     6.610
     3   6 C        3.803    -0.059    21.643     6.623
     4   6 C        3.802    -0.055    21.570     6.612
     5   6 C        3.802    -0.064    21.720     6.635
     6   6 C        3.741     0.009    20.505     6.461
     7   7 N        2.781    -0.114    23.479     7.197
     8   6 C        2.861     0.275    22.359     7.751
     9   8 O        0.857    -0.376    21.198     6.173
    10   6 C        3.024    -0.030    28.719     8.790
    11   6 C        2.972     0.020    27.558     8.611
    12   6 C        2.922    -0.027    28.680     8.782
    13   6 C        2.923    -0.032    28.800     8.801
    14   6 C        2.976     0.014    27.692     8.632
    15   6 C        2.976     0.007    27.860     8.658
    16   6 C        2.924    -0.033    28.813     8.803
    17   6 C        2.920    -0.043    29.069     8.841
    18   6 C        2.913     0.064    26.561     8.451
    19   7 N        2.802    -0.044    22.082     6.979
    20   6 C        3.075     0.046    26.880     8.500
    21   6 C        2.910    -0.051    29.267     8.871
    22   6 C        2.924    -0.033    28.834     8.806
    23   6 C        2.920    -0.041    29.012     8.833
    24   6 C        2.913    -0.033    28.815     8.802
    25   6 C        3.068    -0.017    28.357     8.732
    26   6 C        3.068    -0.017    28.358     8.732
    27   6 C        2.913    -0.033    28.815     8.802
    28   6 C        2.920    -0.041    29.010     8.832
    29   6 C        2.924    -0.033    28.830     8.805
    30   6 C        2.910    -0.051    29.264     8.870
    31   6 C        3.075     0.047    26.878     8.500
    32   6 C        2.920    -0.043    29.067     8.841
    33   6 C        2.925    -0.033    28.817     8.803
    34   6 C        2.923    -0.033    28.827     8.805
    35   6 C        2.922    -0.030    28.756     8.794
    36   6 C        3.025    -0.030    28.718     8.790
    37   6 C        2.972     0.020    27.556     8.611
    38   6 C        2.922    -0.030    28.754     8.794
    39   6 C        2.923    -0.033    28.825     8.804
    40   6 C        2.976     0.014    27.689     8.631
    41   6 C        2.976     0.007    27.861     8.658
    42   6 C        2.925    -0.033    28.817     8.803
    43   6 C        2.920    -0.043    29.069     8.841
    44   6 C        2.913     0.064    26.561     8.451
    45   7 N        2.802    -0.044    22.080     6.979
    46   6 C        3.075     0.046    26.880     8.500
    47   6 C        2.910    -0.051    29.267     8.871
    48   6 C        2.924    -0.033    28.834     8.806
    49   6 C        2.920    -0.041    29.011     8.833
    50   6 C        2.913    -0.033    28.815     8.802
    51   6 C        3.068    -0.017    28.356     8.732
    52   6 C        3.068    -0.017    28.358     8.732
    53   6 C        2.913    -0.033    28.815     8.802
    54   6 C        2.920    -0.041    29.009     8.832
    55   6 C        2.924    -0.033    28.830     8.805
    56   6 C        2.910    -0.051    29.263     8.870
    57   6 C        3.075     0.047    26.879     8.500
    58   6 C        2.920    -0.043    29.070     8.842
    59   6 C        2.924    -0.033    28.813     8.803
    60   6 C        2.923    -0.032    28.802     8.801
    61   6 C        2.922    -0.027    28.675     8.781
    62   6 C        2.861     0.276    22.343     7.748
    63   8 O        0.857    -0.374    21.174     6.169
    64   1 H        0.925     0.034     2.534     2.489
    65   1 H        0.925     0.033     2.539     2.492
    66   1 H        0.925     0.034     2.535     2.490
    67   1 H        0.924     0.031     2.578     2.511
    68   1 H        0.924     0.031     2.571     2.508
    69   1 H        0.924     0.032     2.564     2.504
    70   1 H        0.924     0.033     2.546     2.495
    71   1 H        0.924     0.039     2.459     2.452
    72   1 H        0.924     0.025     2.661     2.551
    73   1 H        0.925     0.045     2.378     2.412
    74   1 H        0.924     0.051     2.310     2.377
    75   1 H        0.924     0.057     2.235     2.338
    76   1 H        0.924     0.068     2.110     2.271
    77   1 H        0.926     0.056     2.242     2.342
    78   1 H        0.926     0.040     2.446     2.446
    79   1 H        0.926     0.039     2.468     2.457
    80   1 H        0.926     0.042     2.420     2.433
    81   1 H        0.926     0.027     2.636     2.539
    82   1 H        0.926     0.029     2.603     2.523
    83   1 H        0.926     0.028     2.613     2.528
    84   1 H        0.926     0.031     2.570     2.507
    85   1 H        0.926     0.031     2.571     2.507
    86   1 H        0.926     0.028     2.611     2.527
    87   1 H        0.926     0.029     2.597     2.520
    88   1 H        0.926     0.027     2.626     2.534
    89   1 H        0.926     0.042     2.416     2.431
    90   1 H        0.926     0.039     2.466     2.455
    91   1 H        0.926     0.037     2.491     2.468
    92   1 H        0.926     0.036     2.508     2.476
    93   1 H        0.926     0.036     2.505     2.475
    94   1 H        0.926     0.037     2.490     2.468
    95   1 H        0.926     0.039     2.466     2.455
    96   1 H        0.926     0.042     2.416     2.431
    97   1 H        0.926     0.027     2.635     2.538
    98   1 H        0.926     0.029     2.603     2.523
    99   1 H        0.926     0.028     2.612     2.528
   100   1 H        0.926     0.031     2.570     2.507
   101   1 H        0.926     0.031     2.570     2.507
   102   1 H        0.926     0.028     2.611     2.527
   103   1 H        0.926     0.029     2.597     2.520
   104   1 H        0.926     0.027     2.625     2.534
   105   1 H        0.926     0.042     2.419     2.432
   106   1 H        0.926     0.039     2.467     2.456
   107   1 H        0.926     0.040     2.446     2.446
   108   1 H        0.926     0.056     2.245     2.343

molecular dipole:
                 x           y           z       tot (Debye)
 q only:       -0.036       0.265      -0.233
   full:       -0.031       0.202      -0.169       0.674

 projected vibrational frequencies (cm⁻¹)
eigval :       -0.00    -0.00    -0.00     0.00     0.00     0.00
eigval :        4.84     7.63     8.17     9.72     9.98    17.11
eigval :       23.18    25.67    27.20    29.44    45.19    47.37
eigval :       51.12    57.92    64.68    71.92    74.91    80.76
eigval :       86.43    88.59    94.40    96.77   103.19   104.42
eigval :      106.87   117.75   122.61   128.94   145.12   145.63
eigval :      155.02   179.38   184.89   190.22   212.50   215.86
eigval :      218.68   228.74   234.93   246.80   256.30   271.62
eigval :      271.77   278.10   282.75   286.32   289.17   306.13
eigval :      310.65   342.66   349.92   367.53   370.13   375.57
eigval :      378.81   382.45   383.00   387.97   393.38   394.14
eigval :      406.57   420.14   420.85   426.69   432.02   434.13
eigval :      438.04   448.36   458.54   478.77   496.00   499.08
eigval :      509.54   518.45   519.43   530.43   533.75   537.08
eigval :      541.12   541.14   546.34   548.81   582.31   582.56
eigval :      592.24   593.07   596.15   604.59   608.43   610.73
eigval :      617.61   617.70   635.37   672.20   673.89   673.92
eigval :      680.77   686.07   693.11   696.78   701.40   706.72
eigval :      708.86   709.38   730.74   734.73   752.50   754.50
eigval :      763.18   765.22   769.65   769.69   774.09   780.93
eigval :      780.97   791.72   807.44   808.18   834.20   834.42
eigval :      859.09   862.31   865.25   865.35   868.70   869.37
eigval :      871.82   873.86   873.89   880.85   881.02   897.88
eigval :      897.89   902.59   902.59   903.03   903.03   909.02
eigval :      915.21   916.35   916.52   920.70   920.74   921.24
eigval :      921.29   926.97   927.11   928.10   928.21   930.14
eigval :      930.57   935.62   936.02   980.59   987.80  1002.39
eigval :     1004.46  1012.12  1012.15  1017.64  1019.39  1051.22
eigval :     1069.11  1070.48  1070.57  1073.94  1073.97  1079.03
eigval :     1080.24  1084.54  1092.89  1096.97  1117.92  1117.98
eigval :     1128.21  1133.97  1135.67  1136.07  1147.14  1148.95
eigval :     1153.00  1153.14  1176.85  1176.88  1179.50  1181.36
eigval :     1181.38  1183.67  1183.82  1198.37  1199.57  1200.64
eigval :     1206.79  1207.75  1236.74  1236.76  1243.53  1244.79
eigval :     1244.92  1246.26  1266.95  1267.03  1271.49  1274.25
eigval :     1274.45  1279.81  1288.48  1289.59  1296.81  1301.56
eigval :     1302.77  1302.98  1305.30  1311.07  1315.32  1315.80
eigval :     1316.37  1317.64  1319.21  1332.26  1334.78  1349.57
eigval :     1357.65  1357.78  1362.03  1362.07  1371.09  1371.12
eigval :     1372.79  1375.10  1395.43  1395.77  1412.51  1413.27
eigval :     1416.67  1428.40  1428.41  1430.84  1431.63  1433.52
eigval :     1470.73  1476.25  1476.26  1478.95  1479.60  1488.45
eigval :     1488.52  1490.92  1495.90  1497.34  1505.01  1505.07
eigval :     1507.20  1507.58  1545.73  1546.69  1562.05  1562.22
eigval :     1575.42  1575.43  1578.53  1584.82  1589.40  1589.49
eigval :     1599.18  1599.22  1599.43  1600.74  1615.08  1615.16
eigval :     1621.95  1746.99  1769.76  2958.13  2958.94  2959.62
eigval :     2972.88  2975.12  2978.37  2982.13  2989.40  2994.67
eigval :     3004.43  3030.22  3032.75  3038.29  3076.03  3076.08
eigval :     3076.61  3076.63  3078.82  3079.50  3081.03  3081.14
eigval :     3081.91  3082.04  3082.35  3082.51  3083.79  3084.02
eigval :     3086.18  3086.28  3088.18  3088.30  3089.90  3089.99
eigval :     3092.14  3094.34  3094.85  3095.05  3095.43  3095.50
eigval :     3095.67  3095.86  3097.05  3097.09  3112.16  3112.30

   temp. (K)  partition function   enthalpy   heat capacity  entropy
                                   cal/mol     cal/K/mol   cal/K/mol   J/K/mol
 298.15  VIB  0.220E+28            31561.588    192.289    202.444
         ROT  0.420E+09              888.752      2.981     42.438
         INT  0.924E+36            32450.340    195.269    244.883
         TR   0.226E+29             1481.254      4.968     45.955
         TOT                       33931.5938   200.2376   290.8371  1216.8624

       T/K    H(0)-H(T)+PV         H(T)/Eh          T*S/Eh         G(T)/Eh
   ------------------------------------------------------------------------
    298.15    0.540734E-01    0.905347E+00    0.138186E+00    0.767161E+00
   ------------------------------------------------------------------------

         :::::::::::::::::::::::::::::::::::::::::::::::::::::
         ::                  THERMODYNAMIC                  ::
         :::::::::::::::::::::::::::::::::::::::::::::::::::::
         :: total free energy        -163.396706611282 Eh   ::
         ::.................................................::
         :: total energy             -164.163867647450 Eh   ::
         :: zero point energy           0.851273691800 Eh   ::
         :: G(RRHO) w/o ZPVE           -0.084112655632 Eh   ::
         :: G(RRHO) contrib.            0.767161036168 Eh   ::
         :::::::::::::::::::::::::::::::::::::::::::::::::::::

           -------------------------------------------------
          | TOTAL ENERGY             -164.163867647450 Eh   |
          | TOTAL ENTHALPY           -163.258520518997 Eh   |
          | TOTAL FREE ENERGY        -163.396706611282 Eh   |
          | GRADIENT NORM               0.000045610128 Eh/α |
          | HOMO-LUMO GAP               1.092618685501 eV   |
           -------------------------------------------------

 * finished run on 2025/08/25 at 09:08:33.716
