   * xtb version 6.7.1 (edcfbbe) compiled by 'albert@albert-system' on 2024-07-22

   ID    Z sym.   atoms
    1    6 C      1-6, 8, 10-18, 20-44, 46-62
    2    7 N      7, 19, 45
    3    8 O      9, 63
    4    1 H      64-108

          program call               : xtb data2507/gas/Cbz-MI/Cbz-MI_gas_S0_finalOpt.xtbopt.xyz --gfn 2 --spinpol --tblite --uhf 2 --ohess vtight --parallel 40 --molden --ceasefiles --namespace data2507/gas/Cbz-MI/Cbz-MI_gas_T1_preOpt
 * total energy  :  -164.1016812 Eh     change        0.6320619E-08 Eh
 * total energy  :  -164.1086493 Eh     change       -0.6968036E-02 Eh
 * total energy  :  -164.1114069 Eh     change       -0.2757665E-02 Eh
 * total energy  :  -164.1120496 Eh     change       -0.6426599E-03 Eh
 * total energy  :  -164.1127401 Eh     change       -0.6905366E-03 Eh
 * total energy  :  -164.1131296 Eh     change       -0.3894569E-03 Eh
 * total energy  :  -164.1133370 Eh     change       -0.2074159E-03 Eh
 * total energy  :  -164.1134264 Eh     change       -0.8936256E-04 Eh
 * total energy  :  -164.1135045 Eh     change       -0.7818541E-04 Eh
 * total energy  :  -164.1135902 Eh     change       -0.8568177E-04 Eh
 * total energy  :  -164.1146829 Eh     change       -0.1543549E-06 Eh
 * total energy  :  -164.1146831 Eh     change       -0.2199514E-06 Eh
 * total energy  :  -164.1146834 Eh     change       -0.2968358E-06 Eh
 * total energy  :  -164.1146836 Eh     change       -0.2196472E-06 Eh
 * total energy  :  -164.1146841 Eh     change       -0.4881165E-06 Eh
 * total energy  :  -164.1146846 Eh     change       -0.4454429E-06 Eh
 * total energy  :  -164.1146851 Eh     change       -0.5281878E-06 Eh
 * total energy  :  -164.1146851 Eh     change        0.1886494E-07 Eh
 * total energy  :  -164.1146851 Eh     change       -0.2176043E-07 Eh
   *** GEOMETRY OPTIMIZATION CONVERGED AFTER 95 ITERATIONS ***

 final structure:
================
108
 xtb: 6.7.1 (edcfbbe)
C           -1.24823026679458       -5.03812163305759       -3.21252555380486
C           -0.58066014434220       -6.37906494256160       -2.93070870136925
C           -1.51070036648405       -7.30963482388010       -2.15599772761857
C           -0.91043404587556       -8.68361495056741       -1.85413721677970
C            0.36981775578971       -8.68742281262988       -1.01621939662919
C            0.22022960805832       -8.10442550595435        0.39247884167960
N            0.22707662555952       -6.66234356905763        0.41287289433731
C            1.30937970220049       -5.89092708176024        0.01515690955038
O            2.36983890746639       -6.35857424822623       -0.36517849677323
C            0.91129637305746       -4.50197338149286        0.21846232635057
C            1.82642075135938       -3.42474662877061        0.26785468035231
C            1.54254839480753       -2.23850985438280        0.98808118141736
C            2.42320123730453       -1.18934721354585        0.99596642925847
C            3.64712560747456       -1.25963567782655        0.31323852371717
C            4.57801813717265       -0.13794709144254        0.32446512152884
C            5.96064451748240       -0.34740422928135        0.32821344821941
C            6.84132264741096        0.71195513568875        0.33686434055439
C            6.36450907284488        2.02229353077950        0.33423684283366
N            7.25451425470335        3.09943054223288        0.33629265126707
C            7.20587966021435        4.18997830292664       -0.51143225351373
C            6.34199574966012        4.45339137193749       -1.56495875782949
C            6.53531094290972        5.61922845188482       -2.28174518532561
C            7.56684420118542        6.50176493164197       -1.97092285399800
C            8.44709105276976        6.23097609609434       -0.94135916161580
C            8.27265613299619        5.06632891140638       -0.20707688825570
C            8.99255024031974        4.47014477603131        0.88472575552474
C           10.10208460265989        4.86047320402109        1.62135712777573
C           10.53313765235257        4.04520655965194        2.64978236094526
C            9.86162915342705        2.86440082714573        2.95700743044472
C            8.75443432726193        2.45531455650565        2.23791898194466
C            8.33360474219233        3.25615583853128        1.18570580091221
C            4.98814394747235        2.24499028697322        0.32898639336020
C            4.11305285052168        1.18091107878464        0.32863572911819
C            3.95364619924962       -2.45158318797859       -0.36271439808572
C            3.07978684284144       -3.50595148090428       -0.38223517189515
C           -0.47396396232677       -4.50906693089979        0.60446156486476
C           -1.42058306261391       -3.46452303580712        0.48612976440202
C           -1.16691737229181       -2.31517250855024       -0.30248036202237
C           -2.08563654239102       -1.30314422787257       -0.39072239264856
C           -3.31830112469717       -1.37657391198397        0.27598356114654
C           -4.28945422204730       -0.29507007451844        0.17879563001331
C           -5.66363496793823       -0.55638178150741        0.17151778097176
C           -6.58267140957776        0.46526806764137        0.07918711091504
C           -6.15594710204365        1.79092139148121        0.00369414594345
N           -7.08551021894852        2.82962119965878       -0.08112351550027
C           -7.05171271179096        3.87397324679669       -0.98599182068524
C           -6.16564743943321        4.11456536829135       -2.02643734740783
C           -6.38062997320463        5.23150565353703       -2.81176067193715
C           -7.45476469984597        6.08727563340815       -2.58103619463318
C           -8.35651955527129        5.83704633173077       -1.56492909461218
C           -8.16070259804645        4.72178047250471       -0.76261459697441
C           -8.89189803632545        4.15698907266446        0.33836898790502
C          -10.03854175460172        4.54212399641311        1.01871882321775
C          -10.47070410634353        3.76744832648039        2.07762816822919
C           -9.76430481399487        2.63326881085217        2.47013103988992
C           -8.61966479630497        2.23048323487882        1.80828004578923
C           -8.19676502839043        2.98861697430555        0.72575128765429
C           -4.78868393248608        2.06545930108829        0.01424243729908
C           -3.87463895669624        1.03810787832144        0.09302745452096
C           -3.59262707772311       -2.53456132330710        1.02152017545329
C           -2.68168261776964       -3.55225134468262        1.12055641999786
C           -0.84530165932114       -5.89758424463612        0.85308881330292
O           -1.87459283073304       -6.37483186913326        1.29923845873015
H           -2.14137007406052       -5.17435992480740       -3.81918446726024
H           -0.56931899877543       -4.37481151436060       -3.74430482530658
H           -1.54084636520476       -4.55494405292308       -2.28186558707737
H           -0.29942941156880       -6.85290720060007       -3.87462032172501
H            0.33496054285783       -6.20342909056691       -2.36473425908959
H           -2.41820785545679       -7.46246965560942       -2.74740274138515
H           -1.81824621372137       -6.82961371018515       -1.22747767998670
H           -1.66700708482304       -9.27799594998894       -1.33505171300281
H           -0.68965330723560       -9.18520699213586       -2.80053645739655
H            1.16719680743203       -8.15260774693544       -1.53170932912139
H            0.69355624063728       -9.72491164802225       -0.90630080670879
H           -0.72040182312570       -8.41931348066207        0.85191040265824
H            1.05700441511793       -8.45289527893822        1.00815128264623
H            0.63206834209730       -2.17842451262174        1.56427852308437
H            2.19033501013647       -0.30772910577480        1.57541471356357
H            6.34705518206259       -1.35518698208731        0.34436218383481
H            7.90625398153629        0.53419594813504        0.32525661441421
H            5.55222904353373        3.76632134213654       -1.82839386484516
H            5.87388417875222        5.84820288988819       -3.10413675552094
H            7.68292286980685        7.40383728143061       -2.55276283466327
H            9.25832278921641        6.90527225530914       -0.71252061660710
H           10.61102864253308        5.78507642436835        1.39496757286939
H           11.39616779725813        4.32869406784551        3.23333926365751
H           10.21084305542014        2.25624686072889        3.77817612952228
H            8.22953361752864        1.54879047239882        2.49834031502098
H            4.61384045344743        3.25776360607741        0.34456547728068
H            3.05044130866840        1.37148458360028        0.31049672240821
H            4.88461944737484       -2.52722638510664       -0.90475925825408
H            3.32930677649958       -4.41205385570961       -0.90996580361292
H           -0.24990923061871       -2.25762526435849       -0.86832031689826
H           -1.87499150184751       -0.45174678651357       -1.02146533672353
H           -6.01156890518402       -1.57775156441218        0.19876624931482
H           -7.63883292723024        0.24482745906706        0.03826842679879
H           -5.34262056412269        3.44616838094351       -2.22877971719362
H           -5.70263096198455        5.44210854271963       -3.62551546922940
H           -7.58699140347625        6.95116618801788       -3.21502758785733
H           -9.20027372664772        6.48925769979869       -1.39811754954931
H          -10.57495318853323        5.43199171928675        0.72623725890432
H          -11.36215577671832        4.04751059118591        2.61854502557821
H          -10.11572391424774        2.05744917585762        3.31336281579368
H           -8.06846029480183        1.36196348579024        2.13513488488600
H           -4.45341137472523        3.09153649054971       -0.01268370356202
H           -2.82105448845250        1.27102601822292        0.12971840696217
H           -4.52979427303505       -2.61152698895347        1.55249903913240
H           -2.90694544127398       -4.43306107841313        1.69966314023942

 projected vibrational frequencies (cm⁻¹)
eigval :       -0.00    -0.00     0.00     0.00     0.00     0.00
eigval :        5.28     9.03     9.81    12.49    13.41    17.76
eigval :       22.16    28.18    34.31    37.96    50.87    52.88
eigval :       60.87    63.46    72.04    79.52    82.39    86.69
eigval :       90.41    97.64   103.40   104.34   112.66   115.47
eigval :      123.24   124.22   139.48   145.77   146.27   151.86
eigval :      160.02   181.98   208.11   211.81   216.09   224.93
eigval :      231.83   239.44   240.48   251.62   254.53   271.20
eigval :      271.69   273.80   286.73   303.14   307.95   316.26
eigval :      332.23   338.33   347.67   365.43   371.29   374.29
eigval :      378.47   383.92   387.01   390.68   393.23   396.90
eigval :      406.77   418.24   420.15   421.83   432.22   434.83
eigval :      435.83   445.20   448.15   467.95   488.23   491.09
eigval :      501.78   515.64   517.43   518.74   528.86   530.14
eigval :      537.98   539.17   540.03   540.08   576.16   581.81
eigval :      581.94   591.50   594.94   596.57   602.24   608.71
eigval :      615.92   617.61   631.95   658.29   671.35   674.06
eigval :      674.35   676.68   684.34   687.66   695.02   700.34
eigval :      705.20   709.39   709.87   730.02   751.71   753.96
eigval :      762.14   766.12   769.79   769.86   770.47   780.53
eigval :      780.59   807.20   808.87   817.91   832.53   833.01
eigval :      840.42   842.46   844.33   863.07   864.74   865.88
eigval :      873.43   873.78   873.83   877.39   879.04   897.42
eigval :      897.75   903.17   903.23   903.60   903.73   914.65
eigval :      916.83   918.00   920.39   920.49   920.94   921.44
eigval :      921.89   923.86   925.17   928.29   928.68   928.99
eigval :      930.66   935.50   935.66   945.82   978.55   980.70
eigval :     1009.33  1012.12  1012.20  1013.10  1014.68  1036.13
eigval :     1067.96  1069.15  1070.69  1070.78  1071.78  1074.35
eigval :     1074.48  1086.06  1091.00  1113.07  1117.68  1117.89
eigval :     1128.10  1136.27  1137.45  1148.66  1150.50  1150.70
eigval :     1152.31  1154.63  1157.64  1176.36  1176.45  1180.53
eigval :     1180.55  1182.67  1183.16  1184.01  1196.55  1204.20
eigval :     1206.08  1210.96  1223.89  1229.31  1234.79  1234.91
eigval :     1243.91  1244.10  1265.16  1266.12  1266.46  1273.40
eigval :     1274.75  1275.78  1285.69  1292.92  1293.45  1296.60
eigval :     1296.76  1300.46  1300.95  1310.23  1314.93  1315.35
eigval :     1317.84  1323.93  1324.31  1332.29  1349.71  1356.43
eigval :     1357.39  1357.51  1357.73  1361.43  1363.89  1366.82
eigval :     1367.30  1375.78  1407.68  1408.65  1409.74  1416.20
eigval :     1423.17  1423.54  1424.22  1424.61  1424.92  1428.80
eigval :     1431.18  1459.84  1467.27  1471.55  1471.59  1482.32
eigval :     1486.46  1486.59  1488.16  1488.66  1490.37  1496.89
eigval :     1498.57  1499.71  1505.54  1506.19  1511.05  1545.47
eigval :     1545.83  1547.58  1555.08  1573.84  1573.94  1587.30
eigval :     1587.37  1592.07  1592.79  1594.04  1594.07  1610.36
eigval :     1610.64  1689.15  1696.25  2930.57  2954.21  2955.58
eigval :     2965.97  2969.19  2973.07  2979.27  3001.30  3019.44
eigval :     3022.55  3026.05  3030.36  3032.83  3076.26  3077.00
eigval :     3078.99  3079.16  3079.66  3079.85  3083.33  3083.71
eigval :     3083.84  3084.19  3084.60  3084.94  3085.44  3085.75
eigval :     3088.09  3088.44  3091.01  3091.35  3092.77  3093.10
eigval :     3095.30  3095.83  3096.47  3097.32  3097.51  3098.37
eigval :     3098.59  3098.90  3099.46  3100.09  3118.82  3119.28

   temp. (K)  partition function   enthalpy   heat capacity  entropy
                                   cal/mol     cal/K/mol   cal/K/mol   J/K/mol
 298.15  VIB  0.845E+26            31285.888    193.819    198.134
         ROT  0.374E+09              888.752      2.981     42.210
         INT  0.316E+35            32174.641    196.800    240.344
         TR   0.226E+29             1481.254      4.968     45.955
         TOT                       33655.8945   201.7680   286.2984  1197.8723

       T/K    H(0)-H(T)+PV         H(T)/Eh          T*S/Eh         G(T)/Eh
   ------------------------------------------------------------------------
    298.15    0.536341E-01    0.903480E+00    0.136030E+00    0.767450E+00
   ------------------------------------------------------------------------

         :::::::::::::::::::::::::::::::::::::::::::::::::::::
         ::                  THERMODYNAMIC                  ::
         :::::::::::::::::::::::::::::::::::::::::::::::::::::
         :: total free energy        -163.347234739965 Eh   ::
         ::.................................................::
         :: total energy             -164.114685094936 Eh   ::
         :: zero point energy           0.849845857782 Eh   ::
         :: G(RRHO) w/o ZPVE           -0.082395502811 Eh   ::
         :: G(RRHO) contrib.            0.767450354971 Eh   ::
         :::::::::::::::::::::::::::::::::::::::::::::::::::::

           -------------------------------------------------
          | TOTAL ENERGY             -164.114685094936 Eh   |
          | TOTAL ENTHALPY           -163.211205155275 Eh   |
          | TOTAL FREE ENERGY        -163.347234739965 Eh   |
          | GRADIENT NORM               0.000111731452 Eh/α |
           -------------------------------------------------

 * finished run on 2025/08/25 at 10:01:40.911
