   * xtb version 6.7.1 (edcfbbe) compiled by 'albert@albert-system' on 2024-07-22

   ID    Z sym.   atoms
    1    6 C      1-6, 8, 10-18, 20-44, 46-62
    2    7 N      7, 19, 45
    3    8 O      9, 63
    4    1 H      64-108

          program call               : xtb data2507/gas/Cbz-MI/Cbz-MI_gas_T1_crest.xyz --gfn 2 --spinpol --tblite --uhf 2 --ohess vtight --parallel 40 --molden --ceasefiles --namespace data2507/gas/Cbz-MI/Cbz-MI_gas_T1_finalOpt
 * total energy  :  -164.1146442 Eh     change       -0.4708357E-07 Eh
 * total energy  :  -164.1146660 Eh     change       -0.2180010E-04 Eh
 * total energy  :  -164.1146751 Eh     change       -0.9152500E-05 Eh
 * total energy  :  -164.1146784 Eh     change       -0.3283015E-05 Eh
 * total energy  :  -164.1146833 Eh     change       -0.4932093E-05 Eh
 * total energy  :  -164.1146867 Eh     change       -0.3379145E-05 Eh
 * total energy  :  -164.1146897 Eh     change       -0.3009846E-05 Eh
 * total energy  :  -164.1146938 Eh     change       -0.4076641E-05 Eh
 * total energy  :  -164.1146993 Eh     change       -0.5503941E-05 Eh
 * total energy  :  -164.1147049 Eh     change       -0.5567997E-05 Eh
 * total energy  :  -164.1147443 Eh     change       -0.2376855E-06 Eh
 * total energy  :  -164.1147445 Eh     change       -0.1955555E-06 Eh
 * total energy  :  -164.1147448 Eh     change       -0.2944927E-06 Eh
 * total energy  :  -164.1147449 Eh     change       -0.1159318E-06 Eh
 * total energy  :  -164.1147453 Eh     change       -0.3445661E-06 Eh
 * total energy  :  -164.1147454 Eh     change       -0.1330431E-06 Eh
 * total energy  :  -164.1147451 Eh     change        0.2973218E-06 Eh
 * total energy  :  -164.1147453 Eh     change       -0.2265812E-06 Eh
 * total energy  :  -164.1147454 Eh     change       -0.6328469E-07 Eh
   *** GEOMETRY OPTIMIZATION CONVERGED AFTER 58 ITERATIONS ***

 final structure:
================
108
 xtb: 6.7.1 (edcfbbe)
C           -1.67371908331234       -5.13503727352092       -2.87520880009906
C           -1.02647841363989       -6.47388342703989       -2.54084135177004
C           -1.94422595855217       -7.33174366222535       -1.67313485039854
C           -1.36597326948074       -8.70183306072781       -1.31595442813927
C           -0.04987508231235       -8.69207742338761       -0.53567885204550
C           -0.12048270674786       -8.01971965603212        0.83902318915241
N           -0.06449445490937       -6.58014269155978        0.76960697649697
C            1.02835225049546       -5.87463892186511        0.28798049701969
O            2.05516835291002       -6.40370792253050       -0.10416465155901
C            0.68909024880090       -4.46195842799092        0.42515152116563
C            1.64788241310035       -3.42243431566058        0.39585322872989
C            1.43032827778028       -2.18959042730153        1.05824623079451
C            2.36364807088912       -1.18793287777058        1.00964313010953
C            3.56455866262824       -1.34375051425637        0.30121421875868
C            4.55464982005191       -0.27603070873740        0.24798996250259
C            5.34393979847023       -0.08412596263749       -0.89101904427721
C            6.28179498764318        0.92298681268213       -0.94707349194947
C            6.47270152927469        1.76801792346203        0.14584209834244
N            7.43040427727463        2.78322787542786        0.09653965062529
C            7.22994467098334        4.10337465834343        0.45361987694503
C            6.07041803793485        4.74006514739587        0.87264494931106
C            6.13826258324668        6.09470327443710        1.13886618011106
C            7.32428455856580        6.80797631077089        0.98416708656317
C            8.47463262844718        6.18532799809437        0.54006502163666
C            8.43097096629928        4.82539166482854        0.26701886743231
C            9.40200163389419        3.88461597831477       -0.22067129340211
C           10.74316687678104        3.98936225923952       -0.56178534653097
C           11.40932266296388        2.85425982018269       -0.98123036269407
C           10.75871759466262        1.62456656004446       -1.04473779187389
C            9.42397632223032        1.49567945982389       -0.70961132319867
C            8.74218164160737        2.63799617120844       -0.31498742857062
C            5.69577776104706        1.58451973140604        1.28935838911631
C            4.75037689562415        0.58378563271429        1.33379218050035
C            3.79725221376262       -2.57487881342828       -0.33281727080882
C            2.88244517398703       -3.59219689671035       -0.27283965770446
C           -0.68224008040410       -4.39478030528119        0.85361428846773
C           -1.59743337142078       -3.32767858881952        0.69486448352945
C           -1.32783311851629       -2.23880478162249       -0.17029079846507
C           -2.21689062325138       -1.20523497838553       -0.30201711448466
C           -3.43433868209235       -1.19686565988477        0.39592924794271
C           -4.37521375917835       -0.09412709834439        0.25006647177620
C           -5.75617936057458       -0.31317592211053        0.28963004945325
C           -6.64699394256960        0.72795751922917        0.15012264242317
C           -6.18365787177481        2.03213136836101       -0.02159459618253
N           -7.08443958928865        3.09101908942188       -0.15499144165570
C           -7.04192269193450        4.07189136328394       -1.12793099069832
C           -6.17456885906125        4.21588993358293       -2.20147402797853
C           -6.37582890692311        5.28452706390255       -3.05469536248621
C           -7.41864304791986        6.18630050930406       -2.85784801635172
C           -8.30240530705604        6.03168752397375       -1.80747952564650
C           -8.11992942754343        4.96634018331174       -0.93705437875756
C           -8.84057868228935        4.49812233894672        0.21497786896542
C           -9.95886629551791        4.96223560978687        0.89324348678125
C          -10.38810655938564        4.27246668132011        2.01043861832052
C           -9.70609127101044        3.14522573189707        2.46170615214815
C           -8.58985778570012        2.66481562707297        1.80315907772652
C           -8.17079982054498        3.33691622185575        0.66377819747301
C           -4.80911976046411        2.26480986095356       -0.05825938662020
C           -3.92370830729603        1.21727745758663        0.06824657119301
C           -3.72462081110342       -2.29494783131325        1.22148710507366
C           -2.84315688371295       -3.33330177050124        1.36442972149093
C           -1.09249161917450       -5.75117131993151        1.19951484542845
O           -2.12031913851003       -6.16247725811001        1.70996652240096
H           -2.59613795087136       -5.28388690137976       -3.43312257921374
H           -1.00383495674474       -4.52309882758466       -3.47559471219310
H           -1.91271479760413       -4.58900024197215       -1.96421324913592
H           -0.79772037161482       -7.01026767274452       -3.46528055866893
H           -0.08329313184972       -6.28911277836515       -2.02516852813980
H           -2.88048856189404       -7.49371096881461       -2.21518873329436
H           -2.19830137846747       -6.79015859271851       -0.76254878672948
H           -2.11319078081896       -9.24314594908599       -0.72961595926784
H           -1.20089448628361       -9.26441926978165       -2.23913173211931
H            0.73750766988916       -8.21347676139953       -1.11753226005309
H            0.25071457576628       -9.72998364963090       -0.37556851284487
H           -1.05074753914221       -8.27241634130271        1.35447022043643
H            0.72956108340936       -8.35954600415138        1.44116180166180
H            0.52548990587861       -2.05160991493397        1.62972654587900
H            2.16134286084828       -0.25260293218369        1.51104081468631
H            5.19030804061520       -0.71055463499264       -1.75665832378895
H            6.85802762760572        1.08057988861456       -1.84650870273697
H            5.14040602478587        4.20190080333353        0.97552129427874
H            5.25002761235378        6.61197306336948        1.47012952925558
H            7.33734739327834        7.86470518109633        1.20529360487307
H            9.38922698743103        6.74167358497980        0.40176312283721
H           11.25210459374600        4.93884434613954       -0.49380257132588
H           12.45225369856248        2.91427462044646       -1.25400342940219
H           11.31008740789175        0.75063603881507       -1.35830620752071
H            8.93610960032759        0.53341477397451       -0.74141894084990
H            5.86112963284266        2.21538761720061        2.14992078418044
H            4.18144494556394        0.43654562423359        2.23932931160827
H            4.73305611943643       -2.73517336756885       -0.84760118180681
H            3.08873398010417       -4.54072376457146       -0.74169478939353
H           -0.42301946213998       -2.24606438853274       -0.75826876167846
H           -1.99548313300031       -0.40225205597398       -0.98993897368377
H           -6.13294952152653       -1.31951748360873        0.39137384363692
H           -7.70981988512278        0.53779618629238        0.14649950512563
H           -5.37641067430981        3.51069917574510       -2.37678376289656
H           -5.71187627725426        5.41992620916605       -3.89556863010424
H           -7.54092019794143        7.01000846244084       -3.54508806703084
H           -9.12243727404056        6.71917500841628       -1.66586161583264
H          -10.47585236460452        5.84704689611219        0.55413323679952
H          -11.25782293815113        4.61473982439209        2.55096249971680
H          -10.05410979040549        2.63700847440957        3.34867910766810
H           -8.05676671828773        1.80294273735892        2.17463154673053
H           -4.44475880916159        3.27617886453224       -0.16002346239730
H           -2.86319173411662        1.41969598340651        0.06674946028569
H           -4.64976748979034       -2.30750264569533        1.77837423159683
H           -3.08057931058328       -4.16761326544232        2.00436272915101

 projected vibrational frequencies (cm⁻¹)
eigval :       -0.00    -0.00    -0.00    -0.00     0.00     0.00
eigval :        4.54     6.60    10.28    12.32    13.33    18.30
eigval :       22.83    26.06    32.27    38.25    49.87    52.54
eigval :       60.86    64.94    71.35    78.22    85.43    87.87
eigval :       91.29    96.25   103.22   106.06   108.91   114.34
eigval :      121.97   126.77   138.65   144.98   146.31   148.95
eigval :      168.60   178.48   209.99   210.83   216.86   221.35
eigval :      228.28   237.80   247.74   251.48   254.66   270.02
eigval :      271.32   271.99   291.42   303.83   306.09   315.19
eigval :      329.21   339.32   345.23   363.48   369.85   378.29
eigval :      385.00   386.27   388.11   390.68   393.54   401.86
eigval :      409.72   414.02   417.89   420.19   422.06   434.74
eigval :      436.00   445.00   453.70   468.57   488.35   492.45
eigval :      501.33   515.78   517.28   518.98   528.78   530.19
eigval :      538.89   539.09   540.06   540.12   576.32   581.91
eigval :      581.96   594.05   595.10   595.62   600.35   608.84
eigval :      615.93   616.16   631.93   657.91   670.93   674.01
eigval :      674.61   677.83   684.18   688.29   694.55   699.73
eigval :      704.95   709.43   709.91   729.73   751.52   753.74
eigval :      762.10   766.01   769.78   769.88   770.83   780.52
eigval :      780.62   807.51   809.19   817.45   831.90   832.80
eigval :      840.46   842.17   844.90   862.55   863.73   866.17
eigval :      872.87   873.67   873.84   877.51   879.70   897.74
eigval :      897.79   903.12   903.22   903.55   903.67   914.57
eigval :      916.43   917.98   920.24   920.49   920.75   921.60
eigval :      922.48   924.09   924.76   928.14   928.61   928.90
eigval :      930.27   935.23   935.68   945.81   978.74   980.99
eigval :     1008.93  1012.18  1012.23  1013.26  1014.55  1035.95
eigval :     1067.96  1069.18  1070.65  1070.74  1071.92  1074.45
eigval :     1074.63  1086.06  1090.96  1112.18  1117.68  1118.08
eigval :     1127.96  1136.36  1137.65  1148.66  1150.23  1150.59
eigval :     1152.20  1154.48  1157.47  1176.29  1176.53  1180.36
eigval :     1180.43  1182.95  1183.33  1183.98  1196.28  1204.41
eigval :     1206.14  1210.48  1223.40  1229.14  1234.77  1234.82
eigval :     1243.63  1244.44  1265.12  1266.12  1266.49  1273.23
eigval :     1274.80  1275.81  1285.14  1293.11  1293.20  1296.30
eigval :     1296.61  1300.63  1301.35  1309.51  1314.82  1315.05
eigval :     1317.46  1323.84  1324.21  1331.81  1349.20  1356.25
eigval :     1357.41  1357.57  1357.73  1360.84  1363.66  1366.46
eigval :     1367.01  1375.27  1408.18  1408.73  1410.11  1416.46
eigval :     1423.11  1423.48  1424.10  1424.57  1424.78  1428.61
eigval :     1430.52  1459.47  1464.95  1471.49  1471.54  1481.68
eigval :     1486.21  1486.55  1487.77  1489.21  1490.93  1497.00
eigval :     1498.63  1499.71  1505.01  1505.55  1510.48  1545.42
eigval :     1545.67  1546.15  1555.23  1573.79  1573.91  1587.21
eigval :     1587.31  1591.32  1591.86  1594.04  1594.08  1610.15
eigval :     1610.81  1688.00  1695.31  2931.05  2954.59  2955.79
eigval :     2966.33  2969.80  2973.59  2980.20  3000.82  3018.77
eigval :     3023.11  3026.24  3030.96  3033.47  3076.76  3077.25
eigval :     3079.21  3079.29  3079.90  3080.11  3082.70  3083.75
eigval :     3084.18  3084.21  3085.09  3085.53  3085.86  3086.04
eigval :     3087.58  3088.59  3091.25  3091.41  3093.11  3093.26
eigval :     3095.98  3096.60  3097.19  3097.46  3097.63  3097.72
eigval :     3098.77  3099.20  3099.93  3100.74  3117.47  3118.79

   temp. (K)  partition function   enthalpy   heat capacity  entropy
                                   cal/mol     cal/K/mol   cal/K/mol   J/K/mol
 298.15  VIB  0.139E+27            31293.070    193.772    198.559
         ROT  0.376E+09              888.752      2.981     42.220
         INT  0.525E+35            32181.822    196.753    240.779
         TR   0.226E+29             1481.254      4.968     45.955
         TOT                       33663.0762   201.7209   286.7338  1199.6942

       T/K    H(0)-H(T)+PV         H(T)/Eh          T*S/Eh         G(T)/Eh
   ------------------------------------------------------------------------
    298.15    0.536455E-01    0.903459E+00    0.136236E+00    0.767223E+00
   ------------------------------------------------------------------------

         :::::::::::::::::::::::::::::::::::::::::::::::::::::
         ::                  THERMODYNAMIC                  ::
         :::::::::::::::::::::::::::::::::::::::::::::::::::::
         :: total free energy        -163.347522922762 Eh   ::
         ::.................................................::
         :: total energy             -164.114745436243 Eh   ::
         :: zero point energy           0.849813471110 Eh   ::
         :: G(RRHO) w/o ZPVE           -0.082590957629 Eh   ::
         :: G(RRHO) contrib.            0.767222513481 Eh   ::
         :::::::::::::::::::::::::::::::::::::::::::::::::::::

           -------------------------------------------------
          | TOTAL ENERGY             -164.114745436243 Eh   |
          | TOTAL ENTHALPY           -163.211286438597 Eh   |
          | TOTAL FREE ENERGY        -163.347522922762 Eh   |
          | GRADIENT NORM               0.000088584011 Eh/α |
           -------------------------------------------------

 * finished run on 2025/08/25 at 10:59:30.396
