   * xtb version 6.7.1 (edcfbbe) compiled by 'albert@albert-system' on 2024-07-22

   ID    Z sym.   atoms
    1    6 C      1, 3-5, 7-11, 14-16, 18, 20-26, 28-30, 32-37, 39, 41-46
    2    8 O      2, 27
    3    7 N      6, 17, 19, 31, 38, 40
    4   34 Se     12, 13
    5    1 H      47-86

          program call               : xtb data2507/gas/IQ-Se/IQ-Se.xyz --gfn 2 --ohess vtight --parallel 40 --molden --ceasefiles --namespace data2507/gas/IQ-Se/IQ-Se_gas_S0_preOpt
          :  Hamiltonian                  GFN2-xTB          :
 * total energy  :  -129.4013663 Eh     change       -0.6106006E-08 Eh
 * total energy  :  -129.4706867 Eh     change       -0.6932042E-01 Eh
 * total energy  :  -129.4967296 Eh     change       -0.2604291E-01 Eh
 * total energy  :  -129.5063690 Eh     change       -0.9639409E-02 Eh
 * total energy  :  -129.5140821 Eh     change       -0.7713089E-02 Eh
 * total energy  :  -129.5206629 Eh     change       -0.6580771E-02 Eh
 * total energy  :  -129.5264226 Eh     change       -0.5759706E-02 Eh
 * total energy  :  -129.5306821 Eh     change       -0.4259509E-02 Eh
 * total energy  :  -129.5341305 Eh     change       -0.3448450E-02 Eh
 * total energy  :  -129.5367291 Eh     change       -0.2598512E-02 Eh
 * total energy  :  -129.5813346 Eh     change       -0.1219917E-05 Eh
 * total energy  :  -129.5813356 Eh     change       -0.1007307E-05 Eh
 * total energy  :  -129.5813365 Eh     change       -0.9407581E-06 Eh
 * total energy  :  -129.5813375 Eh     change       -0.9843938E-06 Eh
 * total energy  :  -129.5813386 Eh     change       -0.1096262E-05 Eh
 * total energy  :  -129.5813397 Eh     change       -0.1063084E-05 Eh
 * total energy  :  -129.5813406 Eh     change       -0.9809048E-06 Eh
 * total energy  :  -129.5813416 Eh     change       -0.9357335E-06 Eh
 * total energy  :  -129.5813416 Eh     change       -0.5652595E-08 Eh
   *** GEOMETRY OPTIMIZATION CONVERGED AFTER 300 ITERATIONS ***

 final structure:
================
86
 xtb: 6.7.1 (edcfbbe)
C            6.42414052603132        2.12109533411685        1.78725188331487
O            5.91825602831906        1.04876107159081        1.02824480681351
C            4.73568307501564        1.15289577400689        0.37831524351006
C            4.00725709362526        2.32823779792110        0.20268210280330
C            4.48635724920397        3.61230389610839        0.52760036718900
N            4.80921462798096        4.69759365260866        0.72718415459467
C            2.70197340818807        2.29012639856490       -0.36814457682936
C            1.96696469766198        3.57263767156175       -0.59608531040793
C            2.13396965867152        1.08476145285456       -0.65422634286088
C            2.83914252623435       -0.12356426252519       -0.49341260817553
C            2.22514925600207       -1.39118360090326       -0.63904428636647
Se           0.40249971331159       -1.55604960915885       -1.22915050064558
Se          -0.58939528775474       -1.64332208823978        0.91373288493111
C           -2.38088426700011       -1.22561850681679        0.35531831205275
C           -3.20510121481738       -2.23055876097317       -0.12619711372088
C           -2.71695353032480       -3.61725579517375       -0.38918804699611
N           -4.49839738368066       -2.01590424744887       -0.33356269963140
C           -5.04347341147741       -0.82095396058800       -0.16039002444944
N           -6.39765722914577       -0.76598136630431       -0.11156666758774
C           -7.16651780113830       -1.91932158365072       -0.55724844385762
C           -8.25870023541683       -2.28759023360478        0.43849955480082
C           -9.26672794639613       -1.14141108108016        0.57623728649890
C           -8.56303746093839        0.20948591722715        0.39586737284851
C           -7.10076428228987        0.10683781365641        0.81030949750012
C           -4.20104672677425        0.34078309247973       -0.04743218682801
C           -4.58529329710906        1.65493257449813       -0.42765633937192
O           -5.77078966520974        1.73301496872621       -1.07907673465544
C           -6.18380587156352        2.92073303063211       -1.71092938567008
C           -3.72892484449468        2.72318967730520       -0.16750694621018
C           -4.04535816627708        4.07323647032785       -0.41403264697860
N           -4.22702615283883        5.20050834455203       -0.54968664212584
C           -2.44504835682174        2.49379339526724        0.40719744767445
C           -1.57327637015214        3.66286991415890        0.73934761221078
C           -2.02076733390708        1.21312164631205        0.59985979892322
C           -2.85353704093016        0.10890575400890        0.33514102417655
C            2.93777531835889       -2.52463546289797       -0.28038148554597
C            2.30704464663180       -3.87294605419650       -0.16460322764448
N            4.24799598766901       -2.47015424572130       -0.07208089937794
C            4.91072757841511       -1.32585167711522       -0.10450284252146
N            6.26514788101075       -1.41585952650477       -0.13037299800351
C            6.87490754914074       -2.71452323032421        0.07396944909430
C            8.22138431799228       -2.53691169883102        0.77106863418436
C            9.13421899997869       -1.64194762093524       -0.06067866321379
C            8.43625137050417       -0.30927830369536       -0.31140058537730
C            7.07917491818139       -0.55558121295991       -0.96348685836004
C            4.20176690852590       -0.07583460730894       -0.09662915615206
H            5.66329042416608        2.54461458208011        2.44784074429346
H            7.22544621988566        1.69625881888680        2.39211113848507
H            6.83168943054782        2.91176570350822        1.15208580057343
H            2.53754319447195        4.22322151979221       -1.25850060172452
H            1.82752217423048        4.11167488445540        0.34103891343332
H            0.99560385000853        3.37977096064608       -1.04333901148254
H            1.11325665601578        1.04057195590016       -1.00723002329183
H           -2.30831387257299       -4.05216879557127        0.52236029043184
H           -3.53641694655193       -4.23083951374370       -0.75024657023093
H           -1.92228729552654       -3.59580132967770       -1.13607138544368
H           -6.47529858667781       -2.75015402376873       -0.69850146421988
H           -7.62252663353711       -1.67426219015406       -1.52467669369329
H           -7.79794749234596       -2.50708363093398        1.40289809219978
H           -8.76023389792998       -3.19518247415700        0.10176437899986
H           -9.74026182166916       -1.19117441936036        1.55798339792292
H          -10.05359418062661       -1.24364985657728       -0.17230886650488
H           -9.05682164528781        0.97898649907072        0.98986315560259
H           -8.59840629779752        0.52146658006743       -0.64839556460013
H           -6.64573522685846        1.09293604381887        0.82830630475727
H           -7.03746183582130       -0.30384169786048        1.82950128048932
H           -7.06033884808116        2.64303237795669       -2.29586683949703
H           -5.41295300393531        3.31365259929745       -2.37873069077522
H           -6.46222093699829        3.69132767308182       -0.98752214187390
H           -1.37050918057662        4.26091623369210       -0.14905360787335
H           -0.63161317587747        3.32620249553601        1.16455744266173
H           -2.07165828014670        4.31403369404271        1.45724656622720
H           -1.01611871590937        1.02570618209567        0.95200056096505
H            1.52821241164392       -3.85446824465923        0.59904269481131
H            1.84289166492580       -4.15451773797997       -1.10924599920799
H            3.06109217873480       -4.60610616125406        0.10400677979262
H            7.01658862241902       -3.22464341866070       -0.88906499086856
H            6.19738300608709       -3.31443900841639        0.68040783291046
H            8.05653046436623       -2.07920898934266        1.74796015363495
H            8.67955485054930       -3.51503372421349        0.92367699085982
H            9.35069719079759       -2.12739960041041       -1.01547824877222
H           10.08148723775451       -1.48098871609991        0.45665565552281
H            8.28636996999655        0.20767292042452        0.63551410931728
H            9.04005167631632        0.32568517516860       -0.96155651227245
H            7.23744319296948       -1.05857697485717       -1.93162233794897
H            6.56354199881694        0.38245869628270       -1.15856494677304

          :  Hamiltonian                  GFN2-xTB          :
         :: gradient norm              0.000167343661 Eh/a0 ::
         :: HOMO-LUMO gap              1.828254710263 eV    ::
         :: SCC energy              -131.487353993190 Eh    ::
         :: -> dispersion             -0.116926962833 Eh    ::
         :: repulsion energy           1.906012408761 Eh    ::

    * Orbital Energies and Occupations

         #    Occupation            Energy/Eh            Energy/eV
      -------------------------------------------------------------
         1        2.0000           -0.7403307             -20.1454
       ...           ...                  ...                  ...
       107        2.0000           -0.4140324             -11.2664
       108        2.0000           -0.4137587             -11.2589
       109        2.0000           -0.4095907             -11.1455
       110        2.0000           -0.4086061             -11.1187
       111        2.0000           -0.4080121             -11.1026
       112        2.0000           -0.3906587             -10.6304
       113        2.0000           -0.3897171             -10.6047
       114        2.0000           -0.3837131             -10.4414
       115        2.0000           -0.3722505             -10.1295
       116        2.0000           -0.3662715              -9.9668
       117        2.0000           -0.3622582              -9.8575
       118        2.0000           -0.3536327              -9.6228
       119        2.0000           -0.3394508              -9.2369 (HOMO)
       120                         -0.2722636              -7.4087 (LUMO)
       121                         -0.2673294              -7.2744
       122                         -0.2602083              -7.0806
       123                         -0.2541852              -6.9167
       124                         -0.2460139              -6.6944
       125                         -0.2119529              -5.7675
       126                         -0.2068795              -5.6295
       127                         -0.2000965              -5.4449
       128                         -0.1999856              -5.4419
       129                         -0.1862028              -5.0668
       130                         -0.1859511              -5.0600
       ...                                ...                  ...
       234                          1.1648807              31.6980
      -------------------------------------------------------------
                  HL-Gap            0.0671872 Eh            1.8283 eV

     #   Z          covCN         q      C6AA      α(0)
     1   6 C        3.639     0.039    20.268     6.475
     2   8 O        1.706    -0.255    18.227     5.764
     3   6 C        2.855     0.148    24.779     8.159
     4   6 C        2.970    -0.041    29.006     8.834
     5   6 C        1.914     0.112    28.327     8.595
     6   7 N        0.911    -0.274    27.078     7.526
     7   6 C        2.977     0.023    27.488     8.600
     8   6 C        3.758    -0.106    22.576     6.774
     9   6 C        2.922    -0.055    29.371     8.887
    10   6 C        3.012     0.020    27.537     8.608
    11   6 C        2.961    -0.010    28.271     8.721
    12  34 Se       1.999    -0.178   241.758    27.093
    13  34 Se       1.999    -0.177   241.727    27.091
    14   6 C        2.961    -0.011    28.287     8.724
    15   6 C        2.967     0.106    25.659     8.309
    16   6 C        3.761    -0.110    22.656     6.785
    17   7 N        1.858    -0.284    28.217     7.873
    18   6 C        2.878     0.152    24.699     8.147
    19   7 N        2.747    -0.072    22.635     7.066
    20   6 C        3.755    -0.011    20.831     6.508
    21   6 C        3.804    -0.061    21.670     6.627
    22   6 C        3.804    -0.059    21.637     6.622
    23   6 C        3.806    -0.061    21.671     6.627
    24   6 C        3.751     0.005    20.562     6.467
    25   6 C        2.981    -0.050    29.229     8.868
    26   6 C        2.854     0.147    24.797     8.162
    27   8 O        1.706    -0.259    18.283     5.773
    28   6 C        3.638     0.039    20.281     6.478
    29   6 C        2.970    -0.040    29.001     8.833
    30   6 C        1.914     0.112    28.329     8.596
    31   7 N        0.911    -0.274    27.092     7.528
    32   6 C        2.977     0.023    27.490     8.600
    33   6 C        3.758    -0.106    22.573     6.774
    34   6 C        2.922    -0.055    29.367     8.887
    35   6 C        3.012     0.020    27.533     8.607
    36   6 C        2.967     0.106    25.660     8.309
    37   6 C        3.761    -0.111    22.662     6.786
    38   7 N        1.860    -0.283    28.179     7.868
    39   6 C        2.882     0.152    24.695     8.147
    40   7 N        2.750    -0.071    22.622     7.064
    41   6 C        3.764    -0.006    20.725     6.489
    42   6 C        3.808    -0.062    21.693     6.630
    43   6 C        3.807    -0.057    21.602     6.616
    44   6 C        3.807    -0.063    21.701     6.631
    45   6 C        3.758     0.008    20.496     6.455
    46   6 C        2.981    -0.049    29.215     8.866
    47   1 H        0.924     0.049     2.328     2.386
    48   1 H        0.925     0.063     2.165     2.301
    49   1 H        0.924     0.053     2.289     2.366
    50   1 H        0.925     0.054     2.271     2.357
    51   1 H        0.925     0.054     2.274     2.358
    52   1 H        0.925     0.049     2.336     2.390
    53   1 H        0.926     0.058     2.220     2.330
    54   1 H        0.925     0.066     2.133     2.284
    55   1 H        0.925     0.059     2.206     2.323
    56   1 H        0.924     0.067     2.122     2.278
    57   1 H        0.925     0.077     2.014     2.220
    58   1 H        0.924     0.047     2.353     2.399
    59   1 H        0.924     0.041     2.433     2.439
    60   1 H        0.924     0.041     2.434     2.440
    61   1 H        0.924     0.035     2.511     2.478
    62   1 H        0.924     0.037     2.493     2.469
    63   1 H        0.924     0.039     2.459     2.452
    64   1 H        0.924     0.048     2.348     2.396
    65   1 H        0.925     0.055     2.263     2.352
    66   1 H        0.923     0.036     2.508     2.477
    67   1 H        0.925     0.065     2.143     2.289
    68   1 H        0.924     0.050     2.317     2.380
    69   1 H        0.924     0.052     2.301     2.372
    70   1 H        0.925     0.054     2.274     2.358
    71   1 H        0.925     0.049     2.338     2.391
    72   1 H        0.925     0.054     2.276     2.359
    73   1 H        0.926     0.058     2.220     2.330
    74   1 H        0.924     0.067     2.118     2.276
    75   1 H        0.925     0.066     2.129     2.282
    76   1 H        0.925     0.060     2.196     2.317
    77   1 H        0.923     0.039     2.468     2.457
    78   1 H        0.925     0.071     2.076     2.253
    79   1 H        0.924     0.046     2.375     2.410
    80   1 H        0.924     0.040     2.448     2.447
    81   1 H        0.924     0.036     2.506     2.475
    82   1 H        0.924     0.036     2.504     2.474
    83   1 H        0.925     0.053     2.287     2.365
    84   1 H        0.924     0.038     2.481     2.463
    85   1 H        0.923     0.033     2.548     2.496
    86   1 H        0.925     0.047     2.357     2.401

molecular dipole:
                 x           y           z       tot (Debye)
 q only:       -0.208      -1.803       0.089
   full:       -0.221      -1.642       0.043       4.213

 projected vibrational frequencies (cm⁻¹)
eigval :       -0.00    -0.00    -0.00    -0.00     0.00     0.00
eigval :       -5.31     4.62    11.06    15.17    18.42    27.32
eigval :       35.93    40.78    46.84    51.38    55.76    60.40
eigval :       62.76    65.69    68.26    78.10    82.36   113.40
eigval :      116.43   120.22   129.32   138.28   143.98   149.81
eigval :      153.26   156.93   160.82   168.26   173.50   176.57
eigval :      188.73   200.38   206.52   211.50   216.59   220.31
eigval :      223.18   225.49   241.83   244.73   247.54   250.56
eigval :      254.73   257.97   258.62   263.15   269.23   269.76
eigval :      296.22   308.80   322.22   324.08   335.53   337.56
eigval :      345.91   361.82   372.45   384.49   396.27   406.29
eigval :      415.63   424.49   430.40   454.33   456.34   462.66
eigval :      475.82   476.58   515.60   517.68   520.73   536.76
eigval :      541.51   550.21   557.13   559.51   573.55   577.23
eigval :      594.51   595.03   603.61   606.04   627.86   645.65
eigval :      656.12   661.00   666.45   668.07   705.25   707.05
eigval :      722.88   723.86   802.35   833.06   834.37   845.59
eigval :      848.44   855.43   875.90   884.28   903.40   908.91
eigval :      937.72   939.33   957.45   962.32   972.68   976.06
eigval :      976.77   996.77   997.65   998.09  1000.97  1004.01
eigval :     1013.35  1013.96  1023.15  1024.78  1027.19  1028.63
eigval :     1039.52  1041.40  1080.88  1082.20  1099.11  1099.53
eigval :     1105.99  1111.14  1111.19  1120.41  1122.84  1134.15
eigval :     1136.91  1145.12  1150.34  1152.26  1152.58  1158.36
eigval :     1161.13  1175.48  1197.39  1201.72  1208.09  1221.21
eigval :     1223.51  1237.80  1240.43  1240.89  1245.07  1249.91
eigval :     1256.38  1262.06  1275.29  1278.81  1313.82  1317.31
eigval :     1319.00  1324.91  1333.05  1333.13  1337.92  1341.09
eigval :     1346.44  1347.60  1350.95  1351.58  1352.11  1353.90
eigval :     1378.77  1381.08  1394.78  1396.09  1403.91  1404.45
eigval :     1407.67  1409.92  1419.50  1420.07  1437.11  1439.00
eigval :     1454.36  1457.68  1458.44  1460.79  1462.38  1463.70
eigval :     1465.20  1465.90  1467.68  1469.93  1470.79  1471.61
eigval :     1474.08  1475.61  1478.56  1479.17  1480.38  1480.53
eigval :     1483.76  1485.17  1486.24  1495.86  1497.77  1506.98
eigval :     1508.27  1510.84  1524.53  1529.15  1592.94  1596.80
eigval :     2345.14  2346.54  2844.73  2860.91  2881.88  2902.93
eigval :     2963.39  2963.53  2966.87  2973.34  2973.38  2974.34
eigval :     2984.75  2985.50  2986.26  2987.35  2987.68  2992.75
eigval :     2995.24  2997.38  2998.20  3000.41  3001.72  3004.11
eigval :     3005.78  3006.03  3006.94  3009.20  3012.97  3016.55
eigval :     3018.77  3018.99  3019.48  3020.67  3026.06  3050.27
eigval :     3050.97  3051.15  3062.38  3063.31  3065.39  3066.52

   temp. (K)  partition function   enthalpy   heat capacity  entropy
                                   cal/mol     cal/K/mol   cal/K/mol   J/K/mol
 298.15  VIB  0.569E+24            28050.864    160.260    181.033
         ROT  0.945E+08              888.752      2.981     39.475
         INT  0.538E+32            28939.616    163.241    220.508
         TR   0.197E+29             1481.254      4.968     45.690
         TOT                       30420.8704   168.2094   266.1982  1113.7731

       T/K    H(0)-H(T)+PV         H(T)/Eh          T*S/Eh         G(T)/Eh
   ------------------------------------------------------------------------
    298.15    0.484787E-01    0.732441E+00    0.126479E+00    0.605962E+00
   ------------------------------------------------------------------------

         :::::::::::::::::::::::::::::::::::::::::::::::::::::
         ::                  THERMODYNAMIC                  ::
         :::::::::::::::::::::::::::::::::::::::::::::::::::::
         :: total free energy        -128.975380056686 Eh   ::
         ::.................................................::
         :: total energy             -129.581341584429 Eh   ::
         :: zero point energy           0.683962122141 Eh   ::
         :: G(RRHO) w/o ZPVE           -0.078000594398 Eh   ::
         :: G(RRHO) contrib.            0.605961527743 Eh   ::
         :::::::::::::::::::::::::::::::::::::::::::::::::::::

           -------------------------------------------------
          | TOTAL ENERGY             -129.581341584429 Eh   |
          | TOTAL ENTHALPY           -128.848900719510 Eh   |
          | TOTAL FREE ENERGY        -128.975380056686 Eh   |
          | GRADIENT NORM               0.000167230473 Eh/α |
          | HOMO-LUMO GAP               1.828255431619 eV   |
           -------------------------------------------------

 * finished run on 2025/08/30 at 17:40:25.056
