   * xtb version 6.7.1 (edcfbbe) compiled by 'albert@albert-system' on 2024-07-22

   ID    Z sym.   atoms
    1    6 C      1, 3-5, 7-11, 14-16, 18, 20-26, 28-30, 32-37, 39, 41-46
    2    8 O      2, 27
    3    7 N      6, 17, 19, 31, 38, 40
    4   34 Se     12, 13
    5    1 H      47-86

          program call               : xtb data2507/gas/IQ-Se/IQ-Se_gas_S0_finalOpt.xtbopt.xyz --gfn 2 --spinpol --tblite --uhf 2 --ohess vtight --parallel 40 --molden --ceasefiles --namespace data2507/gas/IQ-Se/IQ-Se_gas_T1_preOpt
 * total energy  :  -129.5263712 Eh     change       -0.3006136E-08 Eh
 * total energy  :  -129.5430929 Eh     change       -0.1672169E-01 Eh
 * total energy  :  -129.5441026 Eh     change       -0.1009741E-02 Eh
 * total energy  :  -129.5503386 Eh     change       -0.6235954E-02 Eh
 * total energy  :  -129.5467265 Eh     change        0.3612068E-02 Eh
 * total energy  :  -129.5542160 Eh     change       -0.7489431E-02 Eh
 * total energy  :  -129.5542608 Eh     change       -0.4488304E-04 Eh
 * total energy  :  -129.5548929 Eh     change       -0.6321004E-03 Eh
 * total energy  :  -129.5552553 Eh     change       -0.3623279E-03 Eh
 * total energy  :  -129.5560585 Eh     change       -0.8032830E-03 Eh
 * total energy  :  -129.5592346 Eh     change       -0.5653501E-06 Eh
 * total energy  :  -129.5592351 Eh     change       -0.5879471E-06 Eh
 * total energy  :  -129.5592356 Eh     change       -0.4423384E-06 Eh
 * total energy  :  -129.5592359 Eh     change       -0.3261922E-06 Eh
 * total energy  :  -129.5592361 Eh     change       -0.1715715E-06 Eh
 * total energy  :  -129.5592362 Eh     change       -0.1284053E-06 Eh
 * total energy  :  -129.5592364 Eh     change       -0.1799904E-06 Eh
 * total energy  :  -129.5592365 Eh     change       -0.1066591E-06 Eh
 * total energy  :  -129.5592366 Eh     change       -0.6994409E-07 Eh
   *** GEOMETRY OPTIMIZATION CONVERGED AFTER 65 ITERATIONS ***

 final structure:
================
86
 xtb: 6.7.1 (edcfbbe)
C            3.16952684256429        3.70402236868954       -0.47869505801048
O            3.18408708303601        2.30149797573799       -0.32349247636782
C            2.25271436369786        1.51234998005954       -0.89969858448600
C            1.13961081210795        1.95938305534833       -1.61086683865504
C            0.84870072835215        3.31124114199800       -1.86908993419552
N            0.49949891336629        4.37728581780757       -2.12428580396355
C            0.17264793241439        1.03810762825437       -2.10951536051568
C           -1.00343977281826        1.54310464441550       -2.88356550917273
C            0.31887226576751       -0.28823649749239       -1.83586595598472
C            1.41001039463472       -0.77967268266306       -1.09654142478701
C            1.47091791758969       -2.13445412285682       -0.67995013066351
Se           0.29703552607364       -3.43781233843956       -1.36144719117614
Se          -1.30009460324703       -3.16235361171027        1.23656595196384
C           -2.02641065005964       -1.57719755002104        0.52902999527447
C           -3.05697031744414       -1.63709602530912       -0.40797896780326
C           -3.48630480409351       -2.91463983286889       -1.04950603221187
N           -3.77031445670769       -0.56390048816180       -0.70682222582907
C           -3.50631787711162        0.62317423159595       -0.18066108413295
N           -4.46811424199921        1.56844294844259       -0.33451128899596
C           -5.59476764525541        1.25085445283765       -1.18532036791027
C           -6.65308241715351        0.43154656188742       -0.42896888232534
C           -6.61337701498941        0.79555609781638        1.05856602078172
C           -6.24721770576534        2.26809690442797        1.21183880940708
C           -4.80408117278031        2.49606477599396        0.72664779297369
C           -2.25591997749198        0.85625576611360        0.48690476838154
C           -1.65407693585294        2.13477168506000        0.64401748985977
O           -2.29401527532811        3.14129228139172        0.01150050032327
C           -1.90029443532217        4.48949805964330        0.15387584928576
C           -0.45787446117421        2.24563259340262        1.35225426736464
C            0.22199658098951        3.45628613342528        1.57263657278305
N            0.86624677333320        4.38247781366764        1.79800302158614
C            0.18546171364164        1.08794720442060        1.88003177888852
C            1.46467164678814        1.23504527654450        2.64156279335456
C           -0.35432250549183       -0.13997220887013        1.63956588560105
C           -1.54988060670187       -0.29840028640504        0.91481622008153
C            2.43098868978699       -2.48714117412802        0.26450913589174
C            2.45846723056862       -3.82528504377775        0.92495571202166
N            3.42967565765304       -1.66877929212309        0.55876446955418
C            3.53990817562434       -0.46584783540462        0.01820038865565
N            4.73709827076627        0.16201083568867        0.20910163230050
C            5.64597513484567       -0.42612352632038        1.17510479264842
C            6.58249521428251        0.64973259999008        1.71650080954858
C            7.36828732129213        1.28658662936727        0.57575382703109
C            6.38597772475534        1.84758810735798       -0.44623586352352
C            5.44193668937455        0.74608994677866       -0.91607882337308
C            2.43345903386457        0.11578484942705       -0.68881976693738
H            2.29891606174793        4.15915681481609       -0.00182262624642
H            4.06662316009131        4.05826141060944        0.02773204080495
H            3.21222661083526        3.99292349432552       -1.53158278341812
H           -1.60713763291874        2.21583232086882       -2.27433006224170
H           -1.62837545065996        0.71360719046502       -3.20499620817265
H           -0.67608404877281        2.10262646545491       -3.75960835040033
H           -0.43588523853009       -0.99040040492262       -2.16312127755040
H           -2.63196867223660       -3.41873182994681       -1.50263839352190
H           -3.90555616193104       -3.58601947377034       -0.29973160569594
H           -4.23724733610283       -2.70965358955526       -1.80678660062264
H           -5.22896031627973        0.69895823706608       -2.04989104540972
H           -6.01394743663043        2.20237987944077       -1.52217557436263
H           -6.45125948606298       -0.63154376755365       -0.55149590559526
H           -7.63719488593347        0.64534710224213       -0.84763164460193
H           -5.86169442507563        0.18807407115388        1.56779106235179
H           -7.57728758574643        0.59057116651371        1.52503105709443
H           -6.32327404282561        2.57984059235475        2.25402635822445
H           -6.94584861360408        2.87364116399063        0.63223130911348
H           -4.69034575817575        3.52532724997951        0.37082266953636
H           -4.11448714250380        2.33917345960979        1.55813752925551
H           -0.94216258933458        4.68705797829746       -0.33181274607754
H           -1.85495438886138        4.78722533896323        1.20399179581420
H           -2.67456491898398        5.06496075793024       -0.35292318662262
H            1.80972957763578        0.26539617584732        2.99180711499630
H            1.32949111216261        1.89586487414822        3.49760254640571
H            2.24030904430525        1.67129759636060        2.01203640077003
H            0.15766474587470       -1.02826629411395        1.98381016900653
H            3.24331522079392       -3.84593309076441        1.67505336503169
H            1.49551535881160       -4.04008155773358        1.38975634339822
H            2.64815343995153       -4.60264186988539        0.18456295421316
H            6.23062879421327       -1.23255886444031        0.71039956677526
H            5.05136583085167       -0.86062242503333        1.97816727152443
H            5.99069824975246        1.41522682200413        2.22139443188707
H            7.25871241982133        0.20239087236177        2.44613984311216
H            8.00307160275790        0.53376672075861        0.10221069941352
H            8.01342424022392        2.08057765376892        0.95520962802755
H            5.80322035445926        2.64312734806230        0.01574115748466
H            6.91528325120017        2.25967710395102       -1.30676527231820
H            6.03452045729335       -0.04373973760382       -1.40697131566313
H            4.73081645307188        1.12805235634422       -1.64614640546606

 projected vibrational frequencies (cm⁻¹)
eigval :       -0.00     0.00     0.00     0.00     0.00     0.00
eigval :       12.52    15.29    15.62    23.91    34.75    41.61
eigval :       49.09    52.37    57.85    63.84    69.80    73.26
eigval :       77.42    80.48    84.61    99.96   113.84   114.73
eigval :      124.73   125.71   130.07   133.36   135.15   136.67
eigval :      140.04   150.72   158.35   162.11   173.43   177.31
eigval :      183.47   190.08   192.70   212.34   217.70   221.97
eigval :      231.45   233.19   237.43   243.53   247.26   251.74
eigval :      257.19   258.24   262.84   269.00   271.87   278.07
eigval :      294.37   297.62   320.05   320.69   332.53   336.93
eigval :      356.06   361.73   367.12   378.57   399.69   406.00
eigval :      416.93   429.10   438.09   449.42   455.03   470.10
eigval :      477.15   480.75   518.96   520.92   521.50   536.34
eigval :      539.55   557.95   559.33   563.40   575.81   578.06
eigval :      593.37   604.87   608.76   611.59   645.21   653.27
eigval :      659.37   662.27   670.99   672.48   708.52   709.85
eigval :      721.27   723.52   798.02   830.84   842.51   843.50
eigval :      853.53   854.74   875.90   895.53   909.77   911.00
eigval :      940.02   944.69   956.46   956.70   971.29   972.30
eigval :      973.94   976.43   995.37   996.87   998.68  1003.94
eigval :     1009.17  1010.62  1022.03  1023.93  1030.24  1030.53
eigval :     1038.44  1040.01  1077.49  1082.49  1094.96  1097.06
eigval :     1111.93  1113.01  1115.20  1117.34  1121.40  1131.52
eigval :     1134.13  1138.66  1144.19  1148.63  1150.93  1159.72
eigval :     1162.11  1172.56  1198.65  1200.95  1218.79  1224.50
eigval :     1226.99  1235.80  1237.49  1238.89  1243.90  1246.61
eigval :     1259.77  1265.91  1276.87  1280.21  1312.83  1314.32
eigval :     1316.18  1317.18  1323.21  1328.62  1331.34  1337.38
eigval :     1339.21  1346.06  1346.31  1351.84  1353.97  1354.76
eigval :     1381.24  1381.66  1387.47  1388.01  1404.16  1404.93
eigval :     1410.15  1411.18  1420.56  1421.99  1429.36  1435.52
eigval :     1445.69  1448.67  1454.24  1455.09  1458.07  1459.99
eigval :     1461.27  1462.33  1465.56  1467.82  1468.62  1469.43
eigval :     1470.63  1471.42  1472.10  1474.83  1475.71  1476.26
eigval :     1477.58  1478.23  1478.89  1492.85  1494.67  1495.48
eigval :     1496.40  1500.79  1517.00  1521.14  1590.26  1592.37
eigval :     2340.02  2343.02  2839.25  2878.93  2928.25  2956.89
eigval :     2967.39  2970.00  2970.26  2971.09  2974.27  2980.93
eigval :     2984.53  2984.96  2985.14  2986.36  2986.77  2987.49
eigval :     2991.50  2994.74  2996.24  2997.20  2999.36  3000.64
eigval :     3002.33  3003.01  3003.33  3011.01  3012.16  3018.18
eigval :     3018.40  3019.06  3019.36  3019.64  3021.26  3022.85
eigval :     3044.03  3044.52  3056.65  3057.84  3058.50  3059.15

   temp. (K)  partition function   enthalpy   heat capacity  entropy
                                   cal/mol     cal/K/mol   cal/K/mol   J/K/mol
 298.15  VIB  0.170E+22            27763.202    162.330    175.896
         ROT  0.631E+08              888.752      2.981     38.674
         INT  0.108E+30            28651.954    165.311    214.570
         TR   0.197E+29             1481.254      4.968     45.690
         TOT                       30133.2079   170.2787   260.2601  1088.9282

       T/K    H(0)-H(T)+PV         H(T)/Eh          T*S/Eh         G(T)/Eh
   ------------------------------------------------------------------------
    298.15    0.480203E-01    0.732106E+00    0.123658E+00    0.608448E+00
   ------------------------------------------------------------------------

         :::::::::::::::::::::::::::::::::::::::::::::::::::::
         ::                  THERMODYNAMIC                  ::
         :::::::::::::::::::::::::::::::::::::::::::::::::::::
         :: total free energy        -128.950788906371 Eh   ::
         ::.................................................::
         :: total energy             -129.559236573080 Eh   ::
         :: zero point energy           0.684085303842 Eh   ::
         :: G(RRHO) w/o ZPVE           -0.075637637133 Eh   ::
         :: G(RRHO) contrib.            0.608447666709 Eh   ::
         :::::::::::::::::::::::::::::::::::::::::::::::::::::

           -------------------------------------------------
          | TOTAL ENERGY             -129.559236573080 Eh   |
          | TOTAL ENTHALPY           -128.827130945785 Eh   |
          | TOTAL FREE ENERGY        -128.950788906371 Eh   |
          | GRADIENT NORM               0.000092788942 Eh/α |
           -------------------------------------------------

 * finished run on 2025/08/30 at 17:55:05.533
