   * xtb version 6.7.1 (edcfbbe) compiled by 'albert@albert-system' on 2024-07-22

   ID    Z sym.   atoms
    1    6 C      1, 3-5, 7-11, 14-16, 18, 20-26, 28-30, 32-37, 39, 41-46
    2    8 O      2, 27
    3    7 N      6, 17, 19, 31, 38, 40
    4   34 Se     12, 13
    5    1 H      47-86

          program call               : xtb data2507/gas/IQ-Se/IQ-Se_gas_S0_crest.xyz --gfn 2 --ohess vtight --parallel 40 --molden --ceasefiles --namespace data2507/gas/IQ-Se/IQ-Se_gas_S0_finalOpt
          :  Hamiltonian                  GFN2-xTB          :
 * total energy  :  -129.6076464 Eh     change       -0.1862503E-08 Eh
 * total energy  :  -129.6076461 Eh     change        0.3047489E-06 Eh
 * total energy  :  -129.6076472 Eh     change       -0.1087308E-05 Eh
 * total energy  :  -129.6076470 Eh     change        0.2287139E-06 Eh
 * total energy  :  -129.6076495 Eh     change       -0.2480969E-05 Eh
 * total energy  :  -129.6076503 Eh     change       -0.7769564E-06 Eh
 * total energy  :  -129.6076512 Eh     change       -0.8963395E-06 Eh
 * total energy  :  -129.6076527 Eh     change       -0.1501510E-05 Eh
 * total energy  :  -129.6076546 Eh     change       -0.1959489E-05 Eh
 * total energy  :  -129.6076573 Eh     change       -0.2652444E-05 Eh
 * total energy  :  -129.6076680 Eh     change        0.4925420E-07 Eh
 * total energy  :  -129.6076682 Eh     change       -0.2179962E-06 Eh
 * total energy  :  -129.6076683 Eh     change       -0.6409860E-07 Eh
 * total energy  :  -129.6076687 Eh     change       -0.3801246E-06 Eh
 * total energy  :  -129.6076688 Eh     change       -0.1558577E-06 Eh
 * total energy  :  -129.6076690 Eh     change       -0.1683086E-06 Eh
 * total energy  :  -129.6076691 Eh     change       -0.7204349E-07 Eh
 * total energy  :  -129.6076693 Eh     change       -0.2606608E-06 Eh
 * total energy  :  -129.6076693 Eh     change       -0.5147854E-08 Eh
   *** GEOMETRY OPTIMIZATION CONVERGED AFTER 30 ITERATIONS ***

 final structure:
================
86
 xtb: 6.7.1 (edcfbbe)
C            3.22115753775348        3.68745297719235       -0.41016967586946
O            3.27090528819435        2.28249324979581       -0.28836692481949
C            2.33313408880012        1.48778656180054       -0.84651869894892
C            1.20655383665862        1.92496052507895       -1.54195568873115
C            0.89970133314482        3.27260807324849       -1.80135935696210
N            0.53443883140881        4.33348315694011       -2.05623059187756
C            0.24160423720630        0.99165398144536       -2.02341510802528
C           -0.93182312335998        1.47926828652491       -2.81286931859550
C            0.38520923427745       -0.32770183679116       -1.71962273484615
C            1.47692459669672       -0.80497780720901       -0.96934084057339
C            1.53493863744785       -2.13194940387369       -0.47900025007118
Se           0.18340991411208       -3.42644288223528       -0.95639979484269
Se          -1.21298100637174       -3.19295367410329        0.87640130194077
C           -2.11106914511538       -1.55983357039537        0.36967330852817
C           -3.16293718603647       -1.59344883141808       -0.53130168513428
C           -3.56876432368774       -2.83676176867544       -1.25155432304845
N           -3.90603060597237       -0.51669366141722       -0.75480072156831
C           -3.63097954633025        0.64659396691584       -0.18752865734493
N           -4.59665407368967        1.59477479149635       -0.27099407749106
C           -5.76300415070727        1.30126624911967       -1.07619308862654
C           -6.78866376148749        0.46926016549025       -0.29047304706455
C           -6.68491070781484        0.80709861402867        1.20043207062646
C           -6.30173707470258        2.27425302370068        1.36453796188223
C           -4.87838703035010        2.50059480932772        0.82438673686574
C           -2.36080423387309        0.86305075607309        0.45027973706734
C           -1.75278941800766        2.13659409412641        0.62367102492757
O           -2.39482962833888        3.15455205751786        0.01242890218874
C           -1.96305877099457        4.49305768743074        0.13238777403439
C           -0.54913832642928        2.23088401129692        1.32101494042069
C            0.14818752984854        3.43045049114954        1.54474957811364
N            0.81137005404245        4.34315439294557        1.77101121223125
C            0.08468368645502        1.06089589162440        1.83448008305447
C            1.35466703707751        1.19021462278166        2.61476605600310
C           -0.45377500303807       -0.16045238834078        1.56472977098466
C           -1.64239738196364       -0.30373855240224        0.82290881180934
C            2.52402765155911       -2.46304085275312        0.43035493678168
C            2.53051019511033       -3.74999949262084        1.18675321693312
N            3.56200995678945       -1.65835304865368        0.63130909680131
C            3.65992305418669       -0.48313464428033        0.03478935655243
N            4.87325784164003        0.12985103814089        0.11842128413932
C            5.85879596704758       -0.45095401804548        1.01044816189926
C            6.81728047280817        0.63613445715645        1.48773398436455
C            7.50556878297021        1.29342096789891        0.29650968219828
C            6.44212937306559        1.84293310334113       -0.64781523446085
C            5.48512134778690        0.72678138908123       -1.05274884491876
C            2.52118968379659        0.09426039324566       -0.62651122450588
H            2.34149613966197        4.10918132864852        0.08169020148786
H            4.11247951755035        4.05111353805282        0.09992759755989
H            3.25025187981540        4.00244787603454       -1.45609270726512
H           -1.52675596086354        2.18363210871738       -2.23213315284802
H           -1.56790252801928        0.64565172472240       -3.10028614690411
H           -0.59930754525054        1.99890891033068       -3.71140161958683
H           -0.37339180324188       -1.03141605747189       -2.03256243193008
H           -2.74034194176588       -3.21243896132950       -1.85462952349720
H           -3.83568468632236       -3.61505810501909       -0.53697339133838
H           -4.41813000141353       -2.62612344694781       -1.89434634813416
H           -5.43885948173613        0.76724675270057       -1.96817786415460
H           -6.19251841943624        2.26166543148084       -1.37255678110648
H           -6.59323708082288       -0.59165140869103       -0.43999192099171
H           -7.78969133455595        0.69021121987241       -0.66288647498274
H           -5.91683059981539        0.18606888095162        1.66712978994571
H           -7.63003404518660        0.59999603974912        1.70314329399485
H           -6.33257655519447        2.56723953351525        2.41452236710297
H           -7.01909392552816        2.89514390087733        0.82546179964146
H           -4.76779886288482        3.53722680017123        0.48895046343775
H           -4.15669146822241        2.31713467140415        1.62278159384641
H           -1.00582334407276        4.65762278641877       -0.36823685708592
H           -1.89483020213883        4.80268296756193        1.17790580024554
H           -2.72885729956745        5.08270056541680       -0.37088982648325
H            1.70702592448806        0.21140939986974        2.93086653868435
H            1.20191110402183        1.81470451434843        3.49492262597850
H            2.13334072553418        1.65999843650817        2.01442263089322
H            0.05612143793415       -1.05266857423500        1.90021963661163
H            3.41223058097985       -3.79714549694132        1.81840404445722
H            1.63444529990810       -3.83079381660257        1.80468647818548
H            2.53123698923920       -4.59228023655246        0.49534790663292
H            6.41850306204503       -1.24602704238556        0.49787055325226
H            5.33040787710180       -0.89829865837596        1.85170372366408
H            6.25296728538249        1.38874014952222        2.04106455390016
H            7.55351472384692        0.19550568820809        2.16130591176546
H            8.11651415242347        0.55438047236409       -0.22754546600945
H            8.16352606627954        2.09625038997356        0.63311451268154
H            5.88078958961024        2.62642325759038       -0.14097895478288
H            6.90087048385842        2.26738146907317       -1.54223479727977
H            6.05460365144677       -0.05267030681543       -1.58588768873106
H            4.71863686959965        1.09756602905003       -1.73047411157855

          :  Hamiltonian                  GFN2-xTB          :
         :: gradient norm              0.000144362941 Eh/a0 ::
         :: HOMO-LUMO gap              2.163027518820 eV    ::
         :: SCC energy              -131.513517216150 Eh    ::
         :: -> dispersion             -0.136095109456 Eh    ::
         :: repulsion energy           1.905847897161 Eh    ::

    * Orbital Energies and Occupations

         #    Occupation            Energy/Eh            Energy/eV
      -------------------------------------------------------------
         1        2.0000           -0.7438779             -20.2419
       ...           ...                  ...                  ...
       107        2.0000           -0.4183502             -11.3839
       108        2.0000           -0.4175586             -11.3623
       109        2.0000           -0.4113310             -11.1929
       110        2.0000           -0.4104130             -11.1679
       111        2.0000           -0.4099010             -11.1540
       112        2.0000           -0.3916123             -10.6563
       113        2.0000           -0.3896624             -10.6033
       114        2.0000           -0.3777356             -10.2787
       115        2.0000           -0.3737310             -10.1697
       116        2.0000           -0.3660074              -9.9596
       117        2.0000           -0.3639734              -9.9042
       118        2.0000           -0.3591553              -9.7731
       119        2.0000           -0.3516920              -9.5700 (HOMO)
       120                         -0.2722022              -7.4070 (LUMO)
       121                         -0.2699433              -7.3455
       122                         -0.2599050              -7.0724
       123                         -0.2557635              -6.9597
       124                         -0.2395798              -6.5193
       125                         -0.2116114              -5.7582
       126                         -0.2039358              -5.5494
       127                         -0.2037499              -5.5443
       128                         -0.1999795              -5.4417
       129                         -0.1933097              -5.2602
       130                         -0.1884358              -5.1276
       ...                                ...                  ...
       234                          1.1602574              31.5722
      -------------------------------------------------------------
                  HL-Gap            0.0794899 Eh            2.1630 eV

     #   Z          covCN         q      C6AA      α(0)
     1   6 C        3.637     0.035    20.360     6.491
     2   8 O        1.705    -0.254    18.210     5.761
     3   6 C        2.852     0.149    24.757     8.155
     4   6 C        2.970    -0.043    29.057     8.842
     5   6 C        1.916     0.116    28.246     8.583
     6   7 N        0.911    -0.282    27.266     7.552
     7   6 C        2.978     0.020    27.546     8.609
     8   6 C        3.758    -0.102    22.497     6.762
     9   6 C        2.923    -0.056    29.381     8.889
    10   6 C        3.011     0.019    27.560     8.611
    11   6 C        2.960    -0.016    28.407     8.742
    12  34 Se       2.000    -0.152   240.893    27.045
    13  34 Se       2.000    -0.151   240.839    27.042
    14   6 C        2.960    -0.018    28.448     8.749
    15   6 C        2.964     0.105    25.674     8.311
    16   6 C        3.761    -0.109    22.628     6.781
    17   7 N        1.861    -0.279    28.099     7.857
    18   6 C        2.885     0.155    24.652     8.140
    19   7 N        2.748    -0.069    22.568     7.056
    20   6 C        3.764    -0.006    20.735     6.490
    21   6 C        3.804    -0.065    21.735     6.637
    22   6 C        3.806    -0.053    21.516     6.603
    23   6 C        3.804    -0.063    21.705     6.633
    24   6 C        3.755     0.004    20.564     6.466
    25   6 C        2.981    -0.051    29.272     8.875
    26   6 C        2.852     0.149    24.761     8.156
    27   8 O        1.706    -0.260    18.310     5.777
    28   6 C        3.636     0.034    20.379     6.495
    29   6 C        2.970    -0.044    29.081     8.846
    30   6 C        1.916     0.115    28.254     8.584
    31   7 N        0.911    -0.282    27.288     7.555
    32   6 C        2.978     0.020    27.555     8.611
    33   6 C        3.758    -0.101    22.482     6.760
    34   6 C        2.923    -0.056    29.398     8.891
    35   6 C        3.012     0.019    27.559     8.611
    36   6 C        2.963     0.106    25.658     8.309
    37   6 C        3.761    -0.109    22.634     6.782
    38   7 N        1.860    -0.283    28.193     7.870
    39   6 C        2.884     0.153    24.679     8.144
    40   7 N        2.749    -0.079    22.774     7.088
    41   6 C        3.765    -0.004    20.682     6.482
    42   6 C        3.808    -0.063    21.696     6.631
    43   6 C        3.807    -0.057    21.597     6.616
    44   6 C        3.807    -0.062    21.692     6.630
    45   6 C        3.759     0.010    20.456     6.448
    46   6 C        2.980    -0.050    29.223     8.867
    47   1 H        0.924     0.068     2.110     2.272
    48   1 H        0.925     0.065     2.141     2.288
    49   1 H        0.924     0.046     2.370     2.407
    50   1 H        0.925     0.055     2.257     2.350
    51   1 H        0.925     0.044     2.392     2.418
    52   1 H        0.925     0.052     2.290     2.366
    53   1 H        0.926     0.050     2.325     2.384
    54   1 H        0.924     0.064     2.153     2.295
    55   1 H        0.925     0.064     2.156     2.296
    56   1 H        0.925     0.058     2.217     2.328
    57   1 H        0.925     0.068     2.106     2.269
    58   1 H        0.924     0.047     2.357     2.401
    59   1 H        0.925     0.051     2.310     2.377
    60   1 H        0.924     0.037     2.483     2.464
    61   1 H        0.924     0.035     2.518     2.482
    62   1 H        0.924     0.036     2.508     2.477
    63   1 H        0.924     0.038     2.476     2.461
    64   1 H        0.924     0.042     2.428     2.437
    65   1 H        0.924     0.049     2.334     2.389
    66   1 H        0.924     0.043     2.415     2.430
    67   1 H        0.924     0.069     2.092     2.262
    68   1 H        0.924     0.047     2.363     2.404
    69   1 H        0.925     0.065     2.143     2.289
    70   1 H        0.925     0.044     2.393     2.419
    71   1 H        0.925     0.052     2.295     2.369
    72   1 H        0.925     0.054     2.268     2.355
    73   1 H        0.926     0.049     2.335     2.390
    74   1 H        0.925     0.060     2.201     2.320
    75   1 H        0.924     0.064     2.147     2.292
    76   1 H        0.925     0.065     2.147     2.291
    77   1 H        0.923     0.038     2.477     2.461
    78   1 H        0.925     0.067     2.115     2.274
    79   1 H        0.924     0.047     2.363     2.404
    80   1 H        0.924     0.040     2.451     2.448
    81   1 H        0.924     0.036     2.509     2.477
    82   1 H        0.924     0.036     2.503     2.474
    83   1 H        0.925     0.052     2.300     2.371
    84   1 H        0.924     0.037     2.490     2.468
    85   1 H        0.923     0.030     2.580     2.512
    86   1 H        0.925     0.046     2.375     2.410

molecular dipole:
                 x           y           z       tot (Debye)
 q only:       -0.146       0.612       0.151
   full:       -0.099       0.506       0.098       1.333

 projected vibrational frequencies (cm⁻¹)
eigval :       -0.00    -0.00    -0.00     0.00     0.00     0.00
eigval :       16.04    19.31    27.06    32.26    38.11    45.33
eigval :       53.32    54.89    59.65    62.68    69.30    73.71
eigval :       80.92    83.47    85.62   115.40   119.88   125.40
eigval :      128.20   130.13   133.48   137.86   143.23   145.56
eigval :      152.91   160.15   163.47   173.95   181.29   188.26
eigval :      192.48   194.09   212.93   216.09   220.31   227.11
eigval :      233.88   236.57   243.10   249.04   251.29   255.56
eigval :      258.62   260.40   263.13   268.90   271.29   278.18
eigval :      303.18   309.78   322.07   322.71   333.90   337.45
eigval :      363.42   368.06   369.84   380.60   399.24   406.41
eigval :      413.89   429.58   436.42   450.48   455.19   472.11
eigval :      478.36   480.85   517.69   519.17   520.47   537.97
eigval :      540.97   559.77   560.40   562.17   575.71   578.17
eigval :      593.95   607.17   608.96   610.07   644.64   651.07
eigval :      658.95   662.14   671.18   673.01   705.99   706.99
eigval :      723.07   725.13   798.67   832.12   838.29   839.71
eigval :      854.01   855.26   876.64   896.21   910.34   910.38
eigval :      939.72   943.62   957.30   957.57   971.19   972.85
eigval :      974.52   975.50   996.16   998.18   999.88  1003.94
eigval :     1013.74  1014.07  1022.86  1024.50  1029.76  1029.95
eigval :     1039.63  1041.49  1078.48  1083.08  1095.77  1097.29
eigval :     1113.12  1114.03  1115.85  1119.61  1123.01  1132.60
eigval :     1135.31  1140.29  1145.18  1149.70  1151.94  1160.95
eigval :     1163.68  1173.73  1199.55  1202.43  1220.80  1226.01
eigval :     1228.56  1238.16  1238.98  1240.92  1245.16  1248.12
eigval :     1260.16  1265.29  1279.16  1281.81  1318.48  1318.60
eigval :     1324.76  1325.49  1325.88  1330.82  1333.70  1342.08
eigval :     1342.38  1347.67  1348.10  1353.01  1353.98  1354.96
eigval :     1382.65  1383.42  1396.29  1396.65  1404.89  1405.56
eigval :     1412.56  1413.46  1420.52  1422.16  1436.43  1439.80
eigval :     1447.92  1456.48  1459.11  1460.11  1460.85  1462.72
eigval :     1462.96  1464.49  1468.10  1469.74  1471.01  1472.97
eigval :     1473.45  1473.80  1474.22  1479.09  1479.64  1480.11
eigval :     1480.27  1481.69  1483.45  1495.07  1497.59  1503.18
eigval :     1511.74  1513.08  1525.28  1529.04  1597.14  1599.08
eigval :     2339.53  2342.34  2840.03  2879.74  2925.70  2956.15
eigval :     2967.33  2969.83  2970.28  2970.68  2973.43  2975.73
eigval :     2976.91  2978.15  2979.10  2985.34  2985.94  2987.67
eigval :     2992.50  2994.73  2997.22  2997.33  3003.20  3003.46
eigval :     3003.83  3004.10  3004.69  3012.90  3013.93  3019.81
eigval :     3020.26  3021.17  3021.25  3022.07  3022.91  3025.01
eigval :     3044.26  3044.29  3059.80  3061.98  3064.38  3064.79

   temp. (K)  partition function   enthalpy   heat capacity  entropy
                                   cal/mol     cal/K/mol   cal/K/mol   J/K/mol
 298.15  VIB  0.141E+21            27453.804    162.465    172.207
         ROT  0.634E+08              888.752      2.981     38.683
         INT  0.893E+28            28342.556    165.446    210.890
         TR   0.197E+29             1481.254      4.968     45.690
         TOT                       29823.8101   170.4144   256.5796  1073.5291

       T/K    H(0)-H(T)+PV         H(T)/Eh          T*S/Eh         G(T)/Eh
   ------------------------------------------------------------------------
    298.15    0.475273E-01    0.732938E+00    0.121909E+00    0.611028E+00
   ------------------------------------------------------------------------

         :::::::::::::::::::::::::::::::::::::::::::::::::::::
         ::                  THERMODYNAMIC                  ::
         :::::::::::::::::::::::::::::::::::::::::::::::::::::
         :: total free energy        -128.996640925814 Eh   ::
         ::.................................................::
         :: total energy             -129.607669318991 Eh   ::
         :: zero point energy           0.685410380853 Eh   ::
         :: G(RRHO) w/o ZPVE           -0.074381987676 Eh   ::
         :: G(RRHO) contrib.            0.611028393177 Eh   ::
         :::::::::::::::::::::::::::::::::::::::::::::::::::::

           -------------------------------------------------
          | TOTAL ENERGY             -129.607669318991 Eh   |
          | TOTAL ENTHALPY           -128.874731671560 Eh   |
          | TOTAL FREE ENERGY        -128.996640925814 Eh   |
          | GRADIENT NORM               0.000144362176 Eh/α |
          | HOMO-LUMO GAP               2.163030154136 eV   |
           -------------------------------------------------

 * finished run on 2025/08/30 at 17:54:50.598
