   * xtb version 6.7.1 (edcfbbe) compiled by 'albert@albert-system' on 2024-07-22

   ID    Z sym.   atoms
    1    6 C      1, 3-5, 7-11, 14-16, 18, 20-26, 28-30, 32-37, 39, 41-46
    2    8 O      2, 27
    3    7 N      6, 17, 19, 31, 38, 40
    4   34 Se     12, 13
    5    1 H      47-86

          program call               : xtb data2507/gas/IQ-Se/IQ-Se_gas_T1_crest.xyz --gfn 2 --spinpol --tblite --uhf 2 --ohess vtight --parallel 40 --molden --ceasefiles --namespace data2507/gas/IQ-Se/IQ-Se_gas_T1_finalOpt
 * total energy  :  -129.5638671 Eh     change        0.1653953E-07 Eh
 * total energy  :  -129.5639493 Eh     change       -0.8214588E-04 Eh
 * total energy  :  -129.5639564 Eh     change       -0.7150218E-05 Eh
 * total energy  :  -129.5639854 Eh     change       -0.2903292E-04 Eh
 * total energy  :  -129.5639930 Eh     change       -0.7523246E-05 Eh
 * total energy  :  -129.5639971 Eh     change       -0.4157910E-05 Eh
 * total energy  :  -129.5640011 Eh     change       -0.3967511E-05 Eh
 * total energy  :  -129.5640019 Eh     change       -0.8248565E-06 Eh
 * total energy  :  -129.5640063 Eh     change       -0.4354841E-05 Eh
 * total energy  :  -129.5640110 Eh     change       -0.4709856E-05 Eh
 * total energy  :  -129.5640350 Eh     change       -0.2678766E-06 Eh
 * total energy  :  -129.5640353 Eh     change       -0.2219988E-06 Eh
 * total energy  :  -129.5640355 Eh     change       -0.2054313E-06 Eh
 * total energy  :  -129.5640357 Eh     change       -0.2114027E-06 Eh
 * total energy  :  -129.5640359 Eh     change       -0.1961710E-06 Eh
 * total energy  :  -129.5640361 Eh     change       -0.1856828E-06 Eh
 * total energy  :  -129.5640362 Eh     change       -0.1336755E-06 Eh
 * total energy  :  -129.5640363 Eh     change       -0.1130817E-06 Eh
 * total energy  :  -129.5640363 Eh     change       -0.1019203E-09 Eh
   *** GEOMETRY OPTIMIZATION CONVERGED AFTER 44 ITERATIONS ***

 final structure:
================
86
 xtb: 6.7.1 (edcfbbe)
C            2.13553046874270        3.04634853335211       -1.82304271675316
O            2.20356373079635        1.71609353153422       -1.36815687980422
C            1.23634774483692        0.82850310867371       -1.68950800223867
C            0.09570828058633        1.12495778711196       -2.43266730532453
C           -0.22327915475111        2.39026099018960       -2.96271213304788
N           -0.59639224812712        3.37124416702232       -3.43305721214341
C           -0.88080308892781        0.12222321719339       -2.69883868543042
C           -2.02815607781506        0.43963487081313       -3.60215830853377
C           -0.75747505666557       -1.09310157405051       -2.09626976300340
C            0.34569290843633       -1.41207632917200       -1.28395873849778
C            0.40940098404416       -2.63601481542836       -0.56910327179710
Se          -0.99505384640860       -3.89395373154352       -0.60615476145463
Se          -3.19236335253390       -2.33064729480022        0.67760051155879
C           -2.49912412202578       -0.58150300888203        0.55190604954556
C           -3.12872895297797        0.34420154610590       -0.27644233465231
C           -4.34067741916300       -0.00714378317595       -1.07560034851960
N           -2.72706292851552        1.60305279810879       -0.33740758268488
C           -1.69310201019854        2.04617194052085        0.36314684514857
N           -1.52315969306673        3.39707394598840        0.37232611508567
C           -2.33854615260933        4.18276270350251       -0.53165161054798
C           -3.74593417620683        4.42118972362291        0.03630687809451
C           -3.68118425356217        4.44738185555041        1.56641325966262
C           -2.34945406098590        5.04550608561609        2.00666115611494
C           -1.19888589640758        4.11016820421889        1.59331759306567
C           -0.82677496960910        1.13279594592110        1.05372132654647
C            0.48715889090426        1.44078669470881        1.50765856935999
O            0.97287963545761        2.63055351558491        1.08973256442935
C            2.25491927806946        3.06525212599571        1.47608965974654
C            1.18115275093626        0.51545758467512        2.28469095488728
C            2.47707673778897        0.70652526763661        2.80104016049906
N            3.52329432427115        0.75889589286942        3.27583773025100
C            0.59500109249069       -0.74122351636967        2.61137295547753
C            1.32149113205240       -1.66863925858683        3.53094073458403
C           -0.59803875981112       -1.08119507040905        2.04705816157787
C           -1.31045557410663       -0.19257037869435        1.22128139948463
C            1.51850821406308       -2.87854441733700        0.23422365505590
C            1.63715574229832       -4.10768259504709        1.07385501551702
N            2.55855541324908       -2.05903441616054        0.23781092101864
C            2.59290535484189       -0.95396300077313       -0.48984346266214
N            3.80030600793586       -0.30867078580216       -0.51738366844735
C            4.80493237055301       -0.75486069787850        0.43333164777742
C            5.80643917820463        0.36600164510228        0.69193144087583
C            6.46130315740418        0.81330800355242       -0.60980848959345
C            5.37580519239583        1.21009845863519       -1.60415996851611
C            4.40136129654258        0.05189139472255       -1.78867152407300
C            1.42201628328805       -0.48944379734959       -1.17921880729871
H            1.26162735788638        3.56223680774608       -1.41826315830479
H            3.04238432409811        3.52781242732242       -1.45839341161633
H            2.12038408207055        3.09829570040169       -2.91500725675895
H           -1.66805155679638        0.82172208224796       -4.55697781390665
H           -2.65596684488494        1.21063931571264       -3.15718691124175
H           -2.62953368083817       -0.44744245047318       -3.78163051477369
H           -1.52086911249209       -1.84592644022060       -2.23824101564073
H           -5.14374914070645       -0.31321329609929       -0.40434890163067
H           -4.66573275946242        0.85207579120721       -1.65447299864734
H           -4.13236595794025       -0.84283728973595       -1.74153453280130
H           -2.38906638810334        3.66986437477561       -1.49071097154941
H           -1.81704736939097        5.13232537662638       -0.67570597975520
H           -4.41388166451004        3.62485547242555       -0.28812892185973
H           -4.12791188134376        5.36846206688891       -0.34580720053300
H           -3.76014822723757        3.43022801714593        1.95715489670567
H           -4.51243524986604        5.02460579815678        1.97234941731025
H           -2.32305417034965        5.17996260552250        3.08867163914426
H           -2.22807689340252        6.02735929410564        1.54637581807997
H           -0.28205326300685        4.69247089467727        1.45065984806705
H           -1.02547812435619        3.38204229149123        2.38788287104110
H            3.03139267557427        2.40225086909367        1.08709068807267
H            2.34491694022205        3.14183700343340        2.56269560004103
H            2.36831997001632        4.05679371359690        1.03810544708204
H            1.58561396751212       -1.16000171218385        4.45762864842740
H            2.24755043206661       -2.00778281043543        3.06790870168228
H            0.70667815950904       -2.53337354292192        3.76567681446070
H           -1.02457907889671       -2.05733692173835        2.23389381847712
H            2.58009121411098       -4.09775235740195        1.61195181593466
H            0.80986552025863       -4.17186398492274        1.77883872620994
H            1.59590779202792       -4.99103351942257        0.43601631004690
H            5.32419093848259       -1.64485445303095        0.05131369591317
H            4.30248104593421       -1.02583438613460        1.36072428304245
H            5.28566817348639        1.20579169219160        1.15479065389273
H            6.55795951504268        0.01096469373701        1.39742297470729
H            7.05208830974608       -0.00765137607818       -1.02327906646598
H            7.13391354113005        1.65308376659652       -0.42761419942624
H            4.83360288076343        2.07452255207527       -1.22199760869218
H            5.81200975029648        1.47308918706613       -2.56928704123160
H            4.95519484429471       -0.81937857774389       -2.17592530411784
H            3.63036412184702        0.30085454973703       -2.51503196612818

 projected vibrational frequencies (cm⁻¹)
eigval :       -0.00    -0.00    -0.00    -0.00     0.00     0.00
eigval :       12.15    15.34    20.77    30.72    36.76    40.30
eigval :       48.17    57.96    61.93    70.77    74.07    77.69
eigval :       87.61    94.38    99.70   101.05   113.66   120.31
eigval :      127.85   132.42   134.63   151.03   154.26   156.96
eigval :      161.07   166.80   177.29   182.75   184.80   195.44
eigval :      199.55   204.99   209.82   219.49   221.47   226.19
eigval :      230.00   235.51   240.97   248.65   255.79   262.08
eigval :      267.62   271.61   277.42   279.67   296.55   300.71
eigval :      308.96   312.82   319.52   323.45   335.93   340.40
eigval :      358.65   363.47   365.59   377.44   398.46   408.41
eigval :      418.19   430.31   438.22   450.88   458.48   472.88
eigval :      474.71   476.17   519.91   521.71   522.62   536.41
eigval :      538.66   561.01   563.03   564.62   573.30   574.18
eigval :      594.33   607.04   609.86   612.27   646.40   655.56
eigval :      658.01   661.26   670.89   672.79   711.23   712.29
eigval :      721.95   724.32   796.37   830.64   842.86   843.49
eigval :      852.99   854.10   875.14   895.35   910.43   910.81
eigval :      938.62   942.85   956.64   957.21   971.60   972.39
eigval :      977.26   979.96   994.23   994.90   996.41  1003.05
eigval :     1010.26  1010.84  1022.28  1024.74  1026.30  1027.10
eigval :     1038.33  1040.06  1078.50  1083.05  1096.24  1097.37
eigval :     1112.48  1113.52  1114.92  1117.11  1120.62  1131.28
eigval :     1135.83  1138.68  1144.98  1153.52  1156.28  1158.41
eigval :     1162.28  1172.04  1196.52  1199.82  1218.18  1221.33
eigval :     1224.03  1231.28  1234.45  1239.50  1245.25  1245.76
eigval :     1257.80  1265.34  1274.29  1279.31  1313.42  1313.82
eigval :     1317.95  1319.70  1323.92  1330.06  1331.27  1339.53
eigval :     1339.89  1345.80  1346.85  1351.84  1353.10  1354.69
eigval :     1379.28  1379.88  1386.68  1387.00  1400.11  1402.01
eigval :     1402.84  1404.39  1420.00  1421.11  1425.14  1435.77
eigval :     1445.09  1450.18  1454.80  1456.48  1459.10  1460.56
eigval :     1462.36  1465.64  1467.79  1469.29  1469.93  1474.54
eigval :     1476.25  1476.51  1477.42  1478.02  1479.00  1480.12
eigval :     1480.52  1481.82  1483.00  1493.57  1496.32  1496.93
eigval :     1498.16  1501.77  1514.50  1523.23  1590.64  1592.85
eigval :     2342.84  2343.30  2840.66  2879.58  2920.63  2960.04
eigval :     2962.13  2964.85  2967.07  2970.16  2972.46  2973.91
eigval :     2975.66  2983.33  2986.41  2988.93  2991.35  2992.43
eigval :     2992.70  2995.11  2996.26  3002.27  3003.41  3006.61
eigval :     3007.04  3011.13  3012.77  3013.98  3014.48  3016.57
eigval :     3017.60  3021.56  3022.03  3022.94  3024.49  3024.70
eigval :     3048.04  3048.70  3056.96  3057.59  3058.17  3059.18

   temp. (K)  partition function   enthalpy   heat capacity  entropy
                                   cal/mol     cal/K/mol   cal/K/mol   J/K/mol
 298.15  VIB  0.145E+21            27263.457    162.255    170.608
         ROT  0.537E+08              888.752      2.981     38.353
         INT  0.781E+28            28152.210    165.236    208.962
         TR   0.197E+29             1481.254      4.968     45.690
         TOT                       29633.4635   170.2040   254.6515  1065.4621

       T/K    H(0)-H(T)+PV         H(T)/Eh          T*S/Eh         G(T)/Eh
   ------------------------------------------------------------------------
    298.15    0.472239E-01    0.732618E+00    0.120993E+00    0.611624E+00
   ------------------------------------------------------------------------

         :::::::::::::::::::::::::::::::::::::::::::::::::::::
         ::                  THERMODYNAMIC                  ::
         :::::::::::::::::::::::::::::::::::::::::::::::::::::
         :: total free energy        -128.952411976203 Eh   ::
         ::.................................................::
         :: total energy             -129.564036313648 Eh   ::
         :: zero point energy           0.685393573773 Eh   ::
         :: G(RRHO) w/o ZPVE           -0.073769236327 Eh   ::
         :: G(RRHO) contrib.            0.611624337445 Eh   ::
         :::::::::::::::::::::::::::::::::::::::::::::::::::::

           -------------------------------------------------
          | TOTAL ENERGY             -129.564036313648 Eh   |
          | TOTAL ENTHALPY           -128.831418809885 Eh   |
          | TOTAL FREE ENERGY        -128.952411976203 Eh   |
          | GRADIENT NORM               0.000030851292 Eh/α |
           -------------------------------------------------

 * finished run on 2025/08/30 at 18:04:21.280
