   * xtb version 6.7.1 (edcfbbe) compiled by 'albert@albert-system' on 2024-07-22

   ID    Z sym.   atoms
    1    6 C      1, 3-11, 13-16, 18-24, 26, 27, 29-32, 34, 35
    2    8 O      2, 12
    3    7 N      17, 25, 28, 33
    4    1 H      36-57

          program call               : xtb data2507/toluene/Me-DOC/Me-DOC_toluene_T1_crest.xyz --gfn 2 --uhf 2 --gbsa toluene --ohess vtight --parallel 40 --molden --ceasefiles --namespace data2507/toluene/Me-DOC/Me-DOC_toluene_T1_finalOpt
      * Solvation model:               GBSA
        Solvent                        toluene
        Solvent mass                       9.2140E+01 g/mol
          :  Hamiltonian                  GFN2-xTB          :
 * total energy  :   -93.0875241 Eh     change        0.1236344E-10 Eh
 * total energy  :   -93.0876487 Eh     change       -0.1245562E-03 Eh
 * total energy  :   -93.0876845 Eh     change       -0.3585689E-04 Eh
 * total energy  :   -93.0876813 Eh     change        0.3248729E-05 Eh
 * total energy  :   -93.0876994 Eh     change       -0.1807591E-04 Eh
 * total energy  :   -93.0877008 Eh     change       -0.1485581E-05 Eh
 * total energy  :   -93.0877021 Eh     change       -0.1297169E-05 Eh
 * total energy  :   -93.0877045 Eh     change       -0.2398274E-05 Eh
 * total energy  :   -93.0877052 Eh     change       -0.6700302E-06 Eh
 * total energy  :   -93.0877057 Eh     change       -0.5195587E-06 Eh
 * total energy  :   -93.0877084 Eh     change       -0.1731416E-06 Eh
 * total energy  :   -93.0877085 Eh     change       -0.1888884E-06 Eh
 * total energy  :   -93.0877088 Eh     change       -0.2068525E-06 Eh
 * total energy  :   -93.0877088 Eh     change        0.3679048E-09 Eh
 * total energy  :   -93.0877087 Eh     change        0.6337487E-08 Eh
 * total energy  :   -93.0877087 Eh     change        0.1355298E-07 Eh
 * total energy  :   -93.0877089 Eh     change       -0.1506319E-06 Eh
 * total energy  :   -93.0877090 Eh     change       -0.1105368E-06 Eh
 * total energy  :   -93.0877090 Eh     change       -0.2982998E-07 Eh
   *** GEOMETRY OPTIMIZATION CONVERGED AFTER 27 ITERATIONS ***

 final structure:
================
57
 xtb: 6.7.1 (edcfbbe)
C           -5.28984014465494       -5.19477909396093       -0.42172600714732
O           -5.53561154330358       -3.80785572347287       -0.30364022019082
C           -4.49755199119592       -2.94838565450877       -0.23986400202486
C           -3.14755658380395       -3.32456495917279       -0.30123221624080
C           -2.13876298711163       -2.38334366121251       -0.22232719041071
C           -2.48497873180638       -1.04702374429334       -0.06676059371282
C           -3.85006634417825       -0.65008355964021       -0.04232440909200
C           -4.85042850764909       -1.59468429509777       -0.12214798490162
C           -3.84913665305958        0.78762827722149        0.05289646465343
C           -4.86394680336526        1.72475587956760        0.12815158497243
C           -4.51300888383448        3.07223164711328        0.24595172693786
O           -5.39408291242789        4.08890130190406        0.32459559154322
C           -6.78029219530858        3.81169110886544        0.28993431098222
C           -3.15549401346130        3.45100808816365        0.30975598382774
C           -2.14136708220181        2.52625852710946        0.23538514147302
C           -2.48626292964285        1.18402298798994        0.08187969096500
N           -1.68258830230749        0.07024041921121        0.00999773348250
C           -0.29428795336443        0.06753215072123        0.01381909930443
C            0.41970746922299       -0.83664183168889        0.82413111001360
C            1.78449507325517       -0.84192554603647        0.82674025915666
C            2.53933833139811        0.04780509831455        0.01231420804400
C            3.95995461424702        0.03139001443809        0.00716343519601
C            4.75275723861077        1.20891435212125       -0.23974694540543
C            4.19447500609004        2.48382334251131       -0.37360938794123
N            3.81091612789013        3.57027206568815       -0.45352525494776
C            6.14480652552383        1.13324352338168       -0.22794695038974
C            6.99821839740816        2.34074583829607       -0.46379433002551
N            6.79573188369701       -0.00494557215035        0.00209785274996
C            6.11709556171746       -1.12638403309011        0.23302175913140
C            6.93988906155168       -2.35581925723891        0.46475331412943
C            4.72366217650344       -1.16667735845802        0.24889231832985
C            4.13305375260302       -2.42717624650285        0.37871924169821
N            3.72098666559524       -3.50369430655353        0.45345886872737
C            1.79610615604064        0.95227507016325       -0.79654147407811
C            0.43113800257305        0.96562386052482       -0.79296020232987
H           -4.72111463204419       -5.57209031724911        0.43240877165403
H           -6.27232158383967       -5.66328756098452       -0.43930166006215
H           -4.75920621142198       -5.42693047620674       -1.34914186308780
H           -2.87661675492113       -4.36025190415354       -0.42128678518721
H           -1.10674872884563       -2.68847916740152       -0.29562066529543
H           -5.89461277992283       -1.32902066347522       -0.10265842788590
H           -5.89221639886974        1.40565070082735        0.10149835178530
H           -7.06553407660352        3.33256124662766       -0.65052327433495
H           -7.27221082984747        4.77958532383667        0.36782519447775
H           -7.07964794862334        3.18222467318427        1.13229019612795
H           -2.93592465658509        4.49983029496200        0.42805582652663
H           -1.11078997954800        2.83470988894686        0.30998394147186
H           -0.12318338715309       -1.48305079876099        1.49766408171771
H            2.30561668017977       -1.49973249204415        1.50474861683537
H            8.04499353266937        2.05418809531024       -0.41202481104383
H            6.79332395685690        3.10446103234439        0.28599744251325
H            6.78763657773145        2.77292290700253       -1.44155964326280
H            6.71200323839337       -2.79126113640586        1.43712869030099
H            7.99356874606443       -2.09420625937218        0.42218858925621
H            6.72217691807796       -3.10781900313696       -0.29329566865061
H            2.32543311384209        1.60639422943241       -1.47165153626484
H           -0.10323926304005        1.62217900608761       -1.46338547867180

          :  Hamiltonian                  GFN2-xTB          :
         :: gradient norm              0.000180712104 Eh/a0 ::
         :: HOMO-LUMO gap              0.371938122983 eV    ::
         :: SCC energy               -94.657836602230 Eh    ::
         :: -> dispersion             -0.071996949198 Eh    ::
         :: -> Gsolv                  -0.053960166764 Eh    ::
         :: repulsion energy           1.570127574772 Eh    ::

    * Orbital Energies and Occupations

         #    Occupation            Energy/Eh            Energy/eV
      -------------------------------------------------------------
         1        2.0000           -0.7369068             -20.0523
       ...           ...                  ...                  ...
        74        2.0000           -0.4364024             -11.8751
        75        2.0000           -0.4295933             -11.6898
        76        2.0000           -0.4245700             -11.5531
        77        2.0000           -0.4234844             -11.5236
        78        2.0000           -0.4160733             -11.3219
        79        2.0000           -0.4147639             -11.2863
        80        2.0000           -0.4101798             -11.1616
        81        2.0000           -0.4006054             -10.9010
        82        2.0000           -0.3954690             -10.7613
        83        2.0000           -0.3944833             -10.7344
        84        1.9164           -0.3747146             -10.1965
        85        1.0836           -0.3701647             -10.0727
        86        0.9991           -0.2827130              -7.6930 (HOMO)
        87        0.0006           -0.2690448              -7.3211 (LUMO)
        88        0.0003           -0.2684797              -7.3057
        89                         -0.2422513              -6.5920
        90                         -0.2288965              -6.2286
        91                         -0.2260826              -6.1520
        92                         -0.2082412              -5.6665
        93                         -0.2027578              -5.5173
        94                         -0.2002409              -5.4488
        95                         -0.1998906              -5.4393
        96                         -0.1955262              -5.3205
        97                         -0.1310013              -3.5647
       ...                                ...                  ...
       162                          1.1544324              31.4137
      -------------------------------------------------------------
                  HL-Gap            0.0136682 Eh            0.3719 eV

     #   Z          covCN         q      C6AA      α(0)
     1   6 C        3.642     0.023    20.531     6.515
     2   8 O        1.706    -0.247    18.089     5.742
     3   6 C        2.862     0.152    24.698     8.146
     4   6 C        2.918    -0.066    29.653     8.930
     5   6 C        2.909    -0.032    28.801     8.800
     6   6 C        3.073     0.035    27.148     8.543
     7   6 C        3.059    -0.004    28.067     8.688
     8   6 C        2.911    -0.049    29.205     8.862
     9   6 C        3.061    -0.004    28.065     8.688
    10   6 C        2.908    -0.062    29.530     8.910
    11   6 C        2.864     0.154    24.671     8.142
    12   8 O        1.706    -0.247    18.088     5.742
    13   6 C        3.643     0.023    20.540     6.515
    14   6 C        2.922    -0.054    29.330     8.881
    15   6 C        2.907    -0.032    28.798     8.799
    16   6 C        3.075     0.036    27.117     8.538
    17   7 N        2.799     0.031    20.695     6.756
    18   6 C        2.913     0.033    27.261     8.562
    19   6 C        2.913    -0.040    28.983     8.828
    20   6 C        2.918    -0.041    29.029     8.835
    21   6 C        2.966     0.000    28.025     8.683
    22   6 C        2.972    -0.015    28.386     8.739
    23   6 C        2.965    -0.032    28.785     8.800
    24   6 C        1.917     0.113    28.317     8.594
    25   7 N        0.911    -0.326    28.390     7.706
    26   6 C        2.948     0.106    25.657     8.308
    27   6 C        3.760    -0.112    22.690     6.791
    28   7 N        1.847    -0.283    28.179     7.867
    29   6 C        2.948     0.106    25.655     8.308
    30   6 C        3.760    -0.112    22.690     6.791
    31   6 C        2.965    -0.032    28.792     8.801
    32   6 C        1.917     0.113    28.317     8.594
    33   7 N        0.911    -0.327    28.415     7.710
    34   6 C        2.918    -0.041    29.028     8.835
    35   6 C        2.913    -0.039    28.979     8.827
    36   1 H        0.924     0.060     2.195     2.317
    37   1 H        0.925     0.078     1.996     2.209
    38   1 H        0.924     0.060     2.196     2.317
    39   1 H        0.926     0.062     2.175     2.306
    40   1 H        0.926     0.059     2.211     2.326
    41   1 H        0.926     0.071     2.079     2.255
    42   1 H        0.926     0.068     2.103     2.268
    43   1 H        0.924     0.062     2.175     2.306
    44   1 H        0.925     0.078     1.996     2.209
    45   1 H        0.924     0.062     2.175     2.306
    46   1 H        0.926     0.065     2.141     2.288
    47   1 H        0.926     0.060     2.193     2.316
    48   1 H        0.926     0.044     2.392     2.419
    49   1 H        0.926     0.030     2.582     2.513
    50   1 H        0.925     0.064     2.152     2.294
    51   1 H        0.925     0.052     2.293     2.368
    52   1 H        0.925     0.052     2.299     2.371
    53   1 H        0.925     0.052     2.301     2.372
    54   1 H        0.925     0.064     2.153     2.294
    55   1 H        0.925     0.052     2.291     2.367
    56   1 H        0.926     0.030     2.582     2.513
    57   1 H        0.926     0.045     2.389     2.417

molecular dipole:
                 x           y           z       tot (Debye)
 q only:       -6.861      -0.703      -0.065
   full:       -6.678      -0.863      -0.080      17.117

 projected vibrational frequencies (cm⁻¹)
eigval :       -0.00    -0.00    -0.00     0.00     0.00     0.00
eigval :       14.83    18.71    21.89    34.37    39.32    57.41
eigval :       59.60    61.82    66.56    74.46    81.33    97.65
eigval :      111.74   118.66   134.11   156.00   160.70   165.10
eigval :      172.28   186.79   204.37   206.02   214.38   222.50
eigval :      244.44   252.31   258.44   265.17   274.03   306.75
eigval :      325.58   332.22   334.31   388.38   390.20   392.54
eigval :      395.31   398.23   415.16   421.66   432.06   460.60
eigval :      460.94   464.96   480.52   485.05   506.20   511.39
eigval :      526.16   565.36   568.93   578.33   589.02   596.65
eigval :      615.68   619.28   628.65   645.35   648.26   662.11
eigval :      667.28   677.91   699.99   729.87   781.51   799.32
eigval :      809.30   817.40   833.05   843.08   853.73   859.07
eigval :      881.52   896.15   901.55   909.78   914.89   918.65
eigval :      920.72   934.98   972.46   993.26  1004.87  1013.60
eigval :     1018.16  1022.26  1043.04  1044.68  1093.02  1105.92
eigval :     1109.33  1113.35  1121.33  1123.15  1142.15  1145.46
eigval :     1149.89  1167.05  1181.05  1186.70  1209.65  1229.53
eigval :     1231.07  1233.86  1252.46  1267.44  1268.31  1271.16
eigval :     1316.72  1323.39  1334.75  1341.15  1353.66  1363.93
eigval :     1386.83  1389.56  1390.63  1391.20  1393.86  1406.44
eigval :     1410.18  1417.56  1424.01  1441.96  1452.48  1455.65
eigval :     1457.62  1460.00  1461.62  1461.96  1462.14  1462.47
eigval :     1463.26  1464.49  1477.08  1493.35  1535.15  1550.45
eigval :     1551.71  1559.51  1579.33  2261.27  2292.84  2951.02
eigval :     2951.12  2959.65  2960.35  3000.55  3001.01  3014.65
eigval :     3014.87  3031.31  3032.76  3054.28  3054.97  3080.69
eigval :     3082.53  3100.66  3101.82  3103.07  3103.90  3116.05
eigval :     3116.92  3122.58  3123.58

   temp. (K)  partition function   enthalpy   heat capacity  entropy
                                   cal/mol     cal/K/mol   cal/K/mol   J/K/mol
 298.15  VIB  0.179E+15            18558.823    110.977    116.689
         ROT  0.412E+08              888.752      2.981     37.825
         INT  0.739E+22            19447.576    113.958    154.513
         TR   0.950E+28             1481.254      4.968     44.237
         TOT                       20928.8297   118.9263   198.7505   831.5722

       T/K    H(0)-H(T)+PV         H(T)/Eh          T*S/Eh         G(T)/Eh
   ------------------------------------------------------------------------
    298.15    0.333522E-01    0.458347E+00    0.944328E-01    0.363915E+00
   ------------------------------------------------------------------------

         :::::::::::::::::::::::::::::::::::::::::::::::::::::
         ::                  THERMODYNAMIC                  ::
         :::::::::::::::::::::::::::::::::::::::::::::::::::::
         :: total free energy         -92.723794410410 Eh   ::
         ::.................................................::
         :: total energy              -93.087709030110 Eh   ::
         :: zero point energy           0.424995200291 Eh   ::
         :: G(RRHO) w/o ZPVE           -0.061080580591 Eh   ::
         :: G(RRHO) contrib.            0.363914619700 Eh   ::
         :::::::::::::::::::::::::::::::::::::::::::::::::::::

           -------------------------------------------------
          | TOTAL ENERGY              -93.087709030110 Eh   |
          | TOTAL ENTHALPY            -92.629361616744 Eh   |
          | TOTAL FREE ENERGY         -92.723794410410 Eh   |
          | GRADIENT NORM               0.000180820082 Eh/α |
          | HOMO-LUMO GAP               0.371930428614 eV   |
           -------------------------------------------------

 * finished run on 2025/07/18 at 00:29:22.355
