   * xtb version 6.7.1 (edcfbbe) compiled by 'albert@albert-system' on 2024-07-22

   ID    Z sym.   atoms
    1    6 C      1, 3-11, 13-16, 18-24, 26, 27, 29-32, 34, 35
    2    8 O      2, 12
    3    7 N      17, 25, 28, 33
    4    1 H      36-57

          program call               : xtb data2507/toluene/Me-DOC/Me-DOC.xyz --gfn 2 --gbsa toluene --ohess vtight --parallel 40 --molden --ceasefiles --namespace data2507/toluene/Me-DOC/Me-DOC_toluene_S0_preOpt
      * Solvation model:               GBSA
        Solvent                        toluene
        Solvent mass                       9.2140E+01 g/mol
          :  Hamiltonian                  GFN2-xTB          :
 * total energy  :   -93.1515799 Eh     change       -0.2654005E-08 Eh
 * total energy  :   -93.1632092 Eh     change       -0.1162933E-01 Eh
 * total energy  :   -93.1652019 Eh     change       -0.1992740E-02 Eh
 * total energy  :   -93.1649834 Eh     change        0.2185174E-03 Eh
 * total energy  :   -93.1654724 Eh     change       -0.4889770E-03 Eh
 * total energy  :   -93.1655341 Eh     change       -0.6169286E-04 Eh
 * total energy  :   -93.1655991 Eh     change       -0.6499076E-04 Eh
 * total energy  :   -93.1656178 Eh     change       -0.1867900E-04 Eh
 * total energy  :   -93.1656170 Eh     change        0.7664880E-06 Eh
 * total energy  :   -93.1656472 Eh     change       -0.3025846E-04 Eh
 * total energy  :   -93.1681625 Eh     change       -0.4728353E-06 Eh
 * total energy  :   -93.1681629 Eh     change       -0.4738625E-06 Eh
 * total energy  :   -93.1681634 Eh     change       -0.4891004E-06 Eh
 * total energy  :   -93.1681638 Eh     change       -0.4354462E-06 Eh
 * total energy  :   -93.1681642 Eh     change       -0.3875197E-06 Eh
 * total energy  :   -93.1681646 Eh     change       -0.3892505E-06 Eh
 * total energy  :   -93.1681650 Eh     change       -0.3658298E-06 Eh
 * total energy  :   -93.1681653 Eh     change       -0.3408997E-06 Eh
 * total energy  :   -93.1681653 Eh     change       -0.1911829E-08 Eh
   *** GEOMETRY OPTIMIZATION CONVERGED AFTER 94 ITERATIONS ***

 final structure:
================
57
 xtb: 6.7.1 (edcfbbe)
C           -6.52526410063464       -3.72544984887206        0.07178470869307
O           -5.14960395390700       -4.03358804506544        0.05301441135086
C           -4.25116489218828       -3.00048647365543        0.03545691328873
C           -2.90247534177172       -3.39070447547368        0.01380112635625
C           -1.87904353193189       -2.46893227726262        0.00564921732459
C           -2.21246643263940       -1.12047433892900        0.03205097689907
C           -3.56425070890819       -0.71762128008498        0.01829266013484
C           -4.59027167102308       -1.65790486768224        0.02573825001576
C           -3.56434168793455        0.71770520165938       -0.01861485236968
C           -4.59048266268446        1.65785862100496       -0.02604739978059
C           -4.25154640028070        3.00048382046196       -0.03569796895268
O           -5.15011208973795        4.03347693409984       -0.05315033366173
C           -6.52573902561878        3.72517761713046       -0.07166590004009
C           -2.90290639193865        3.39087080576464       -0.01403738281786
C           -1.87935764949906        2.46922831776984       -0.00589886994999
C           -2.21260776403398        1.12072798562949       -0.03231605516402
N           -1.39865988608426        0.00017640429569       -0.00012137477720
C           -0.00498344831896        0.00027784984038        0.00008892284226
C            0.70137754229181       -0.81003516779231        0.88960615298442
C            2.07983944511123       -0.81816059781033        0.87982299823420
C            2.78739105759121        0.00016564693379        0.00028726363916
C            4.25280948593876        0.00001859787019        0.00022369047746
C            4.98365879012743        1.19590764655270        0.06434666751796
C            4.33217030951043        2.44082292709241        0.18424362775022
N            3.84373167672344        3.47296671189935        0.30495100329223
C            6.39123146025541        1.14816690021664        0.06398240273125
C            7.21019827130077        2.39108643749405        0.14386008916722
N            7.04287705416188       -0.00021645259016       -0.00017067763432
C            6.39101839968078       -1.14849107239450       -0.06410031606658
C            7.20976390228750       -2.39154139033311       -0.14422388740796
C            4.98343595941007       -1.19599942712860       -0.06404459813870
C            4.33171156583846       -2.44081212842877       -0.18368726852372
N            3.84306619034093       -3.47288906347273       -0.30415763837902
C            2.08001666980168        0.81858765881352       -0.87930709281912
C            0.70155629548068        0.81058318438023       -0.88928880331038
H           -6.82337599575663       -3.17435995872337       -0.82575703627784
H           -7.03912303106215       -4.68520831200775        0.09381960555289
H           -6.79342365104209       -3.14902370198825        0.96283369496974
H           -2.68822967823692       -4.44790041342724       -0.00114267362769
H           -0.85228612063444       -2.79768084480024       -0.03420274968998
H           -5.61570438818892       -1.32689282873903        0.01723687487894
H           -5.61587335324077        1.32671506832390       -0.01758088219281
H           -6.79402989145130        3.14888772985484       -0.96276336957289
H           -7.03971637249810        4.68487966374156       -0.09340453409040
H           -6.82358312877912        3.17388389376838        0.82583985205522
H           -2.68879504075165        4.44809319765484        0.00094315023470
H           -0.85264534133632        2.79811309196711        0.03396493962455
H            0.16409543422831       -1.41737524270188        1.60107190964655
H            2.61441101155913       -1.43726026102682        1.58544905156886
H            8.26426496081007        2.13344490346526        0.09871353144602
H            7.00420275333335        2.91826137740107        1.07500946536379
H            6.96153345634513        3.06497226425811       -0.67498626120441
H            8.26388531427940       -2.13405881891218       -0.09943972442170
H            7.00337464890164       -2.91870359916923       -1.07529325916969
H            6.96127500269106       -3.06537465768269        0.67471896065656
H            2.61473714649871        1.43765290321815       -1.58485185515226
H            0.16442882762303        1.41795218359029       -1.60084635349217

          :  Hamiltonian                  GFN2-xTB          :
         :: gradient norm              0.000054427826 Eh/a0 ::
         :: HOMO-LUMO gap              1.623073981603 eV    ::
         :: SCC energy               -94.759890970175 Eh    ::
         :: -> dispersion             -0.072199256521 Eh    ::
         :: -> Gsolv                  -0.043979502765 Eh    ::
         :: repulsion energy           1.591725635065 Eh    ::

    * Orbital Energies and Occupations

         #    Occupation            Energy/Eh            Energy/eV
      -------------------------------------------------------------
         1        2.0000           -0.7152617             -19.4633
       ...           ...                  ...                  ...
        73        2.0000           -0.4429307             -12.0528
        74        2.0000           -0.4387044             -11.9378
        75        2.0000           -0.4348597             -11.8331
        76        2.0000           -0.4282406             -11.6530
        77        2.0000           -0.4270106             -11.6195
        78        2.0000           -0.4268617             -11.6155
        79        2.0000           -0.4216626             -11.4740
        80        2.0000           -0.4196257             -11.4186
        81        2.0000           -0.4094394             -11.1414
        82        2.0000           -0.3968677             -10.7993
        83        2.0000           -0.3965320             -10.7902
        84        2.0000           -0.3749489             -10.2029
        85        2.0000           -0.3571960              -9.7198 (HOMO)
        86                         -0.2975492              -8.0967 (LUMO)
        87                         -0.2958711              -8.0511
        88                         -0.2516735              -6.8484
        89                         -0.2453371              -6.6760
        90                         -0.2379987              -6.4763
        91                         -0.2249256              -6.1205
        92                         -0.2247031              -6.1145
        93                         -0.2212070              -6.0193
        94                         -0.2194147              -5.9706
        95                         -0.1893590              -5.1527
        96                         -0.1890558              -5.1445
       ...                                ...                  ...
       162                          1.1476685              31.2297
      -------------------------------------------------------------
                  HL-Gap            0.0596469 Eh            1.6231 eV

     #   Z          covCN         q      C6AA      α(0)
     1   6 C        3.642     0.037    20.302     6.478
     2   8 O        1.705    -0.294    18.888     5.868
     3   6 C        2.864     0.132    25.111     8.214
     4   6 C        2.924    -0.057    29.420     8.895
     5   6 C        2.909    -0.049    29.219     8.864
     6   6 C        3.072     0.036    27.117     8.538
     7   6 C        3.069    -0.017    28.354     8.731
     8   6 C        2.910    -0.072    29.807     8.952
     9   6 C        3.069    -0.017    28.354     8.731
    10   6 C        2.910    -0.072    29.807     8.952
    11   6 C        2.864     0.132    25.111     8.214
    12   8 O        1.705    -0.294    18.888     5.868
    13   6 C        3.642     0.037    20.302     6.478
    14   6 C        2.924    -0.057    29.420     8.895
    15   6 C        2.909    -0.049    29.219     8.864
    16   6 C        3.072     0.036    27.117     8.538
    17   7 N        2.801    -0.035    21.917     6.953
    18   6 C        2.912     0.070    26.430     8.430
    19   6 C        2.921    -0.041    29.030     8.836
    20   6 C        2.923    -0.027    28.673     8.781
    21   6 C        2.977    -0.001    28.036     8.685
    22   6 C        2.989     0.037    27.158     8.549
    23   6 C        2.973    -0.016    28.404     8.742
    24   6 C        1.909     0.121    28.137     8.567
    25   7 N        0.911    -0.264    26.841     7.493
    26   6 C        2.944     0.117    25.418     8.269
    27   6 C        3.760    -0.122    22.884     6.820
    28   7 N        1.848    -0.242    27.159     7.724
    29   6 C        2.944     0.117    25.418     8.269
    30   6 C        3.760    -0.122    22.884     6.820
    31   6 C        2.973    -0.016    28.404     8.742
    32   6 C        1.909     0.121    28.137     8.567
    33   7 N        0.911    -0.264    26.841     7.493
    34   6 C        2.923    -0.027    28.673     8.781
    35   6 C        2.921    -0.041    29.030     8.836
    36   1 H        0.924     0.045     2.387     2.416
    37   1 H        0.925     0.065     2.143     2.289
    38   1 H        0.924     0.045     2.384     2.415
    39   1 H        0.926     0.047     2.355     2.400
    40   1 H        0.926     0.042     2.425     2.435
    41   1 H        0.926     0.043     2.411     2.428
    42   1 H        0.926     0.043     2.411     2.428
    43   1 H        0.924     0.045     2.384     2.415
    44   1 H        0.925     0.065     2.143     2.289
    45   1 H        0.924     0.045     2.387     2.416
    46   1 H        0.926     0.047     2.355     2.400
    47   1 H        0.926     0.042     2.425     2.435
    48   1 H        0.926     0.055     2.262     2.352
    49   1 H        0.926     0.041     2.440     2.442
    50   1 H        0.925     0.079     1.986     2.204
    51   1 H        0.925     0.071     2.075     2.253
    52   1 H        0.925     0.070     2.089     2.260
    53   1 H        0.925     0.079     1.986     2.204
    54   1 H        0.925     0.071     2.075     2.253
    55   1 H        0.925     0.070     2.089     2.260
    56   1 H        0.926     0.041     2.440     2.443
    57   1 H        0.926     0.055     2.262     2.352

molecular dipole:
                 x           y           z       tot (Debye)
 q only:        0.128      -0.000      -0.000
   full:       -0.031      -0.000      -0.000       0.080

 projected vibrational frequencies (cm⁻¹)
eigval :       -0.00    -0.00    -0.00    -0.00    -0.00     0.00
eigval :       14.54    22.01    23.36    43.49    57.03    59.21
eigval :       65.43    80.45    85.73    92.48    93.38    94.63
eigval :      104.69   107.94   121.98   142.52   148.76   160.14
eigval :      171.58   191.94   199.26   201.81   214.04   233.85
eigval :      234.64   255.86   260.02   265.70   277.50   327.33
eigval :      337.81   343.19   348.90   387.32   389.67   395.32
eigval :      395.55   400.61   426.69   434.25   453.02   469.41
eigval :      473.42   477.36   491.80   498.50   512.44   517.31
eigval :      555.33   570.48   583.59   585.74   602.58   603.87
eigval :      617.61   622.05   639.09   660.15   668.60   676.44
eigval :      688.69   698.92   718.16   733.59   782.89   807.33
eigval :      808.02   820.15   849.36   855.83   866.13   872.18
eigval :      879.45   905.77   908.12   919.03   926.88   928.67
eigval :      937.10   946.14   986.55  1008.23  1020.11  1021.70
eigval :     1026.81  1033.66  1054.90  1055.04  1109.02  1118.17
eigval :     1120.27  1120.29  1136.95  1143.56  1152.14  1152.72
eigval :     1155.63  1171.69  1178.03  1180.51  1203.75  1239.89
eigval :     1240.26  1265.54  1268.92  1269.55  1289.05  1309.16
eigval :     1315.86  1344.77  1351.86  1356.80  1377.30  1387.66
eigval :     1391.64  1395.29  1395.97  1396.60  1410.65  1413.86
eigval :     1417.44  1427.72  1446.85  1447.61  1448.81  1456.59
eigval :     1465.21  1465.32  1471.76  1477.85  1479.40  1489.99
eigval :     1494.33  1504.55  1527.51  1551.80  1568.78  1576.46
eigval :     1588.38  1603.00  1615.75  2350.72  2356.50  2929.00
eigval :     2929.06  2942.22  2942.45  3006.49  3006.90  3021.96
eigval :     3022.08  3023.04  3023.11  3064.48  3065.08  3080.62
eigval :     3082.71  3092.39  3092.67  3104.01  3105.21  3106.00
eigval :     3106.41  3109.49  3112.41

   temp. (K)  partition function   enthalpy   heat capacity  entropy
                                   cal/mol     cal/K/mol   cal/K/mol   J/K/mol
 298.15  VIB  0.425E+14            18274.167    110.606    114.878
         ROT  0.199E+08              888.752      2.981     36.380
         INT  0.846E+21            19162.919    113.587    151.257
         TR   0.950E+28             1481.254      4.968     44.237
         TOT                       20644.1730   118.5550   195.4945   817.9491

       T/K    H(0)-H(T)+PV         H(T)/Eh          T*S/Eh         G(T)/Eh
   ------------------------------------------------------------------------
    298.15    0.328986E-01    0.461450E+00    0.928858E-01    0.368564E+00
   ------------------------------------------------------------------------

         :::::::::::::::::::::::::::::::::::::::::::::::::::::
         ::                  THERMODYNAMIC                  ::
         :::::::::::::::::::::::::::::::::::::::::::::::::::::
         :: total free energy         -92.799601316118 Eh   ::
         ::.................................................::
         :: total energy              -93.168165334787 Eh   ::
         :: zero point energy           0.428551189977 Eh   ::
         :: G(RRHO) w/o ZPVE           -0.059987171308 Eh   ::
         :: G(RRHO) contrib.            0.368564018670 Eh   ::
         :::::::::::::::::::::::::::::::::::::::::::::::::::::

           -------------------------------------------------
          | TOTAL ENERGY              -93.168165334787 Eh   |
          | TOTAL ENTHALPY            -92.706715560996 Eh   |
          | TOTAL FREE ENERGY         -92.799601316118 Eh   |
          | GRADIENT NORM               0.000054414009 Eh/α |
          | HOMO-LUMO GAP               1.623074002708 eV   |
           -------------------------------------------------

 * finished run on 2025/07/18 at 00:25:10.307
