   * xtb version 6.7.1 (edcfbbe) compiled by 'albert@albert-system' on 2024-07-22

   ID    Z sym.   atoms
    1    6 C      1, 3-11, 13-16, 18-24, 26, 27, 29-32, 34, 35
    2    8 O      2, 12
    3    7 N      17, 25, 28, 33
    4    1 H      36-57

          program call               : xtb data2507/toluene/Me-DOC/Me-DOC_toluene_S0_finalOpt.xtbopt.xyz --gfn 2 --uhf 2 --gbsa toluene --ohess vtight --parallel 40 --molden --ceasefiles --namespace data2507/toluene/Me-DOC/Me-DOC_toluene_T1_preOpt
      * Solvation model:               GBSA
        Solvent                        toluene
        Solvent mass                       9.2140E+01 g/mol
          :  Hamiltonian                  GFN2-xTB          :
 * total energy  :   -93.0801380 Eh     change       -0.3069530E-08 Eh
 * total energy  :   -93.0831256 Eh     change       -0.2987564E-02 Eh
 * total energy  :   -93.0844050 Eh     change       -0.1279450E-02 Eh
 * total energy  :   -93.0846705 Eh     change       -0.2654111E-03 Eh
 * total energy  :   -93.0853817 Eh     change       -0.7112428E-03 Eh
 * total energy  :   -93.0857224 Eh     change       -0.3407370E-03 Eh
 * total energy  :   -93.0859609 Eh     change       -0.2384737E-03 Eh
 * total energy  :   -93.0861273 Eh     change       -0.1663938E-03 Eh
 * total energy  :   -93.0862674 Eh     change       -0.1400544E-03 Eh
 * total energy  :   -93.0863135 Eh     change       -0.4614362E-04 Eh
 * total energy  :   -93.0872985 Eh     change       -0.1828554E-05 Eh
 * total energy  :   -93.0873001 Eh     change       -0.1561726E-05 Eh
 * total energy  :   -93.0873012 Eh     change       -0.1180042E-05 Eh
 * total energy  :   -93.0873021 Eh     change       -0.8261514E-06 Eh
 * total energy  :   -93.0873026 Eh     change       -0.5438285E-06 Eh
 * total energy  :   -93.0873031 Eh     change       -0.5342846E-06 Eh
 * total energy  :   -93.0873034 Eh     change       -0.3047070E-06 Eh
 * total energy  :   -93.0873036 Eh     change       -0.1286995E-06 Eh
 * total energy  :   -93.0873037 Eh     change       -0.9888497E-07 Eh
   *** GEOMETRY OPTIMIZATION CONVERGED AFTER 93 ITERATIONS ***

 final structure:
================
57
 xtb: 6.7.1 (edcfbbe)
C           -6.73099961177802       -3.74705381736642       -0.19209889362582
O           -5.34522506979629       -4.02692394063049       -0.21717129436260
C           -4.46239250635694       -3.00907772500284       -0.16492459623277
C           -3.10608302715966       -3.39008340323172       -0.21578549782484
C           -2.09122499558856       -2.46353007592395       -0.16430405708962
C           -2.43521800801052       -1.11807837617406       -0.04839993175396
C           -3.79702643251142       -0.71958754166955       -0.03264820567016
C           -4.81242950561550       -1.65851923824494       -0.08380057189655
C           -3.79593142005235        0.72007642305104        0.02215409580331
C           -4.80988097634470        1.66051461302554        0.07451531769038
C           -4.45775772088700        3.01053167413178        0.15559442091912
O           -5.33903752908667        4.02965274940224        0.20918744312407
C           -6.72525374102159        3.75181140522440        0.18588376272563
C           -3.10083129977124        3.38951962591896        0.20498990903262
C           -2.08740556628293        2.46146613093887        0.15226929411150
C           -2.43352507046589        1.11654009983142        0.03657876680476
N           -1.63113642365184       -0.00137220209304       -0.00630551852231
C           -0.24354733842053       -0.00222003709310       -0.00670216082043
C            0.47632575156125       -0.88493542506730        0.82234739435782
C            1.84108347361172       -0.88079292753806        0.82576286865894
C            2.59061955080330       -0.00233149019357       -0.00600623721598
C            4.01122232456834       -0.00119137210747       -0.00474331635076
C            4.78855242480346        1.18110595682323       -0.27807304955939
C            4.21340780759874        2.44478557129202       -0.44329817377576
N            3.81664495390087        3.52426780736687       -0.54909606605546
C            6.18150660995458        1.12510923626427       -0.26160733796162
C            7.01887905780691        2.33798879826422       -0.52511728909016
N            6.84662215811925        0.00181644874645       -0.00224087099525
C            6.18341128564669       -1.12284844540191        0.25603200610707
C            7.02297297073990       -2.33384355528153        0.52123882591311
C            4.79053655148991       -1.18182646978952        0.27007698377071
C            4.21773274143924       -2.44661887786599        0.43485012584668
N            3.82273698017517       -3.52676365776597        0.54055493234852
C            1.84151263133555        0.87546882345976       -0.83887959843017
C            0.47677469580128        0.87987372551073       -0.83600938339915
H           -7.02875607478792       -3.14241835083190       -1.05311797331957
H           -7.22415561554798       -4.71615106409679       -0.24252822740934
H           -7.01686250406552       -3.24112584063555        0.73407811522933
H           -2.88639878332694       -4.44175637414917       -0.30484220800969
H           -1.06090890438723       -2.77511199843905       -0.22875730822516
H           -5.84144525919613       -1.34092621164430       -0.06753815506190
H           -5.83938675479823        1.34447799092312        0.05924252545496
H           -7.01316501254687        3.24703181065109       -0.74028846615882
H           -7.21692066855417        4.72158691883661        0.23778958994416
H           -7.02268103957493        3.14692371159407        1.04683876886167
H           -2.87948229071694        4.44084754138135        0.29400299673038
H           -1.05655832773687        2.77151535606616        0.21568246855151
H           -0.06234813458905       -1.52051404098928        1.50931232859665
H            2.36588577389839       -1.52079660629675        1.51771922326628
H            6.80207944225018        3.11653542310278        0.20579954661641
H            6.80432971935925        2.74368125252799       -1.51326620576250
H            8.06937146310096        2.06724265539127       -0.46477803187365
H            6.80823182883474       -3.11354923973978       -0.20904002230118
H            6.80857999709370       -2.73896242687108        1.50966150279790
H            8.07296486559071       -2.06103624317248        0.46140654941677
H            2.36671512174026        1.51491594025626       -1.53105759055124
H           -0.06154696952494        1.51527666116262       -1.52341706740527

          :  Hamiltonian                  GFN2-xTB          :
         :: gradient norm              0.000044153864 Eh/a0 ::
         :: HOMO-LUMO gap              0.390821433127 eV    ::
         :: SCC energy               -94.657427884314 Eh    ::
         :: -> dispersion             -0.072025636176 Eh    ::
         :: -> Gsolv                  -0.054378290486 Eh    ::
         :: repulsion energy           1.570124209388 Eh    ::

    * Orbital Energies and Occupations

         #    Occupation            Energy/Eh            Energy/eV
      -------------------------------------------------------------
         1        2.0000           -0.7367660             -20.0484
       ...           ...                  ...                  ...
        74        2.0000           -0.4362898             -11.8720
        75        2.0000           -0.4292715             -11.6811
        76        2.0000           -0.4246672             -11.5558
        77        2.0000           -0.4236262             -11.5275
        78        2.0000           -0.4177799             -11.3684
        79        2.0000           -0.4150818             -11.2950
        80        2.0000           -0.4103421             -11.1660
        81        2.0000           -0.4009674             -10.9109
        82        2.0000           -0.3954856             -10.7617
        83        2.0000           -0.3930812             -10.6963
        84        1.9112           -0.3752902             -10.2122
        85        1.0888           -0.3708664             -10.0918
        86        0.9993           -0.2831926              -7.7061 (HOMO)
        87        0.0004           -0.2688303              -7.3152 (LUMO)
        88        0.0003           -0.2684385              -7.3046
        89                         -0.2411678              -6.5625
        90                         -0.2290643              -6.2332
        91                         -0.2260666              -6.1516
        92                         -0.2088139              -5.6821
        93                         -0.2027640              -5.5175
        94                         -0.2005305              -5.4567
        95                         -0.2000961              -5.4449
        96                         -0.1957141              -5.3257
        97                         -0.1313050              -3.5730
       ...                                ...                  ...
       162                          1.1540357              31.4029
      -------------------------------------------------------------
                  HL-Gap            0.0143623 Eh            0.3908 eV

     #   Z          covCN         q      C6AA      α(0)
     1   6 C        3.643     0.023    20.532     6.514
     2   8 O        1.706    -0.249    18.123     5.748
     3   6 C        2.864     0.153    24.687     8.144
     4   6 C        2.922    -0.054    29.352     8.885
     5   6 C        2.907    -0.032    28.790     8.798
     6   6 C        3.075     0.034    27.151     8.543
     7   6 C        3.062    -0.005    28.097     8.692
     8   6 C        2.908    -0.062    29.535     8.911
     9   6 C        3.062    -0.005    28.097     8.692
    10   6 C        2.908    -0.062    29.535     8.911
    11   6 C        2.864     0.153    24.687     8.144
    12   8 O        1.706    -0.249    18.123     5.748
    13   6 C        3.643     0.023    20.532     6.514
    14   6 C        2.922    -0.054    29.352     8.885
    15   6 C        2.907    -0.032    28.790     8.798
    16   6 C        3.075     0.034    27.151     8.543
    17   7 N        2.800     0.032    20.691     6.756
    18   6 C        2.913     0.034    27.244     8.559
    19   6 C        2.913    -0.039    28.975     8.827
    20   6 C        2.918    -0.041    29.024     8.834
    21   6 C        2.966     0.001    28.010     8.681
    22   6 C        2.972    -0.015    28.377     8.738
    23   6 C        2.965    -0.031    28.777     8.799
    24   6 C        1.918     0.113    28.314     8.593
    25   7 N        0.911    -0.325    28.369     7.703
    26   6 C        2.948     0.106    25.654     8.307
    27   6 C        3.760    -0.112    22.694     6.791
    28   7 N        1.847    -0.280    28.123     7.860
    29   6 C        2.948     0.106    25.654     8.307
    30   6 C        3.760    -0.112    22.694     6.791
    31   6 C        2.965    -0.031    28.777     8.799
    32   6 C        1.918     0.113    28.314     8.593
    33   7 N        0.911    -0.325    28.369     7.703
    34   6 C        2.918    -0.041    29.023     8.834
    35   6 C        2.913    -0.039    28.975     8.827
    36   1 H        0.924     0.062     2.181     2.310
    37   1 H        0.925     0.078     2.003     2.213
    38   1 H        0.924     0.062     2.181     2.309
    39   1 H        0.926     0.064     2.155     2.296
    40   1 H        0.926     0.060     2.203     2.321
    41   1 H        0.926     0.068     2.112     2.273
    42   1 H        0.926     0.068     2.112     2.273
    43   1 H        0.924     0.062     2.181     2.309
    44   1 H        0.925     0.078     2.003     2.213
    45   1 H        0.924     0.062     2.181     2.310
    46   1 H        0.926     0.064     2.155     2.296
    47   1 H        0.926     0.060     2.203     2.321
    48   1 H        0.926     0.045     2.383     2.414
    49   1 H        0.926     0.031     2.574     2.509
    50   1 H        0.925     0.053     2.287     2.365
    51   1 H        0.925     0.052     2.293     2.368
    52   1 H        0.925     0.064     2.148     2.292
    53   1 H        0.925     0.053     2.287     2.365
    54   1 H        0.925     0.052     2.293     2.368
    55   1 H        0.925     0.064     2.148     2.292
    56   1 H        0.926     0.031     2.574     2.509
    57   1 H        0.926     0.045     2.384     2.414

molecular dipole:
                 x           y           z       tot (Debye)
 q only:       -7.424       0.002       0.000
   full:       -7.389       0.002       0.000      18.780

 projected vibrational frequencies (cm⁻¹)
eigval :       -0.00    -0.00    -0.00     0.00     0.00     0.00
eigval :       14.05    19.30    21.58    29.21    32.02    35.04
eigval :       59.88    62.22    65.44    82.80    89.01    92.95
eigval :      109.91   117.75   143.27   159.26   161.25   167.50
eigval :      173.08   193.53   198.26   200.95   209.26   231.17
eigval :      246.64   257.72   261.11   265.20   278.49   306.53
eigval :      331.20   332.93   347.86   389.71   389.94   392.76
eigval :      393.26   398.91   426.04   429.36   447.18   460.27
eigval :      460.91   461.40   471.84   485.58   501.21   508.00
eigval :      519.28   567.85   568.66   580.18   581.30   592.06
eigval :      611.64   619.13   630.61   645.90   649.05   664.28
eigval :      664.87   679.58   699.15   728.08   785.88   802.88
eigval :      815.21   817.65   833.55   841.78   844.26   859.76
eigval :      881.53   902.07   905.16   913.98   916.07   922.35
eigval :      923.66   940.55   972.28   993.65  1004.82  1013.44
eigval :     1020.48  1021.94  1043.41  1044.16  1093.00  1110.05
eigval :     1111.05  1111.37  1117.52  1121.65  1143.86  1146.73
eigval :     1147.60  1170.72  1175.83  1190.22  1211.37  1227.38
eigval :     1229.33  1231.97  1244.97  1266.91  1268.34  1271.64
eigval :     1316.35  1323.37  1339.70  1340.95  1354.31  1360.19
eigval :     1387.67  1389.70  1391.33  1392.21  1394.38  1406.63
eigval :     1410.86  1416.93  1430.54  1449.34  1452.33  1458.66
eigval :     1458.87  1460.89  1460.94  1461.43  1461.88  1462.54
eigval :     1464.41  1466.22  1481.09  1493.00  1536.64  1543.56
eigval :     1546.73  1559.89  1576.01  2261.92  2293.23  2950.24
eigval :     2950.30  2958.49  2958.73  3001.30  3001.71  3015.52
eigval :     3015.74  3032.50  3032.56  3054.68  3055.35  3081.65
eigval :     3083.35  3101.36  3103.33  3103.56  3103.83  3116.71
eigval :     3116.78  3120.56  3123.39

   temp. (K)  partition function   enthalpy   heat capacity  entropy
                                   cal/mol     cal/K/mol   cal/K/mol   J/K/mol
 298.15  VIB  0.323E+15            18545.014    110.285    116.307
         ROT  0.202E+08              888.752      2.981     36.408
         INT  0.651E+22            19433.766    113.266    152.715
         TR   0.950E+28             1481.254      4.968     44.237
         TOT                       20915.0198   118.2341   196.9521   824.0474

       T/K    H(0)-H(T)+PV         H(T)/Eh          T*S/Eh         G(T)/Eh
   ------------------------------------------------------------------------
    298.15    0.333302E-01    0.458465E+00    0.935783E-01    0.364887E+00
   ------------------------------------------------------------------------

         :::::::::::::::::::::::::::::::::::::::::::::::::::::
         ::                  THERMODYNAMIC                  ::
         :::::::::::::::::::::::::::::::::::::::::::::::::::::
         :: total free energy         -92.722416659586 Eh   ::
         ::.................................................::
         :: total energy              -93.087303675588 Eh   ::
         :: zero point energy           0.425135091166 Eh   ::
         :: G(RRHO) w/o ZPVE           -0.060248075164 Eh   ::
         :: G(RRHO) contrib.            0.364887016001 Eh   ::
         :::::::::::::::::::::::::::::::::::::::::::::::::::::

           -------------------------------------------------
          | TOTAL ENERGY              -93.087303675588 Eh   |
          | TOTAL ENTHALPY            -92.628838378749 Eh   |
          | TOTAL FREE ENERGY         -92.722416659586 Eh   |
          | GRADIENT NORM               0.000044366711 Eh/α |
          | HOMO-LUMO GAP               0.390818084978 eV   |
           -------------------------------------------------

 * finished run on 2025/07/18 at 00:27:08.808
