   * xtb version 6.7.1 (edcfbbe) compiled by 'albert@albert-system' on 2024-07-22

   ID    Z sym.   atoms
    1    6 C      1, 3-11, 13-16, 18-24, 26, 27, 29-32, 34, 35
    2    8 O      2, 12
    3    7 N      17, 25, 28, 33
    4    1 H      36-57

          program call               : xtb data2507/toluene/Me-DOC/Me-DOC_toluene_S0_crest.xyz --gfn 2 --gbsa toluene --ohess vtight --parallel 40 --molden --ceasefiles --namespace data2507/toluene/Me-DOC/Me-DOC_toluene_S0_finalOpt
      * Solvation model:               GBSA
        Solvent                        toluene
        Solvent mass                       9.2140E+01 g/mol
          :  Hamiltonian                  GFN2-xTB          :
 * total energy  :   -93.1680449 Eh     change       -0.2787871E-08 Eh
 * total energy  :   -93.1680999 Eh     change       -0.5497728E-04 Eh
 * total energy  :   -93.1681191 Eh     change       -0.1919313E-04 Eh
 * total energy  :   -93.1681273 Eh     change       -0.8155521E-05 Eh
 * total energy  :   -93.1681415 Eh     change       -0.1424966E-04 Eh
 * total energy  :   -93.1681436 Eh     change       -0.2059178E-05 Eh
 * total energy  :   -93.1681482 Eh     change       -0.4673920E-05 Eh
 * total energy  :   -93.1681528 Eh     change       -0.4579825E-05 Eh
 * total energy  :   -93.1681541 Eh     change       -0.1280136E-05 Eh
 * total energy  :   -93.1681562 Eh     change       -0.2045109E-05 Eh
 * total energy  :   -93.1681730 Eh     change       -0.6568698E-08 Eh
 * total energy  :   -93.1681735 Eh     change       -0.4523732E-06 Eh
 * total energy  :   -93.1681735 Eh     change        0.2462775E-07 Eh
 * total energy  :   -93.1681737 Eh     change       -0.2492752E-06 Eh
 * total energy  :   -93.1681740 Eh     change       -0.2982872E-06 Eh
 * total energy  :   -93.1681744 Eh     change       -0.3894452E-06 Eh
 * total energy  :   -93.1681747 Eh     change       -0.2943189E-06 Eh
 * total energy  :   -93.1681749 Eh     change       -0.1727009E-06 Eh
 * total energy  :   -93.1681749 Eh     change       -0.1945058E-07 Eh
   *** GEOMETRY OPTIMIZATION CONVERGED AFTER 34 ITERATIONS ***

 final structure:
================
57
 xtb: 6.7.1 (edcfbbe)
C           -6.72328715281956       -3.72772553722791        0.00406336377288
O           -5.34730869655624       -4.03446769379673       -0.01268044720257
C           -4.44959338981857       -3.00054000836385       -0.01236496519428
C           -3.10061355943554       -3.38978132790511       -0.03540681622280
C           -2.07776144118357       -2.46739871677435       -0.02840999217479
C           -2.41238177102845       -1.11970856005876        0.01432871637780
C           -3.76430007740877       -0.71715779820111        0.00445515126829
C           -4.78968485864475       -1.65817546767055       -0.00359098758066
C           -3.76470722415830        0.71859077295553       -0.01262099788970
C           -4.79066116074320        1.65899089027285       -0.00551909750583
C           -4.45138359092973        3.00155961009883        0.00315346583389
O           -5.34973608748155        4.03493011258651        0.00236186507562
C           -6.72550109142296        3.72733265015951       -0.01639055108988
C           -3.10265015513397        3.39160553640270        0.02719961378810
C           -2.07923357243571        2.46983089949373        0.02115873030190
C           -2.41300898646555        1.12192905782082       -0.02165678138487
N           -1.59902731277769        0.00134437142548       -0.00345274074721
C           -0.20524839141677        0.00148862490204       -0.00359159546315
C            0.50100167943979       -0.81226183863923        0.88273130911279
C            1.87945053927940       -0.81932577987832        0.87352331693867
C            2.58703875320873        0.00110964676829       -0.00427729973935
C            4.05230732533362        0.00032955717939       -0.00436683131996
C            4.78418256991131        1.19621562061898        0.04973066339065
C            4.13513648108434        2.44314126694507        0.16162451107110
N            3.65007004092105        3.47748980478847        0.27682218263790
C            6.19175767010851        1.14765629152388        0.04704679491007
C            7.01151616380952        2.39102394205460        0.10981394153536
N            6.84277557892471       -0.00172007744680       -0.00388143383103
C            6.19014116076216       -1.15016696572843       -0.05504702757146
C            7.00808804890076       -2.39474132643522       -0.11754917553831
C            4.78250179736969       -1.19662967287110       -0.05835597501709
C            4.13159733381671       -2.44249215406411       -0.17144995884278
N            3.64503920394928       -3.47606224548178       -0.28762031537169
C            1.87934186520649        0.82202378400621       -0.88145992410258
C            0.50087532540883        0.81523126932194       -0.89004918891371
H           -7.01770735256192       -3.16430000970295       -0.88702474640333
H           -7.23641083152323       -4.68811563461961        0.01018308916107
H           -6.99607469261849       -3.16414456066338        0.90188218320532
H           -2.88579835344751       -4.44658693251639       -0.06382287714617
H           -1.05048912818856       -2.79452568928621       -0.06923748848001
H           -5.81535120806900       -1.32780343805148       -0.00961630387851
H           -5.81613231277540        1.32800749399563       -0.00017281942629
H           -6.99652869907713        3.16314534863426       -0.91436017604780
H           -7.23919544541808        4.68740194228049       -0.02378464675147
H           -7.02098362244214        3.16414528600976        0.87449038022846
H           -2.88849533282688        4.44854899871004        0.05552335120526
H           -1.05218584102018        2.79757999969520        0.06263617219670
H           -0.03651642764431       -1.42270319390010        1.59142544848868
H            2.41391305705783       -1.43979791369769        1.57799609058946
H            6.81309863759467        2.92587113808979        1.03824500045518
H            6.75638562079326        3.05820972695905       -0.71248669698950
H            8.06516090824342        2.13279988046355        0.05871602486208
H            6.80650666896398       -2.93154116611524       -1.04415094705398
H            6.75421110405063       -3.05958867393970        0.70705941916409
H            8.06221247523876       -2.13786308950496       -0.06960547621815
H            2.41365386639732        1.44215987223225       -1.58632757530134
H           -0.03682768400168        1.42619032344749       -1.59815216737029

          :  Hamiltonian                  GFN2-xTB          :
         :: gradient norm              0.000173803099 Eh/a0 ::
         :: HOMO-LUMO gap              1.623599140259 eV    ::
         :: SCC energy               -94.759860793058 Eh    ::
         :: -> dispersion             -0.072196694039 Eh    ::
         :: -> Gsolv                  -0.043961163890 Eh    ::
         :: repulsion energy           1.591685897722 Eh    ::

    * Orbital Energies and Occupations

         #    Occupation            Energy/Eh            Energy/eV
      -------------------------------------------------------------
         1        2.0000           -0.7152482             -19.4629
       ...           ...                  ...                  ...
        73        2.0000           -0.4429440             -12.0531
        74        2.0000           -0.4386747             -11.9369
        75        2.0000           -0.4348299             -11.8323
        76        2.0000           -0.4282441             -11.6531
        77        2.0000           -0.4271123             -11.6223
        78        2.0000           -0.4268488             -11.6151
        79        2.0000           -0.4216764             -11.4744
        80        2.0000           -0.4196636             -11.4196
        81        2.0000           -0.4095336             -11.1440
        82        2.0000           -0.3968687             -10.7993
        83        2.0000           -0.3965395             -10.7904
        84        2.0000           -0.3749433             -10.2027
        85        2.0000           -0.3571932              -9.7197 (HOMO)
        86                         -0.2975271              -8.0961 (LUMO)
        87                         -0.2960662              -8.0564
        88                         -0.2516280              -6.8471
        89                         -0.2454729              -6.6797
        90                         -0.2379350              -6.4745
        91                         -0.2248425              -6.1183
        92                         -0.2246841              -6.1140
        93                         -0.2212024              -6.0192
        94                         -0.2194010              -5.9702
        95                         -0.1893938              -5.1537
        96                         -0.1890625              -5.1447
       ...                                ...                  ...
       162                          1.1476319              31.2287
      -------------------------------------------------------------
                  HL-Gap            0.0596661 Eh            1.6236 eV

     #   Z          covCN         q      C6AA      α(0)
     1   6 C        3.642     0.037    20.302     6.478
     2   8 O        1.705    -0.294    18.888     5.868
     3   6 C        2.864     0.132    25.112     8.214
     4   6 C        2.924    -0.057    29.419     8.895
     5   6 C        2.909    -0.049    29.219     8.864
     6   6 C        3.073     0.036    27.116     8.538
     7   6 C        3.069    -0.017    28.355     8.731
     8   6 C        2.910    -0.072    29.807     8.952
     9   6 C        3.069    -0.017    28.355     8.731
    10   6 C        2.910    -0.072    29.807     8.952
    11   6 C        2.864     0.132    25.112     8.214
    12   8 O        1.705    -0.294    18.888     5.868
    13   6 C        3.642     0.037    20.302     6.478
    14   6 C        2.924    -0.057    29.419     8.895
    15   6 C        2.909    -0.049    29.219     8.864
    16   6 C        3.073     0.036    27.116     8.538
    17   7 N        2.801    -0.035    21.919     6.953
    18   6 C        2.912     0.070    26.428     8.430
    19   6 C        2.921    -0.041    29.026     8.835
    20   6 C        2.923    -0.027    28.671     8.781
    21   6 C        2.977    -0.000    28.034     8.685
    22   6 C        2.988     0.037    27.160     8.549
    23   6 C        2.973    -0.016    28.405     8.742
    24   6 C        1.909     0.121    28.137     8.567
    25   7 N        0.911    -0.264    26.844     7.493
    26   6 C        2.944     0.117    25.418     8.269
    27   6 C        3.760    -0.122    22.883     6.820
    28   7 N        1.848    -0.242    27.159     7.724
    29   6 C        2.944     0.117    25.418     8.269
    30   6 C        3.760    -0.122    22.883     6.820
    31   6 C        2.973    -0.016    28.405     8.742
    32   6 C        1.909     0.121    28.137     8.567
    33   7 N        0.911    -0.264    26.844     7.493
    34   6 C        2.923    -0.027    28.671     8.781
    35   6 C        2.921    -0.041    29.026     8.835
    36   1 H        0.924     0.045     2.387     2.416
    37   1 H        0.925     0.065     2.143     2.289
    38   1 H        0.924     0.045     2.385     2.415
    39   1 H        0.926     0.047     2.356     2.400
    40   1 H        0.926     0.042     2.427     2.436
    41   1 H        0.926     0.043     2.411     2.428
    42   1 H        0.926     0.043     2.411     2.428
    43   1 H        0.924     0.045     2.385     2.415
    44   1 H        0.925     0.065     2.143     2.289
    45   1 H        0.924     0.045     2.387     2.416
    46   1 H        0.926     0.047     2.356     2.400
    47   1 H        0.926     0.042     2.427     2.436
    48   1 H        0.926     0.055     2.262     2.352
    49   1 H        0.926     0.041     2.437     2.441
    50   1 H        0.925     0.071     2.073     2.252
    51   1 H        0.925     0.069     2.091     2.261
    52   1 H        0.925     0.079     1.986     2.204
    53   1 H        0.925     0.071     2.074     2.252
    54   1 H        0.925     0.070     2.090     2.261
    55   1 H        0.925     0.079     1.986     2.204
    56   1 H        0.926     0.041     2.437     2.441
    57   1 H        0.926     0.055     2.262     2.352

molecular dipole:
                 x           y           z       tot (Debye)
 q only:        0.126      -0.001       0.001
   full:       -0.035      -0.001       0.001       0.090

 projected vibrational frequencies (cm⁻¹)
eigval :       -0.00    -0.00     0.00     0.00     0.00     0.00
eigval :       13.94    20.69    23.03    43.44    56.41    58.26
eigval :       64.05    80.59    85.50    92.04    92.16    92.65
eigval :      104.65   107.84   123.95   141.88   149.69   160.36
eigval :      169.84   191.46   198.96   201.26   213.17   233.18
eigval :      233.26   256.32   260.00   265.44   277.51   327.56
eigval :      337.81   342.52   348.72   387.76   389.58   395.30
eigval :      395.66   400.50   425.96   433.26   452.43   469.28
eigval :      473.08   475.22   491.25   498.28   512.21   517.30
eigval :      553.74   570.35   583.56   585.61   602.48   603.77
eigval :      617.50   621.30   638.92   660.21   667.51   676.52
eigval :      688.22   698.71   717.80   733.56   782.74   807.04
eigval :      807.82   820.82   849.27   855.63   866.12   872.75
eigval :      879.50   905.57   907.86   919.06   927.11   928.93
eigval :      937.00   946.12   986.53  1007.03  1020.47  1020.67
eigval :     1026.67  1033.49  1054.79  1054.89  1108.68  1118.03
eigval :     1120.04  1120.07  1137.36  1143.55  1151.88  1152.49
eigval :     1155.66  1171.46  1178.14  1180.34  1204.48  1239.56
eigval :     1239.91  1265.71  1269.03  1270.33  1288.92  1309.13
eigval :     1315.92  1344.51  1351.74  1356.70  1377.21  1386.68
eigval :     1390.97  1395.09  1395.72  1396.38  1410.78  1413.72
eigval :     1417.45  1427.59  1446.52  1447.61  1448.82  1456.12
eigval :     1464.98  1465.09  1471.57  1477.89  1479.45  1489.95
eigval :     1494.32  1504.34  1527.26  1552.05  1568.75  1576.50
eigval :     1588.30  1602.97  1615.73  2350.63  2356.41  2929.00
eigval :     2929.06  2942.23  2942.46  3006.62  3007.02  3022.17
eigval :     3022.30  3022.72  3022.83  3064.54  3065.14  3080.96
eigval :     3083.04  3092.21  3092.49  3103.71  3104.93  3105.79
eigval :     3106.18  3109.17  3112.07

   temp. (K)  partition function   enthalpy   heat capacity  entropy
                                   cal/mol     cal/K/mol   cal/K/mol   J/K/mol
 298.15  VIB  0.517E+14            18293.938    110.581    115.126
         ROT  0.199E+08              888.752      2.981     36.380
         INT  0.103E+22            19182.690    113.562    151.505
         TR   0.950E+28             1481.254      4.968     44.237
         TOT                       20663.9440   118.5304   195.7426   818.9870

       T/K    H(0)-H(T)+PV         H(T)/Eh          T*S/Eh         G(T)/Eh
   ------------------------------------------------------------------------
    298.15    0.329301E-01    0.461408E+00    0.930036E-01    0.368404E+00
   ------------------------------------------------------------------------

         :::::::::::::::::::::::::::::::::::::::::::::::::::::
         ::                  THERMODYNAMIC                  ::
         :::::::::::::::::::::::::::::::::::::::::::::::::::::
         :: total free energy         -92.799770806388 Eh   ::
         ::.................................................::
         :: total energy              -93.168174894296 Eh   ::
         :: zero point energy           0.428477613222 Eh   ::
         :: G(RRHO) w/o ZPVE           -0.060073525314 Eh   ::
         :: G(RRHO) contrib.            0.368404087908 Eh   ::
         :::::::::::::::::::::::::::::::::::::::::::::::::::::

           -------------------------------------------------
          | TOTAL ENERGY              -93.168174894296 Eh   |
          | TOTAL ENTHALPY            -92.706767190235 Eh   |
          | TOTAL FREE ENERGY         -92.799770806388 Eh   |
          | GRADIENT NORM               0.000173752292 Eh/α |
          | HOMO-LUMO GAP               1.623598318900 eV   |
           -------------------------------------------------

 * finished run on 2025/07/18 at 00:27:02.050
