   * xtb version 6.7.1 (edcfbbe) compiled by 'albert@albert-system' on 2024-07-22

   ID    Z sym.   atoms
    1    6 C      1-5, 7-13, 15-18, 20-26, 28-32, 34-46, 48-54, 56-60, 62, 63
    2    7 N      6, 14, 19, 27, 33, 47, 55, 61
    3    1 H      64-97

          program call               : xtb data2507/gas/CzDCbTrz/CzDCbTrz_gas_S0_finalOpt.xtbopt.xyz --gfn 2 --spinpol --tblite --uhf 2 --ohess vtight --parallel 40 --molden --ceasefiles --namespace data2507/gas/CzDCbTrz/CzDCbTrz_gas_T1_preOpt
 * total energy  :  -158.5588618 Eh     change       -0.2154823E-07 Eh
 * total energy  :  -158.5622619 Eh     change       -0.3400144E-02 Eh
 * total energy  :  -158.5639986 Eh     change       -0.1736647E-02 Eh
 * total energy  :  -158.5642042 Eh     change       -0.2056025E-03 Eh
 * total energy  :  -158.5642601 Eh     change       -0.5589325E-04 Eh
 * total energy  :  -158.5643146 Eh     change       -0.5457965E-04 Eh
 * total energy  :  -158.5643293 Eh     change       -0.1462854E-04 Eh
 * total energy  :  -158.5643416 Eh     change       -0.1230683E-04 Eh
 * total energy  :  -158.5643553 Eh     change       -0.1373473E-04 Eh
 * total energy  :  -158.5643744 Eh     change       -0.1906751E-04 Eh
 * total energy  :  -158.5646099 Eh     change       -0.8560762E-06 Eh
 * total energy  :  -158.5646103 Eh     change       -0.3729163E-06 Eh
 * total energy  :  -158.5646106 Eh     change       -0.3100977E-06 Eh
 * total energy  :  -158.5646111 Eh     change       -0.4667054E-06 Eh
 * total energy  :  -158.5646117 Eh     change       -0.6150142E-06 Eh
 * total energy  :  -158.5646135 Eh     change       -0.1826575E-05 Eh
 * total energy  :  -158.5646150 Eh     change       -0.1508178E-05 Eh
 * total energy  :  -158.5646168 Eh     change       -0.1753168E-05 Eh
 * total energy  :  -158.5646168 Eh     change       -0.1618329E-07 Eh
   *** GEOMETRY OPTIMIZATION CONVERGED AFTER 44 ITERATIONS ***

 final structure:
================
97
 xtb: 6.7.1 (edcfbbe)
C            7.26463190965918        4.79157936009926       -0.47222763632458
C            7.95024821436753        3.59169375849939       -0.36179106836770
C            7.25610667427153        2.40331774273728       -0.25120961483216
C            5.86111127395238        2.40504538799750       -0.25071489061223
C            5.12567258123635        1.15359948938116       -0.12686298869896
N            5.82735546388791        0.00942724132268        0.00691270643707
C            5.12918830002345       -1.13705969026395        0.13882190576209
C            5.86863390830467       -2.38596849459141        0.26482388450684
C            5.18826489079931       -3.59939194418256        0.37498471912111
C            5.89264755530347       -4.78061875352444        0.48690316955613
C            7.27983649102318       -4.76756276488342        0.49060411020879
C            7.96157387509374       -3.56532870367786        0.38174017497377
C            7.26360259769645       -2.37939431456923        0.26904091595583
N            3.82445090676100       -1.16210914875921        0.15545145328739
C            3.14776887167648        0.00488157614919        0.00324454631018
C            1.73136919252485        0.00253946597745        0.00132744025984
C            1.01033140193500       -1.18343228383047        0.25144294866860
C           -0.36463628279000       -1.18607097308511        0.25767982204517
N           -1.06207263127171       -2.38309279291061        0.51294740731699
C           -2.12709848627557       -2.53954982376676        1.38007855913310
C           -2.55614767044762       -1.70349315963363        2.40048308302743
C           -3.66713474065199       -2.08909370244925        3.12377605405311
C           -4.32409693535440       -3.29099733789145        2.86482175619778
C           -3.86649499940958       -4.15662716749446        1.89262153951077
C           -2.75502194690110       -3.78367964813421        1.14777011970646
C           -2.00810833818200       -4.41881083791281        0.10147282083700
N           -2.17797281692912       -5.59140003013256       -0.48433697900528
C           -1.33305954558470       -5.91799228039921       -1.44130067795112
C           -0.29047188093725       -5.09725462459376       -1.87094274195579
C           -0.08987675938102       -3.86468591344951       -1.27271030154532
C           -0.96472346410170       -3.51904623375967       -0.25443437000051
C           -1.09004256360992       -0.00215158609095       -0.00236589557929
N           -2.49148431252038       -0.00451950280001       -0.00423748647067
C           -3.29561202817082       -0.79169391172305       -0.80109599355887
C           -2.93867490147556       -1.69016213543151       -1.79678820398081
C           -3.95151926711716       -2.36573870145542       -2.44892624685508
C           -5.28951933534485       -2.13652541855964       -2.13998224084212
C           -5.65162955937364       -1.20340183117371       -1.18601475234111
C           -4.65171599300515       -0.51896711322590       -0.51265732732377
C           -4.65485531728623        0.50252885579520        0.49822553711935
C           -5.65896569812597        1.18355119585184        1.16878959376105
C           -5.30269648391558        2.11795157510075        2.12370576704025
C           -3.96634823971025        2.35176558884614        2.43632517813797
C           -2.94939451784842        1.67963312948383        1.78702628197551
C           -3.30049110143813        0.77990385249243        0.79039600530545
C           -0.36790526240434        1.18417667693436       -0.26053350255844
N           -1.06867476703996        2.37887080825704       -0.51759827031821
C           -2.13210375506993        2.53172395549974       -1.38734081451049
C           -2.55569381845643        1.69433323543346       -2.40893330247761
C           -3.66625875088206        2.07613106941905       -3.13488867147590
C           -4.32808225295943        3.27567589904460       -2.87737753287033
C           -3.87591594219532        4.14275912037934       -1.90393110268164
C           -2.76497850016748        3.77359755096249       -1.15640200665634
C           -2.02292139445265        4.41115734787512       -0.10813269729243
N           -2.19840180029473        5.58300452680823        0.47749772146603
C           -1.35708329842617        5.91241579090768        1.43665681791206
C           -0.31268131235610        5.09529217287889        1.86874936691216
C           -0.10619162339249        3.86358537799296        1.27073927096368
C           -0.97724438126418        3.51503572074794        0.25020424463271
C            1.00704406113019        1.18610649095282       -0.25068999106914
N            3.82090183235457        1.17410030358482       -0.14707046885615
C            5.17682748144782        3.61612983269819       -0.36246141472892
C            5.87739890437662        4.79981263006168       -0.47225179062954
H            7.81010988297655        5.71982378674122       -0.55796825820931
H            9.03047716459597        3.58619382144437       -0.36192155005047
H            7.77582086627844        1.46158380969532       -0.16409712604511
H            4.10916543604199       -3.59336699722637        0.36983575064575
H            5.36235289196094       -5.71800348123736        0.57151509929785
H            7.82830505389725       -5.69388752833390        0.57803776595148
H            9.04177436817473       -3.55607286369114        0.38473244738733
H            7.78027256815634       -1.43587757571547        0.18309205080720
H            1.55771540687634       -2.08553717334450        0.47259569460872
H           -2.03525661626763       -0.78709404819427        2.63004566026728
H           -4.03072682700195       -1.44472728917884        3.91031356196472
H           -5.19315683021225       -3.55166254323034        3.44977617955948
H           -4.34673022493523       -5.10368881605952        1.70486871630560
H           -1.49311148649921       -6.88673060834004       -1.89424871844830
H            0.35864608075332       -5.42866950936252       -2.66633221858557
H            0.70799286242348       -3.20719789243816       -1.58744414550131
H           -1.90555501206962       -1.85124248538629       -2.06627614078620
H           -3.69860031365212       -3.08217417294573       -3.21614126293162
H           -6.05348533524920       -2.68753245346835       -2.66732058157731
H           -6.69048585241750       -1.00769293115514       -0.96865421199323
H           -6.69653972751796        0.98426597706907        0.94857150172845
H           -6.07000150780628        2.66636029520649        2.64890068351121
H           -3.71800710009381        3.06911055793244        3.20418503454046
H           -1.91758342325974        1.84428006292737        2.05935788312258
H           -2.03100442858720        0.77982139380682       -2.63737356745020
H           -4.02563175594191        1.43062308064575       -3.92242941668540
H           -5.19664553867541        3.53335070072457       -3.46439192795946
H           -4.35998635638706        5.08806197643424       -1.71716335728367
H           -1.52172105672340        6.88049896554176        1.88936561859913
H            0.33327112929229        5.42883850619358        2.66582059929596
H            0.69322334571991        3.20888334039132        1.58734131400735
H            1.55200389568832        2.09003030968643       -0.47040472736238
H            4.09774613919333        3.60635449322781       -0.36016030959585
H            5.34407632847907        5.73537062988036       -0.55802293677713

 projected vibrational frequencies (cm⁻¹)
eigval :       -0.00    -0.00    -0.00    -0.00     0.00     0.00
eigval :        9.95    12.69    14.22    19.05    20.86    21.53
eigval :       26.76    27.69    29.59    39.70    47.29    49.81
eigval :       53.58    60.47    69.30    93.68   100.97   103.76
eigval :      105.03   108.14   117.61   120.43   122.59   142.58
eigval :      149.19   153.27   170.01   178.46   179.59   179.89
eigval :      200.79   214.27   217.40   229.33   232.88   247.75
eigval :      251.48   264.89   274.07   277.13   281.17   290.36
eigval :      315.10   353.07   354.94   366.11   366.89   369.65
eigval :      371.19   390.61   403.30   403.89   404.97   409.55
eigval :      411.68   420.19   424.92   427.92   436.55   438.34
eigval :      439.81   458.35   489.24   498.64   505.09   516.75
eigval :      521.45   522.27   535.24   539.52   541.78   541.89
eigval :      543.88   547.04   549.35   558.89   562.03   567.63
eigval :      586.41   587.31   587.98   588.30   589.29   604.05
eigval :      608.81   623.58   632.99   639.88   645.73   655.75
eigval :      663.10   669.64   672.75   680.19   680.81   683.03
eigval :      685.63   703.89   709.82   721.57   722.17   745.96
eigval :      755.98   761.02   762.53   764.13   769.54   777.93
eigval :      778.21   780.91   781.29   789.49   789.64   800.54
eigval :      829.04   839.41   850.32   863.40   870.68   872.67
eigval :      876.39   877.39   880.71   880.74   893.94   895.02
eigval :      895.10   898.94   900.31   901.29   902.77   904.74
eigval :      905.89   908.85   908.94   912.31   912.58   921.23
eigval :      923.53   923.82   925.80   925.83   926.54   927.50
eigval :      930.26   930.43   939.05   979.36   984.71   990.08
eigval :     1010.61  1020.96  1022.53  1037.79  1062.41  1064.80
eigval :     1064.94  1069.47  1072.59  1074.05  1075.77  1088.33
eigval :     1088.56  1094.05  1109.42  1110.14  1118.74  1134.33
eigval :     1142.02  1143.31  1144.29  1147.88  1157.14  1171.64
eigval :     1174.02  1175.90  1177.15  1178.75  1179.68  1180.11
eigval :     1180.58  1182.93  1190.11  1192.76  1205.51  1219.37
eigval :     1229.96  1233.26  1234.73  1237.81  1259.69  1267.74
eigval :     1274.62  1281.80  1288.96  1291.39  1291.53  1295.27
eigval :     1295.91  1297.25  1305.20  1324.27  1329.43  1330.55
eigval :     1331.72  1334.74  1337.59  1344.84  1352.33  1352.92
eigval :     1355.35  1363.57  1384.59  1385.51  1404.45  1409.33
eigval :     1419.07  1419.45  1422.52  1428.84  1430.43  1433.63
eigval :     1440.02  1449.43  1464.45  1465.62  1468.65  1469.42
eigval :     1479.28  1480.16  1486.27  1486.53  1486.78  1499.45
eigval :     1545.54  1548.80  1550.39  1570.19  1574.60  1575.31
eigval :     1579.78  1580.90  1585.91  1586.01  1586.47  1586.72
eigval :     1587.41  1594.58  1605.90  1606.16  1607.50  3066.61
eigval :     3066.67  3070.13  3070.18  3074.70  3074.81  3079.29
eigval :     3079.47  3079.99  3080.20  3082.41  3082.42  3084.73
eigval :     3085.59  3089.68  3090.01  3091.11  3091.25  3091.32
eigval :     3092.80  3097.71  3097.83  3098.74  3099.36  3099.43
eigval :     3099.91  3099.96  3100.54  3100.70  3100.98  3107.97
eigval :     3108.04  3110.59  3111.76

   temp. (K)  partition function   enthalpy   heat capacity  entropy
                                   cal/mol     cal/K/mol   cal/K/mol   J/K/mol
 298.15  VIB  0.134E+24            28847.678    180.739    179.521
         ROT  0.674E+08              888.752      2.981     38.804
         INT  0.902E+31            29736.430    183.720    218.326
         TR   0.222E+29             1481.254      4.968     45.921
         TOT                       31217.6843   188.6883   264.2467  1105.6083

       T/K    H(0)-H(T)+PV         H(T)/Eh          T*S/Eh         G(T)/Eh
   ------------------------------------------------------------------------
    298.15    0.497485E-01    0.773464E+00    0.125552E+00    0.647912E+00
   ------------------------------------------------------------------------

         :::::::::::::::::::::::::::::::::::::::::::::::::::::
         ::                  THERMODYNAMIC                  ::
         :::::::::::::::::::::::::::::::::::::::::::::::::::::
         :: total free energy        -157.916705005314 Eh   ::
         ::.................................................::
         :: total energy             -158.564616780859 Eh   ::
         :: zero point energy           0.723715377093 Eh   ::
         :: G(RRHO) w/o ZPVE           -0.075803601547 Eh   ::
         :: G(RRHO) contrib.            0.647911775545 Eh   ::
         :::::::::::::::::::::::::::::::::::::::::::::::::::::

           -------------------------------------------------
          | TOTAL ENERGY             -158.564616780859 Eh   |
          | TOTAL ENTHALPY           -157.791152857282 Eh   |
          | TOTAL FREE ENERGY        -157.916705005314 Eh   |
          | GRADIENT NORM               0.000095611677 Eh/α |
           -------------------------------------------------

 * finished run on 2025/07/16 at 17:30:52.886
