   * xtb version 6.7.1 (edcfbbe) compiled by 'albert@albert-system' on 2024-07-22

   ID    Z sym.   atoms
    1    6 C      1-5, 7-13, 15-18, 20-26, 28-32, 34-46, 48-54, 56-60, 62, 63
    2    7 N      6, 14, 19, 27, 33, 47, 55, 61
    3    1 H      64-97

          program call               : xtb data2507/gas/CzDCbTrz/CzDCbTrz_gas_S0_crest.xyz --gfn 2 --ohess vtight --parallel 40 --molden --ceasefiles --namespace data2507/gas/CzDCbTrz/CzDCbTrz_gas_S0_finalOpt
          :  Hamiltonian                  GFN2-xTB          :
 * total energy  :  -158.6368736 Eh     change       -0.4619181E-08 Eh
 * total energy  :  -158.6368751 Eh     change       -0.1496863E-05 Eh
 * total energy  :  -158.6368758 Eh     change       -0.7528391E-06 Eh
 * total energy  :  -158.6368771 Eh     change       -0.1301354E-05 Eh
 * total energy  :  -158.6368781 Eh     change       -0.9053477E-06 Eh
 * total energy  :  -158.6368787 Eh     change       -0.6454688E-06 Eh
 * total energy  :  -158.6368792 Eh     change       -0.4745382E-06 Eh
 * total energy  :  -158.6368798 Eh     change       -0.6543980E-06 Eh
 * total energy  :  -158.6368807 Eh     change       -0.9213648E-06 Eh
 * total energy  :  -158.6368817 Eh     change       -0.9436274E-06 Eh
 * total energy  :  -158.6368846 Eh     change       -0.6202736E-06 Eh
 * total energy  :  -158.6368851 Eh     change       -0.4640095E-06 Eh
 * total energy  :  -158.6368854 Eh     change       -0.2860912E-06 Eh
 * total energy  :  -158.6368856 Eh     change       -0.2140420E-06 Eh
 * total energy  :  -158.6368859 Eh     change       -0.2427268E-06 Eh
 * total energy  :  -158.6368861 Eh     change       -0.2788786E-06 Eh
 * total energy  :  -158.6368864 Eh     change       -0.2887665E-06 Eh
 * total energy  :  -158.6368867 Eh     change       -0.2381177E-06 Eh
 * total energy  :  -158.6368867 Eh     change       -0.3471314E-08 Eh
   *** GEOMETRY OPTIMIZATION CONVERGED AFTER 22 ITERATIONS ***

 final structure:
================
97
 xtb: 6.7.1 (edcfbbe)
C            7.20841358217128        4.81086542268662       -0.17313606917740
C            7.90667079582292        3.61311194412817       -0.17819205847854
C            7.22433110071337        2.41310585152170       -0.13393800258551
C            5.83156773606358        2.40445670079462       -0.08486474253286
C            5.10551430337546        1.13658027490319       -0.03905972513659
N            5.80957906228644        0.00961243253377        0.00545353629043
C            5.10978158451486       -1.12004555051676        0.04862090042153
C            5.84060724403903       -2.38519733072992        0.09362452229304
C            5.14788782927636       -3.59480392990324        0.08321855514360
C            5.84100604389655       -4.78860631889143        0.12522899295101
C            7.22635148634581       -4.78658256041991        0.17851816544513
C            7.92002760743322       -3.58620425911533        0.18911928723605
C            7.23325012329173       -2.38866887900099        0.14650475037769
N            3.77898207830657       -1.16842171677440        0.05219521778961
C            3.15819480218877        0.00451153223617        0.00396847122819
C            1.69520551633646        0.00188911469372        0.00312855055879
C            1.00012295262185       -1.17285689442969        0.26611791111134
C           -0.38614422461845       -1.18413603448459        0.27008413037586
N           -1.06379996106839       -2.38279533782606        0.53154381516608
C           -2.14562154425438       -2.55276745021745        1.38014203467392
C           -2.62125198186626       -1.70992961981029        2.37272567582765
C           -3.73332365322892       -2.11712047311739        3.08380952261996
C           -4.34298660438195       -3.34604994957720        2.84089190049828
C           -3.83464228664231       -4.21783317664263        1.89937934219670
C           -2.72241502531295       -3.82367183903481        1.16798292592450
C           -1.93187875044435       -4.46187611204825        0.15358209641012
N           -2.06177040944403       -5.65844811793995       -0.39737021037540
C           -1.18166299952855       -5.97764696892827       -1.32729690196030
C           -0.15531573887984       -5.13847132048616       -1.75846588546450
C           -0.00713289824413       -3.88082030158274       -1.19643233178724
C           -0.91294539179972       -3.54010240585159       -0.20508258766735
C           -1.10296571975481       -0.00273738135160       -0.00016191304537
N           -2.49903946772330       -0.00521163972204       -0.00276736791750
C           -3.30653375129671       -0.82324993823708       -0.77356399685122
C           -2.95238236739696       -1.74679355434420       -1.74442277924365
C           -3.96760810009944       -2.43731050262443       -2.37795179582971
C           -5.30474514515785       -2.19467031220407       -2.07775363334970
C           -5.66277599785025       -1.23333004090223       -1.15326474448734
C           -4.65944590198185       -0.53460094576760       -0.49725016819743
C           -4.66346389113836        0.51917029176084        0.47929466375040
C           -5.67218372845957        1.21593794574432        1.12909681797144
C           -5.32173218057261        2.17852110378956        2.05518722822043
C           -3.98692220287173        2.42420650976331        2.36317003668237
C           -2.96646433799233        1.73563135711997        1.73596854652089
C           -3.31283088140957        0.81098849964334        0.76333679061142
C           -0.38941024789160        1.18108777570176       -0.26828161777700
N           -1.07015565419786        2.37774566227846       -0.53090119113285
C           -2.14980453058084        2.54518042671236       -1.38270786438651
C           -2.61932717270116        1.70202203378832       -2.37792043199380
C           -3.73033506656531        2.10648330437618       -3.09220732656667
C           -4.34484890497563        3.33308298778916       -2.84973142708841
C           -3.84263861556174        4.20526801982672       -1.90530038894728
C           -2.73156292987338        3.81385608122104       -1.17069388830933
C           -1.94655895704203        4.45327827679565       -0.15275665370478
N           -2.08241378275910        5.64847383501592        0.39975646083801
C           -1.20641512214971        5.96920438683292        1.33303708701489
C           -0.17832876801404        5.13305327161686        1.76595699142387
C           -0.02393097923130        3.87685894052446        1.20235722383082
C           -0.92558643038491        3.53451057250795        0.20779173162865
C            0.99682175247666        1.17438657757695       -0.26107811247317
N            3.77456652201870        1.17980544052601       -0.04402511755182
C            5.13424360136572        3.61145366629446       -0.07977749765370
C            5.82293373398664        4.80775818686490       -0.12351862757743
H            7.74463691658715        5.74788930763828       -0.20802362127513
H            8.98602684520514        3.61851354596755       -0.21720639784124
H            7.75020292777856        1.47142683042161       -0.13842097431051
H            4.07014962526491       -3.57816612515585        0.04051753789886
H            5.30265553400185       -5.72498532317964        0.11693258549544
H            7.76604752850965       -5.72166340247974        0.21194568823632
H            8.99929030208944       -3.58763269436651        0.23099474838997
H            7.75552397454029       -1.44501356690512        0.15501406286580
H            1.55130012736761       -2.06971527941182        0.49884861598627
H           -2.13841436976779       -0.77081306873009        2.59415616616546
H           -4.13358421498157       -1.46707094380091        3.84751010297000
H           -5.21413453765699       -3.62353535708549        3.41494300767175
H           -4.27530353427949       -5.18637759489652        1.72532460051996
H           -1.30305718335208       -6.96086336011812       -1.76163227848410
H            0.51921554863361       -5.46938889915694       -2.53299828773520
H            0.77047629771026       -3.20509706985661       -1.52415835585814
H           -1.92059315439939       -1.92034587567838       -2.01226848548883
H           -3.71555715045615       -3.17616637783709       -3.12393439392654
H           -6.06999735947689       -2.75757331366536       -2.59051295239840
H           -6.70050759097305       -1.02354176754488       -0.94386527325834
H           -6.70819355665333        1.00381798083820        0.91360677709041
H           -6.09123313869748        2.74003909279835        2.56308241021277
H           -3.74089061964871        3.16394884269108        3.11027827866232
H           -1.93665482903280        1.91165134355811        2.00977787215676
H           -2.13268361966853        0.76474083997844       -2.59883366590608
H           -4.12585362479134        1.45614968897001       -3.85813243185394
H           -5.21491281251380        3.60848981642272       -3.42641953903312
H           -4.28715416173914        5.17207816446415       -1.73141037309103
H           -1.33266600380029        6.95125474275880        1.76862254539380
H            0.49270440356740        5.46516393773824        2.54301301734818
H            0.75508848500931        3.20335225570105        1.53130399347633
H            1.54552498291309        2.07310907694994       -0.49245008595783
H            4.05646452108030        3.59088798819611       -0.03994815769430
H            5.28101445014605        5.74210543799226       -0.11951186100757

          :  Hamiltonian                  GFN2-xTB          :
         :: gradient norm              0.000039056443 Eh/a0 ::
         :: HOMO-LUMO gap              1.818750022881 eV    ::
         :: SCC energy              -161.510763080631 Eh    ::
         :: -> dispersion             -0.163316051509 Eh    ::
         :: repulsion energy           2.873876416464 Eh    ::

    * Orbital Energies and Occupations

         #    Occupation            Energy/Eh            Energy/eV
      -------------------------------------------------------------
         1        2.0000           -0.6975623             -18.9816
       ...           ...                  ...                  ...
       135        2.0000           -0.4135322             -11.2528
       136        2.0000           -0.4126623             -11.2291
       137        2.0000           -0.4076008             -11.0914
       138        2.0000           -0.3901129             -10.6155
       139        2.0000           -0.3892961             -10.5933
       140        2.0000           -0.3816242             -10.3845
       141        2.0000           -0.3800338             -10.3412
       142        2.0000           -0.3785692             -10.3014
       143        2.0000           -0.3757375             -10.2243
       144        2.0000           -0.3753638             -10.2142
       145        2.0000           -0.3709378             -10.0937
       146        2.0000           -0.3652801              -9.9398
       147        2.0000           -0.3641969              -9.9103 (HOMO)
       148                         -0.2973591              -8.0916 (LUMO)
       149                         -0.2931660              -7.9775
       150                         -0.2623424              -7.1387
       151                         -0.2613196              -7.1109
       152                         -0.2561667              -6.9706
       153                         -0.2538865              -6.9086
       154                         -0.2474319              -6.7330
       155                         -0.2355596              -6.4099
       156                         -0.2344966              -6.3810
       157                         -0.2338183              -6.3625
       158                         -0.2338096              -6.3623
       ...                                ...                  ...
       286                          0.7448377              20.2681
      -------------------------------------------------------------
                  HL-Gap            0.0668378 Eh            1.8188 eV

     #   Z          covCN         q      C6AA      α(0)
     1   6 C        2.920    -0.022    28.561     8.764
     2   6 C        2.918    -0.027    28.669     8.780
     3   6 C        2.924    -0.023    28.575     8.766
     4   6 C        2.984    -0.000    28.029     8.684
     5   6 C        2.982     0.203    23.691     7.984
     6   7 N        1.844    -0.291    28.401     7.898
     7   6 C        2.983     0.203    23.690     7.984
     8   6 C        2.984    -0.000    28.029     8.684
     9   6 C        2.924    -0.023    28.574     8.766
    10   6 C        2.918    -0.027    28.672     8.781
    11   6 C        2.920    -0.022    28.561     8.764
    12   6 C        2.918    -0.027    28.669     8.780
    13   6 C        2.924    -0.023    28.575     8.766
    14   7 N        1.845    -0.296    28.516     7.914
    15   6 C        2.988     0.203    23.693     7.985
    16   6 C        2.982    -0.002    28.072     8.691
    17   6 C        2.926    -0.045    29.124     8.850
    18   6 C        2.911     0.055    26.774     8.485
    19   7 N        2.798    -0.046    22.121     6.985
    20   6 C        3.080     0.049    26.811     8.489
    21   6 C        2.910    -0.047    29.164     8.855
    22   6 C        2.925    -0.029    28.727     8.790
    23   6 C        2.921    -0.037    28.923     8.819
    24   6 C        2.912    -0.026    28.643     8.776
    25   6 C        3.064    -0.020    28.440     8.745
    26   6 C        3.073     0.072    26.308     8.410
    27   7 N        1.832    -0.228    26.824     7.675
    28   6 C        2.924     0.050    26.873     8.501
    29   6 C        2.922    -0.045    29.114     8.848
    30   6 C        2.915    -0.035    28.873     8.811
    31   6 C        3.074     0.039    27.038     8.525
    32   6 C        2.912     0.042    27.049     8.528
    33   7 N        2.802    -0.041    22.033     6.971
    34   6 C        3.074     0.050    26.813     8.490
    35   6 C        2.911    -0.048    29.184     8.858
    36   6 C        2.925    -0.031    28.768     8.796
    37   6 C        2.921    -0.038    28.937     8.821
    38   6 C        2.914    -0.031    28.769     8.795
    39   6 C        3.069    -0.015    28.306     8.724
    40   6 C        3.069    -0.015    28.306     8.724
    41   6 C        2.914    -0.031    28.769     8.795
    42   6 C        2.921    -0.038    28.937     8.821
    43   6 C        2.925    -0.031    28.768     8.796
    44   6 C        2.911    -0.048    29.184     8.858
    45   6 C        3.074     0.050    26.813     8.490
    46   6 C        2.911     0.055    26.774     8.485
    47   7 N        2.798    -0.046    22.121     6.985
    48   6 C        3.080     0.049    26.811     8.489
    49   6 C        2.910    -0.047    29.164     8.855
    50   6 C        2.925    -0.029    28.727     8.790
    51   6 C        2.921    -0.037    28.923     8.819
    52   6 C        2.912    -0.026    28.643     8.776
    53   6 C        3.064    -0.020    28.440     8.745
    54   6 C        3.073     0.072    26.308     8.410
    55   7 N        1.832    -0.228    26.824     7.675
    56   6 C        2.924     0.050    26.873     8.501
    57   6 C        2.922    -0.045    29.114     8.848
    58   6 C        2.915    -0.035    28.873     8.811
    59   6 C        3.075     0.040    27.038     8.525
    60   6 C        2.926    -0.045    29.124     8.850
    61   7 N        1.845    -0.296    28.516     7.914
    62   6 C        2.924    -0.023    28.574     8.766
    63   6 C        2.918    -0.027    28.672     8.781
    64   1 H        0.926     0.039     2.466     2.456
    65   1 H        0.926     0.039     2.467     2.456
    66   1 H        0.926     0.056     2.247     2.344
    67   1 H        0.926     0.054     2.272     2.357
    68   1 H        0.926     0.039     2.467     2.456
    69   1 H        0.926     0.039     2.466     2.456
    70   1 H        0.926     0.039     2.467     2.456
    71   1 H        0.926     0.056     2.247     2.344
    72   1 H        0.926     0.071     2.071     2.250
    73   1 H        0.926     0.027     2.625     2.534
    74   1 H        0.926     0.034     2.530     2.487
    75   1 H        0.926     0.035     2.511     2.478
    76   1 H        0.926     0.050     2.325     2.384
    77   1 H        0.925     0.036     2.499     2.472
    78   1 H        0.926     0.034     2.534     2.489
    79   1 H        0.926     0.030     2.585     2.514
    80   1 H        0.926     0.019     2.754     2.595
    81   1 H        0.926     0.032     2.559     2.502
    82   1 H        0.926     0.033     2.538     2.491
    83   1 H        0.926     0.035     2.516     2.481
    84   1 H        0.926     0.035     2.516     2.481
    85   1 H        0.926     0.033     2.538     2.491
    86   1 H        0.926     0.032     2.559     2.502
    87   1 H        0.926     0.019     2.754     2.595
    88   1 H        0.926     0.027     2.626     2.534
    89   1 H        0.926     0.034     2.530     2.487
    90   1 H        0.926     0.035     2.511     2.478
    91   1 H        0.926     0.050     2.325     2.384
    92   1 H        0.925     0.036     2.499     2.472
    93   1 H        0.926     0.034     2.534     2.489
    94   1 H        0.926     0.030     2.585     2.514
    95   1 H        0.926     0.071     2.071     2.250
    96   1 H        0.926     0.054     2.272     2.357
    97   1 H        0.926     0.039     2.467     2.456

molecular dipole:
                 x           y           z       tot (Debye)
 q only:        0.890       0.002      -0.001
   full:        1.670       0.003       0.000       4.246

 projected vibrational frequencies (cm⁻¹)
eigval :       -0.00    -0.00    -0.00     0.00     0.00     0.00
eigval :        7.03    12.89    14.83    19.55    21.49    21.64
eigval :       22.09    27.47    27.96    40.29    47.39    52.41
eigval :       55.96    60.88    69.66    91.96    92.55   103.73
eigval :      104.98   107.07   120.10   121.80   125.33   144.24
eigval :      151.31   153.25   169.66   179.82   181.85   186.58
eigval :      187.73   204.70   221.87   230.50   240.64   244.16
eigval :      261.35   267.96   276.98   279.22   282.06   295.17
eigval :      332.41   350.67   359.91   364.13   364.91   376.39
eigval :      386.91   402.85   402.90   403.74   407.23   414.91
eigval :      422.37   426.45   428.22   437.18   438.76   441.65
eigval :      444.15   481.80   497.17   511.08   512.59   519.34
eigval :      521.97   523.81   537.09   542.60   544.07   545.03
eigval :      550.11   552.85   563.47   576.81   587.36   587.57
eigval :      592.85   596.44   596.55   612.59   623.88   624.21
eigval :      627.02   639.49   649.50   652.11   653.92   671.93
eigval :      674.22   683.00   683.42   684.95   688.83   700.59
eigval :      705.91   724.73   725.57   731.12   749.68   753.82
eigval :      757.10   763.65   771.37   775.76   779.10   779.18
eigval :      783.34   784.48   796.04   799.19   799.28   847.47
eigval :      859.53   869.71   875.51   877.57   877.97   880.03
eigval :      881.74   881.77   891.02   896.41   901.33   902.24
eigval :      905.26   906.82   908.06   908.99   909.94   910.21
eigval :      910.52   911.78   917.69   918.95   925.31   925.50
eigval :      926.14   926.17   929.07   930.02   931.02   934.29
eigval :      934.48   958.32   990.48   999.00  1012.28  1024.40
eigval :     1025.84  1048.20  1050.37  1066.40  1066.59  1072.19
eigval :     1074.92  1075.01  1076.23  1087.84  1091.95  1092.37
eigval :     1104.80  1108.50  1112.45  1121.64  1143.83  1145.57
eigval :     1150.25  1150.49  1153.64  1165.86  1173.92  1174.79
eigval :     1177.36  1178.93  1180.57  1180.91  1181.34  1183.65
eigval :     1190.82  1197.64  1203.07  1207.25  1212.46  1228.19
eigval :     1230.69  1237.27  1238.54  1248.87  1268.44  1269.75
eigval :     1287.74  1288.87  1294.07  1297.65  1299.56  1299.89
eigval :     1307.58  1316.61  1324.46  1329.79  1330.96  1335.49
eigval :     1338.60  1351.28  1357.48  1359.24  1361.47  1364.92
eigval :     1372.19  1373.27  1383.23  1386.59  1412.21  1419.59
eigval :     1423.63  1430.14  1431.13  1432.53  1433.77  1440.86
eigval :     1467.83  1469.26  1471.66  1475.65  1476.20  1476.80
eigval :     1486.33  1486.52  1488.88  1510.84  1518.26  1544.35
eigval :     1557.96  1558.18  1564.80  1579.51  1581.55  1583.29
eigval :     1583.45  1585.47  1588.59  1589.39  1593.80  1594.72
eigval :     1595.52  1602.04  1609.73  1610.24  1617.00  3062.82
eigval :     3062.88  3065.02  3065.07  3076.35  3076.41  3077.31
eigval :     3077.72  3082.16  3082.17  3082.41  3082.53  3083.57
eigval :     3084.33  3090.31  3090.62  3090.65  3091.41  3091.76
eigval :     3092.14  3094.57  3094.59  3098.90  3099.34  3099.60
eigval :     3100.82  3106.48  3106.66  3107.84  3109.64  3109.69
eigval :     3109.74  3116.57  3117.02

   temp. (K)  partition function   enthalpy   heat capacity  entropy
                                   cal/mol     cal/K/mol   cal/K/mol   J/K/mol
 298.15  VIB  0.145E+24            28494.355    178.155    178.110
         ROT  0.672E+08              888.752      2.981     38.799
         INT  0.978E+31            29383.108    181.136    216.909
         TR   0.222E+29             1481.254      4.968     45.921
         TOT                       30864.3617   186.1039   262.8299  1099.6803

       T/K    H(0)-H(T)+PV         H(T)/Eh          T*S/Eh         G(T)/Eh
   ------------------------------------------------------------------------
    298.15    0.491855E-01    0.777975E+00    0.124879E+00    0.653096E+00
   ------------------------------------------------------------------------

         :::::::::::::::::::::::::::::::::::::::::::::::::::::
         ::                  THERMODYNAMIC                  ::
         :::::::::::::::::::::::::::::::::::::::::::::::::::::
         :: total free energy        -157.983790780892 Eh   ::
         ::.................................................::
         :: total energy             -158.636886664129 Eh   ::
         :: zero point energy           0.728789354282 Eh   ::
         :: G(RRHO) w/o ZPVE           -0.075693471045 Eh   ::
         :: G(RRHO) contrib.            0.653095883237 Eh   ::
         :::::::::::::::::::::::::::::::::::::::::::::::::::::

           -------------------------------------------------
          | TOTAL ENERGY             -158.636886664129 Eh   |
          | TOTAL ENTHALPY           -157.858911818673 Eh   |
          | TOTAL FREE ENERGY        -157.983790780892 Eh   |
          | GRADIENT NORM               0.000039055802 Eh/α |
          | HOMO-LUMO GAP               1.818750286518 eV   |
           -------------------------------------------------

 * finished run on 2025/07/16 at 17:30:27.236
