   * xtb version 6.7.1 (edcfbbe) compiled by 'albert@albert-system' on 2024-07-22

   ID    Z sym.   atoms
    1    6 C      1-5, 7-13, 15-18, 20-26, 28-32, 34-46, 48-54, 56-60, 62, 63
    2    7 N      6, 14, 19, 27, 33, 47, 55, 61
    3    1 H      64-97

          program call               : xtb data2507/gas/CzDCbTrz/CzDCbTrz.xyz --gfn 2 --ohess vtight --parallel 40 --molden --ceasefiles --namespace data2507/gas/CzDCbTrz/CzDCbTrz_gas_S0_preOpt
          :  Hamiltonian                  GFN2-xTB          :
 * total energy  :  -158.6016342 Eh     change       -0.6771103E-08 Eh
 * total energy  :  -158.6227705 Eh     change       -0.2113629E-01 Eh
 * total energy  :  -158.6290790 Eh     change       -0.6308580E-02 Eh
 * total energy  :  -158.6312524 Eh     change       -0.2173328E-02 Eh
 * total energy  :  -158.6326523 Eh     change       -0.1399945E-02 Eh
 * total energy  :  -158.6331281 Eh     change       -0.4758165E-03 Eh
 * total energy  :  -158.6333666 Eh     change       -0.2384239E-03 Eh
 * total energy  :  -158.6335857 Eh     change       -0.2191797E-03 Eh
 * total energy  :  -158.6338112 Eh     change       -0.2254543E-03 Eh
 * total energy  :  -158.6340593 Eh     change       -0.2481631E-03 Eh
 * total energy  :  -158.6368702 Eh     change       -0.4917412E-06 Eh
 * total energy  :  -158.6368706 Eh     change       -0.3795278E-06 Eh
 * total energy  :  -158.6368708 Eh     change       -0.2609317E-06 Eh
 * total energy  :  -158.6368710 Eh     change       -0.1863009E-06 Eh
 * total energy  :  -158.6368712 Eh     change       -0.2164146E-06 Eh
 * total energy  :  -158.6368715 Eh     change       -0.3060135E-06 Eh
 * total energy  :  -158.6368720 Eh     change       -0.4384395E-06 Eh
 * total energy  :  -158.6368725 Eh     change       -0.5557322E-06 Eh
 * total energy  :  -158.6368725 Eh     change       -0.2199528E-08 Eh
   *** GEOMETRY OPTIMIZATION CONVERGED AFTER 68 ITERATIONS ***

 final structure:
================
97
 xtb: 6.7.1 (edcfbbe)
C            7.21498474409821        4.78644418822665       -0.14262233898689
C            7.90789838620692        3.58615287734841       -0.17976337775630
C            7.22097526510285        2.38832832358970       -0.14956183009584
C            5.82893524239716        2.38447696374290       -0.08263690102560
C            5.09802315943903        1.11893579058405       -0.05210167790410
N            5.79783120088549       -0.01135818421706       -0.03147678198430
C            5.09373292804982       -1.13882321991789       -0.00316267876543
C            5.81986299461439       -2.40728775427982        0.01931102109317
C            5.12276295358750       -3.61404762342651       -0.01021097523796
C            5.81158202992951       -4.81087802959342        0.01173764445613
C            7.19695943522973       -4.81474044889060        0.06399683528519
C            7.89499292525039       -3.61720876504095        0.09355916558919
C            7.21252894529742       -2.41667165656194        0.07094181286933
N            3.76281968689117       -1.18204590952042        0.00536540799560
C            3.14634808678483       -0.00600212585143       -0.01696901192575
C            1.68336800115118       -0.00306229884355       -0.00898021105388
C            0.98547018698603       -1.18420362279450        0.21545317136435
C           -0.40069273562041       -1.19071137438327        0.22771983960618
N           -1.08173639451462       -2.39571130123454        0.44840486205400
C           -2.15913058160791       -2.59252642076663        1.29680864541140
C           -2.62201082887416       -1.78703187106703        2.32574198268773
C           -3.73213066569863       -2.21488932863656        3.02765966664773
C           -4.35216321662302       -3.42879813480898        2.73962243331040
C           -3.85656972300774       -4.26534061870339        1.76009140145139
C           -2.74644525489525       -3.84976608606416        1.03739570036320
C           -1.96762216841134       -4.45145806830280       -0.00795643591607
N           -2.11039817230016       -5.62312312079574       -0.60713315159143
C           -1.23939075876453       -5.90969709267849       -1.55607672053014
C           -0.20949901507761       -5.06103956546403       -1.95935322991242
C           -0.04780026539015       -3.82898719591197       -1.34665768508630
C           -0.94441658575472       -3.52298231836842       -0.33585552073782
C           -1.11466677604698        0.00242377135059        0.00616480545764
N           -2.51071558025033        0.00509345112328        0.01372543271466
C           -3.32706632788300       -0.78054467794227       -0.78096955349985
C           -2.98362728926546       -1.66673773465679       -1.78973127393191
C           -4.00599539581892       -2.33021422284077       -2.44038684274277
C           -5.33983962678792       -2.09627290749001       -2.11934238208857
C           -5.68744469458297       -1.17028668771573       -1.15560926219523
C           -4.67674608121829       -0.49952370261478       -0.48192906226037
C           -4.66938755201227        0.51574449275504        0.53461412204334
C           -5.67030048056742        1.18920812821124        1.22010314323036
C           -5.30892152853374        2.11423800829545        2.17967949940124
C           -3.97077105598546        2.34463799028973        2.48497616950555
C           -2.95789308157547        1.67839902419919        1.82240215613460
C           -3.31552409391959        0.79303881160568        0.81785394494474
C           -0.39848014642459        1.19275573434495       -0.22312164973752
N           -1.07717953879032        2.40036885312378       -0.43659625363576
C           -2.16275992422812        2.60137310910513       -1.27350833664182
C           -2.64023121285049        1.79732172677288       -2.29689061724682
C           -3.75602695764482        2.22957745445069       -2.98701581919323
C           -4.36762792183837        3.44634836989054       -2.69308739778572
C           -3.85782212336257        4.28130513210456       -1.71951844471232
C           -2.74179360888861        3.86129894399246       -1.00856837410600
C           -1.94918626797419        4.46019829199276        0.02798337393047
N           -2.08042384761337        5.63284236099919        0.62788398793943
C           -1.19809630517777        5.91616182275297        1.56729589907724
C           -0.16773272965894        5.06319896082462        1.96015084225714
C           -0.01795196898906        3.83010022602229        1.34652829783109
C           -0.92657332071189        3.52745981773545        0.34547620867401
C            0.98771488831946        1.18081323112697       -0.22585289121910
N            3.76727899779385        1.16753456443943       -0.04606272637346
C            5.13699068018381        3.59399157859517       -0.04555352847404
C            5.83026013502281        4.78808083937495       -0.07514989970110
H            7.75477451416901        5.72176140786447       -0.16650151640766
H            8.98667087071519        3.58787113441160       -0.23275706139737
H            7.74263043367302        1.44474850456121       -0.17899209043105
H            4.04505878867924       -3.59288632875376       -0.05157645151239
H            5.26983417841404       -5.74504575834124       -0.01135682191338
H            7.73327042997875       -5.75219219299928        0.08183136980999
H            8.97426820431137       -3.62320326742720        0.13467577669342
H            7.73821004252317       -1.47516934400894        0.09470218603029
H            1.53471900732226       -2.09096198321441        0.41144572971567
H           -2.13099534564640       -0.86080855432608        2.58100840725492
H           -4.12261162153811       -1.59345339102174        3.81971610070796
H           -5.22137294362134       -3.72324096390204        3.30813741292153
H           -4.30560305099624       -5.22285953547029        1.55014990926748
H           -1.37154162874772       -6.87291726719165       -2.03024717447143
H            0.45714119175864       -5.36447847071670       -2.75176386131034
H            0.73274698219285       -3.14591836188847       -1.65139686098500
H           -1.95457052699736       -1.83197842635471       -2.07294098344531
H           -3.76229301317464       -3.04043056103892       -3.21635714347206
H           -6.11094106449349       -2.63739564467722       -2.64657518690571
H           -6.72282259193285       -0.96647642208790       -0.92935192326779
H           -6.70880601285948        0.98817029709274        1.00602429511262
H           -6.07232647981031        2.65739434094132        2.71594711338550
H           -3.71606288175543        3.05423412522768        3.25797484445249
H           -1.92515630976920        1.84091258473660        2.09351563922385
H           -2.15601680528052        0.86886084496803       -2.55694744491784
H           -4.15775317493891        1.60936227834821       -3.77439235964587
H           -5.24165868601598        3.74422479594408       -3.25234809705908
H           -4.30036475918676        5.24091059257515       -1.50535907139135
H           -1.32091185058271        6.88026972555511        2.04217173628227
H            0.50859284248965        5.36414727993847        2.74526947063050
H            0.76277087014114        3.14377940248687        1.64340880229913
H            1.53836012453315        2.08541250806901       -0.42781768635746
H            4.05973248944358        3.57708774774738        0.00767789180346
H            5.29250070888208        5.72438713336069       -0.04621257998881

          :  Hamiltonian                  GFN2-xTB          :
         :: gradient norm              0.000034869991 Eh/a0 ::
         :: HOMO-LUMO gap              1.816063523273 eV    ::
         :: SCC energy              -161.510763858207 Eh    ::
         :: -> dispersion             -0.163364883233 Eh    ::
         :: repulsion energy           2.873891328574 Eh    ::

    * Orbital Energies and Occupations

         #    Occupation            Energy/Eh            Energy/eV
      -------------------------------------------------------------
         1        2.0000           -0.6975846             -18.9822
       ...           ...                  ...                  ...
       135        2.0000           -0.4135248             -11.2526
       136        2.0000           -0.4126573             -11.2290
       137        2.0000           -0.4075747             -11.0907
       138        2.0000           -0.3901240             -10.6158
       139        2.0000           -0.3892936             -10.5932
       140        2.0000           -0.3816098             -10.3841
       141        2.0000           -0.3800162             -10.3408
       142        2.0000           -0.3785792             -10.3017
       143        2.0000           -0.3757133             -10.2237
       144        2.0000           -0.3753738             -10.2144
       145        2.0000           -0.3709164             -10.0931
       146        2.0000           -0.3652680              -9.9394
       147        2.0000           -0.3641854              -9.9100 (HOMO)
       148                         -0.2974463              -8.0939 (LUMO)
       149                         -0.2931490              -7.9770
       150                         -0.2623365              -7.1385
       151                         -0.2613050              -7.1105
       152                         -0.2561644              -6.9706
       153                         -0.2538789              -6.9084
       154                         -0.2474178              -6.7326
       155                         -0.2355856              -6.4106
       156                         -0.2344820              -6.3806
       157                         -0.2338108              -6.3623
       158                         -0.2338025              -6.3621
       ...                                ...                  ...
       286                          0.7448692              20.2689
      -------------------------------------------------------------
                  HL-Gap            0.0667391 Eh            1.8161 eV

     #   Z          covCN         q      C6AA      α(0)
     1   6 C        2.920    -0.022    28.561     8.764
     2   6 C        2.918    -0.027    28.669     8.780
     3   6 C        2.924    -0.023    28.575     8.766
     4   6 C        2.984    -0.000    28.029     8.684
     5   6 C        2.982     0.203    23.691     7.984
     6   7 N        1.844    -0.291    28.401     7.898
     7   6 C        2.982     0.203    23.691     7.984
     8   6 C        2.984    -0.000    28.029     8.684
     9   6 C        2.924    -0.023    28.574     8.766
    10   6 C        2.918    -0.027    28.672     8.781
    11   6 C        2.920    -0.022    28.561     8.764
    12   6 C        2.918    -0.027    28.669     8.780
    13   6 C        2.924    -0.023    28.575     8.766
    14   7 N        1.845    -0.296    28.516     7.914
    15   6 C        2.987     0.203    23.694     7.985
    16   6 C        2.982    -0.002    28.073     8.691
    17   6 C        2.926    -0.045    29.124     8.850
    18   6 C        2.911     0.055    26.773     8.485
    19   7 N        2.798    -0.046    22.124     6.986
    20   6 C        3.080     0.049    26.811     8.489
    21   6 C        2.910    -0.047    29.164     8.855
    22   6 C        2.925    -0.029    28.727     8.790
    23   6 C        2.921    -0.037    28.923     8.819
    24   6 C        2.912    -0.026    28.643     8.776
    25   6 C        3.064    -0.020    28.440     8.745
    26   6 C        3.073     0.072    26.308     8.410
    27   7 N        1.832    -0.228    26.824     7.675
    28   6 C        2.924     0.050    26.873     8.501
    29   6 C        2.922    -0.045    29.114     8.848
    30   6 C        2.915    -0.035    28.873     8.811
    31   6 C        3.075     0.040    27.037     8.525
    32   6 C        2.912     0.042    27.047     8.528
    33   7 N        2.802    -0.041    22.034     6.972
    34   6 C        3.074     0.050    26.812     8.490
    35   6 C        2.911    -0.048    29.184     8.858
    36   6 C        2.925    -0.031    28.768     8.796
    37   6 C        2.921    -0.038    28.937     8.821
    38   6 C        2.914    -0.031    28.769     8.795
    39   6 C        3.069    -0.015    28.306     8.724
    40   6 C        3.069    -0.015    28.306     8.724
    41   6 C        2.914    -0.031    28.769     8.795
    42   6 C        2.921    -0.038    28.937     8.821
    43   6 C        2.925    -0.031    28.768     8.796
    44   6 C        2.911    -0.048    29.184     8.858
    45   6 C        3.074     0.050    26.812     8.490
    46   6 C        2.911     0.055    26.773     8.485
    47   7 N        2.798    -0.046    22.123     6.986
    48   6 C        3.080     0.049    26.811     8.489
    49   6 C        2.910    -0.047    29.164     8.855
    50   6 C        2.925    -0.029    28.727     8.790
    51   6 C        2.921    -0.037    28.923     8.819
    52   6 C        2.912    -0.026    28.643     8.776
    53   6 C        3.064    -0.020    28.440     8.745
    54   6 C        3.073     0.072    26.308     8.410
    55   7 N        1.832    -0.228    26.824     7.675
    56   6 C        2.924     0.050    26.873     8.501
    57   6 C        2.922    -0.045    29.114     8.848
    58   6 C        2.915    -0.035    28.873     8.811
    59   6 C        3.075     0.040    27.037     8.525
    60   6 C        2.926    -0.045    29.124     8.850
    61   7 N        1.845    -0.296    28.516     7.914
    62   6 C        2.924    -0.023    28.574     8.766
    63   6 C        2.918    -0.027    28.672     8.781
    64   1 H        0.926     0.039     2.466     2.456
    65   1 H        0.926     0.039     2.467     2.456
    66   1 H        0.926     0.056     2.247     2.344
    67   1 H        0.926     0.054     2.272     2.357
    68   1 H        0.926     0.039     2.467     2.456
    69   1 H        0.926     0.039     2.466     2.456
    70   1 H        0.926     0.039     2.467     2.456
    71   1 H        0.926     0.056     2.247     2.344
    72   1 H        0.926     0.072     2.069     2.249
    73   1 H        0.926     0.027     2.626     2.534
    74   1 H        0.926     0.034     2.530     2.487
    75   1 H        0.926     0.035     2.511     2.478
    76   1 H        0.926     0.050     2.325     2.385
    77   1 H        0.925     0.036     2.499     2.472
    78   1 H        0.926     0.034     2.534     2.489
    79   1 H        0.926     0.030     2.586     2.515
    80   1 H        0.926     0.019     2.755     2.595
    81   1 H        0.926     0.032     2.559     2.502
    82   1 H        0.926     0.033     2.538     2.491
    83   1 H        0.926     0.035     2.516     2.481
    84   1 H        0.926     0.035     2.516     2.481
    85   1 H        0.926     0.033     2.538     2.491
    86   1 H        0.926     0.032     2.559     2.502
    87   1 H        0.926     0.019     2.754     2.595
    88   1 H        0.926     0.027     2.626     2.534
    89   1 H        0.926     0.034     2.530     2.487
    90   1 H        0.926     0.035     2.511     2.478
    91   1 H        0.926     0.050     2.325     2.385
    92   1 H        0.925     0.036     2.499     2.472
    93   1 H        0.926     0.034     2.534     2.489
    94   1 H        0.926     0.030     2.586     2.515
    95   1 H        0.926     0.071     2.069     2.249
    96   1 H        0.926     0.054     2.272     2.357
    97   1 H        0.926     0.039     2.467     2.456

molecular dipole:
                 x           y           z       tot (Debye)
 q only:        0.893      -0.002      -0.005
   full:        1.674      -0.004      -0.009       4.255

 projected vibrational frequencies (cm⁻¹)
eigval :       -0.00    -0.00     0.00     0.00     0.00     0.00
eigval :        6.86    12.92    14.87    19.62    21.46    21.66
eigval :       22.10    27.34    28.00    40.31    47.51    52.36
eigval :       55.94    60.96    69.44    91.87    92.82   103.50
eigval :      104.99   107.21   119.76   121.78   125.09   144.29
eigval :      151.27   153.28   169.76   179.90   181.75   186.57
eigval :      187.69   204.80   221.79   230.50   240.54   243.86
eigval :      261.35   267.94   276.97   279.24   282.09   295.01
eigval :      332.41   351.01   359.95   364.14   364.90   376.64
eigval :      386.65   402.89   403.01   403.74   407.29   414.56
eigval :      422.39   426.50   428.24   437.16   438.72   441.58
eigval :      444.10   481.91   497.27   511.14   512.50   519.36
eigval :      521.98   523.81   537.10   542.62   544.04   545.02
eigval :      550.05   552.86   563.68   576.58   587.37   587.56
eigval :      592.75   596.43   596.54   612.60   623.87   624.24
eigval :      627.01   639.53   649.35   652.10   653.96   671.92
eigval :      674.21   683.04   683.47   684.96   688.85   700.64
eigval :      705.90   724.74   725.55   731.10   749.72   753.79
eigval :      757.07   763.64   771.37   775.74   779.08   779.16
eigval :      783.35   784.51   795.97   799.16   799.25   847.49
eigval :      859.52   869.68   875.50   877.55   877.99   880.03
eigval :      881.73   881.76   891.06   896.44   901.28   902.21
eigval :      905.26   906.83   908.05   908.98   909.94   910.19
eigval :      910.53   911.74   917.59   918.82   925.32   925.50
eigval :      926.13   926.17   929.11   930.01   931.00   934.28
eigval :      934.48   958.32   990.49   998.98  1012.30  1024.38
eigval :     1025.82  1048.20  1050.34  1066.36  1066.54  1072.17
eigval :     1074.93  1074.98  1076.20  1087.72  1091.90  1092.29
eigval :     1104.75  1108.51  1112.45  1121.52  1143.78  1145.53
eigval :     1150.19  1150.34  1153.60  1165.81  1173.90  1174.70
eigval :     1177.35  1178.85  1180.55  1180.90  1181.33  1183.60
eigval :     1190.79  1197.63  1203.10  1207.21  1212.42  1228.16
eigval :     1230.69  1237.29  1238.50  1248.89  1268.45  1269.75
eigval :     1287.75  1288.88  1294.05  1297.60  1299.50  1299.92
eigval :     1307.59  1316.61  1324.44  1329.80  1330.96  1335.48
eigval :     1338.55  1351.26  1357.48  1359.24  1361.49  1364.94
eigval :     1372.22  1373.26  1383.19  1386.60  1412.17  1419.63
eigval :     1423.63  1430.18  1431.08  1432.46  1433.78  1440.87
eigval :     1467.84  1469.26  1471.64  1475.66  1476.18  1476.79
eigval :     1486.36  1486.51  1488.88  1510.86  1518.17  1544.35
eigval :     1557.95  1558.16  1564.78  1579.50  1581.56  1583.28
eigval :     1583.46  1585.48  1588.61  1589.42  1593.84  1594.73
eigval :     1595.52  1602.07  1609.72  1610.23  1616.99  3062.81
eigval :     3062.85  3064.93  3064.98  3076.37  3076.42  3077.27
eigval :     3077.68  3082.15  3082.15  3082.42  3082.55  3083.59
eigval :     3084.33  3090.30  3090.58  3090.60  3091.42  3091.77
eigval :     3092.14  3094.58  3094.59  3098.91  3099.27  3099.52
eigval :     3100.82  3106.53  3106.71  3107.81  3109.64  3109.66
eigval :     3109.75  3116.70  3117.15

   temp. (K)  partition function   enthalpy   heat capacity  entropy
                                   cal/mol     cal/K/mol   cal/K/mol   J/K/mol
 298.15  VIB  0.149E+24            28495.563    178.158    178.140
         ROT  0.672E+08              888.752      2.981     38.798
         INT  0.100E+32            29384.315    181.139    216.938
         TR   0.222E+29             1481.254      4.968     45.921
         TOT                       30865.5691   186.1067   262.8596  1099.8045

       T/K    H(0)-H(T)+PV         H(T)/Eh          T*S/Eh         G(T)/Eh
   ------------------------------------------------------------------------
    298.15    0.491874E-01    0.777969E+00    0.124893E+00    0.653076E+00
   ------------------------------------------------------------------------

         :::::::::::::::::::::::::::::::::::::::::::::::::::::
         ::                  THERMODYNAMIC                  ::
         :::::::::::::::::::::::::::::::::::::::::::::::::::::
         :: total free energy        -157.983796373816 Eh   ::
         ::.................................................::
         :: total energy             -158.636872529632 Eh   ::
         :: zero point energy           0.728781815817 Eh   ::
         :: G(RRHO) w/o ZPVE           -0.075705660001 Eh   ::
         :: G(RRHO) contrib.            0.653076155816 Eh   ::
         :::::::::::::::::::::::::::::::::::::::::::::::::::::

           -------------------------------------------------
          | TOTAL ENERGY             -158.636872529632 Eh   |
          | TOTAL ENTHALPY           -157.858903298529 Eh   |
          | TOTAL FREE ENERGY        -157.983796373816 Eh   |
          | GRADIENT NORM               0.000034860184 Eh/α |
          | HOMO-LUMO GAP               1.816064101337 eV   |
           -------------------------------------------------

 * finished run on 2025/07/16 at 17:24:05.463
