   * xtb version 6.7.1 (edcfbbe) compiled by 'albert@albert-system' on 2024-07-22

   ID    Z sym.   atoms
    1    6 C      1-5, 7-13, 15-18, 20-26, 28-32, 34-46, 48-54, 56-60, 62, 63
    2    7 N      6, 14, 19, 27, 33, 47, 55, 61
    3    1 H      64-97

          program call               : xtb data2507/gas/CzDCbTrz/CzDCbTrz_gas_T1_crest.xyz --gfn 2 --spinpol --tblite --uhf 2 --ohess vtight --parallel 40 --molden --ceasefiles --namespace data2507/gas/CzDCbTrz/CzDCbTrz_gas_T1_finalOpt
 * total energy  :  -158.5649498 Eh     change        0.3322896E-07 Eh
 * total energy  :  -158.5650048 Eh     change       -0.5508179E-04 Eh
 * total energy  :  -158.5650278 Eh     change       -0.2291848E-04 Eh
 * total energy  :  -158.5650302 Eh     change       -0.2406427E-05 Eh
 * total energy  :  -158.5650320 Eh     change       -0.1853070E-05 Eh
 * total energy  :  -158.5650322 Eh     change       -0.2159619E-06 Eh
 * total energy  :  -158.5650336 Eh     change       -0.1356907E-05 Eh
 * total energy  :  -158.5650357 Eh     change       -0.2129798E-05 Eh
 * total energy  :  -158.5650376 Eh     change       -0.1889679E-05 Eh
 * total energy  :  -158.5650392 Eh     change       -0.1641272E-05 Eh
 * total energy  :  -158.5650529 Eh     change       -0.1787377E-06 Eh
 * total energy  :  -158.5650536 Eh     change       -0.6734091E-06 Eh
 * total energy  :  -158.5650541 Eh     change       -0.5224913E-06 Eh
 * total energy  :  -158.5650546 Eh     change       -0.5091663E-06 Eh
 * total energy  :  -158.5650549 Eh     change       -0.2571717E-06 Eh
 * total energy  :  -158.5650552 Eh     change       -0.3005017E-06 Eh
 * total energy  :  -158.5650554 Eh     change       -0.2718455E-06 Eh
 * total energy  :  -158.5650557 Eh     change       -0.2598208E-06 Eh
 * total energy  :  -158.5650557 Eh     change       -0.5583530E-07 Eh
   *** GEOMETRY OPTIMIZATION CONVERGED AFTER 34 ITERATIONS ***

 final structure:
================
97
 xtb: 6.7.1 (edcfbbe)
C            7.24254462753858        4.81429461113821        0.58517132695682
C            5.85540074049387        4.81899234605818        0.56708270646377
C            5.15951902154713        3.63670821209426        0.41895348534748
C            5.84893229626627        2.43057550665027        0.28642613243120
C            5.11926631365873        1.17978189468387        0.12889798537786
N            5.82631655623214        0.04143447592625       -0.02594940967866
C            5.13364486509944       -1.10648555293965       -0.17606337386877
C            5.87916435039072       -2.34768339937432       -0.33470972015760
C            5.20553347587445       -3.56341083910077       -0.46075073805997
C            5.91669493288916       -4.73662399695112       -0.60848131624308
C            7.30356327353630       -4.71328107217083       -0.63269547183834
C            7.97849113414312       -3.50871851083689       -0.50788036792370
C            7.27393931921667       -2.33073404891969       -0.35918639830612
N            3.82927729927382       -1.13721642658047       -0.18385083470656
C            3.14547820898197        0.02359230515021       -0.01844892562192
C            1.72890904829337        0.01395050485847       -0.01298077245900
C            1.01448622986340       -1.18214468855212       -0.23084656910681
C           -0.36049310968417       -1.19350324468036       -0.22315145019257
N           -1.05629261069320       -2.40094726133980       -0.43292391938669
C           -0.95304987226073       -3.52165635728406        0.37222705237239
C           -0.04876795540733       -3.79367087784592        1.38934757890083
C           -0.17982287223380       -4.99307335277747        2.06206026132927
C           -1.18625487659869       -5.90387061648845        1.74305116841981
C           -2.09671558322379       -5.63493299620913        0.74181568271522
C           -1.98284015513052       -4.43514718634082        0.05110804240726
C           -2.73985256079615       -3.83136026268388       -1.00632977886732
N           -3.80208104697618       -4.26890813054628       -1.66012401811185
C           -4.28452188657004       -3.49831704782983       -2.61379066619009
C           -3.71598194787446       -2.28214360782495       -2.99101788015671
C           -2.59582537543161       -1.80950290464522       -2.33024503878727
C           -2.12065105453245       -2.58107447828466       -1.28136538147779
C           -1.08962900843956       -0.00659534831093        0.00359690149837
N           -2.49285638017413       -0.01750829169888        0.01496177751269
C           -3.31272408664636        0.72957528797818       -0.80459533875035
C           -2.97412698273279        1.59463517283609       -1.83581766005558
C           -4.00066884874717        2.23366684257532       -2.50320146356554
C           -5.33345849715809        2.00149850593257       -2.17396724656741
C           -5.67695353744746        1.10364089171556       -1.18041258821590
C           -4.66333900966499        0.45586715613453       -0.49072884457496
C           -4.64625163078212       -0.52240422223924        0.56170790767802
C           -5.63697938524960       -1.18457801225433        1.27072574078508
C           -5.26153095454823       -2.07691582337748        2.25767433378078
C           -3.91946424092071       -2.28954985672042        2.56145578039859
C           -2.91527321853381       -1.63589747194184        1.87452369852527
C           -3.28610979788746       -0.77626713694530        0.84989013972763
C           -0.37521978797201        1.19104309796762        0.22049806667806
N           -1.08625477934895        2.38821831854873        0.43850230476588
C           -1.01323307426942        3.50811804047602       -0.37097361664051
C           -0.12881900805950        3.79148630210593       -1.40234739352315
C           -0.28961613251663        4.98635575216863       -2.07667118082322
C           -1.30594424212004        5.88161840909191       -1.74524784771208
C           -2.19653268816852        5.60133067624869       -0.72935430039986
C           -2.05267537633443        4.40585388345318       -0.03676421194512
C           -2.78372742695305        3.79304407926553        1.03367397460614
N           -3.84293372355011        4.21525181971263        1.70232133718887
C           -4.29847279826940        3.43952100768098        2.66502989819750
C           -3.70494880958326        2.23356359075694        3.03652669598344
C           -2.58743786567706        1.77712432352310        2.36006795615036
C           -2.14044628644646        2.55359581467897        1.30245351812016
C            0.99975065915266        1.19987562963184        0.21166916183523
N            3.81462933494510        1.19346457578308        0.14356248753531
C            7.24388565628311        2.43237180880808        0.30455359910519
C            7.93311041055321        3.61935255569522        0.45363919121480
H            7.78422509131003        5.74141136364639        0.70162668882155
H            5.31821592272606        5.75063143602241        0.66917423484341
H            4.08060912431316        3.62456299325898        0.40250792045112
H            4.12663701798232       -3.56586840203370       -0.43943368071277
H            5.39172696307197       -5.67575393407242       -0.70538805881198
H            7.85721345299649       -5.63336797691027       -0.74862416960270
H            9.05842263125317       -3.49135933794467       -0.52690986958682
H            7.78517193489084       -1.38541366107477       -0.26124596971582
H            1.56502448345733       -2.08720214314210       -0.43019325904493
H            0.72761228651652       -3.09051655934733        1.65114578800518
H            0.51359150586545       -5.22936115244937        2.85571003612657
H           -1.25196145585354       -6.82954882998148        2.29483154281956
H           -2.88565656941106       -6.32608936725600        0.49148961559743
H           -5.16041849997908       -3.87761884351994       -3.12156050862739
H           -4.14438314907010       -1.71846403195822       -3.80463347977223
H           -2.11331493354490       -0.89098344421398       -2.62958491920992
H           -1.94524685232481        1.76243066994742       -2.11652383523070
H           -3.76149335990429        2.92460876431572       -3.29755838474321
H           -6.10838768135342        2.52372471437335       -2.71442180245486
H           -6.71149910336550        0.90739645257582       -0.94360255825894
H           -6.67861337018980       -1.00345232051970        1.05378099922349
H           -6.01831014739213       -2.61007847220933        2.81296856638734
H           -3.65512806945899       -2.97655070376600        3.35124347655379
H           -1.87889143667530       -1.78833823881363        2.13568943859400
H            0.65493495972543        3.10012802285686       -1.67346462318288
H            0.38771729830075        5.23132008727998       -2.88149699877641
H           -1.39524774550923        6.80416762619590       -2.29895504481514
H           -2.99274711419919        6.28041645837921       -0.46921218116162
H           -5.17258124430133        3.80609923269033        3.18508195479991
H           -4.11204269044444        1.66521157800488        3.85779552968806
H           -2.08595488698252        0.86705690024698        2.65403185305615
H            1.53921520485597        2.11310114482954        0.40394509013173
H            7.76740717641269        1.49433985400855        0.20159594607401
H            9.01324894766053        3.61654543385409        0.46791048041830

 projected vibrational frequencies (cm⁻¹)
eigval :       -0.00    -0.00    -0.00     0.00     0.00     0.00
eigval :        9.71    12.77    15.11    19.15    21.35    21.53
eigval :       26.83    27.16    29.49    38.94    46.44    49.76
eigval :       53.64    60.26    67.93    93.64   101.43   103.84
eigval :      106.97   108.45   119.02   120.73   122.30   142.51
eigval :      148.56   152.07   169.75   177.39   179.87   181.07
eigval :      199.30   215.18   218.55   230.14   230.88   247.95
eigval :      253.97   264.77   273.22   275.15   277.86   293.39
eigval :      313.79   353.62   353.88   366.08   366.83   370.21
eigval :      371.28   388.45   402.21   402.26   404.95   409.90
eigval :      411.44   420.19   426.70   428.16   435.78   440.98
eigval :      441.68   457.87   488.49   498.97   505.37   516.86
eigval :      521.41   522.89   535.41   540.12   540.82   541.51
eigval :      542.82   546.46   549.19   558.53   561.54   567.41
eigval :      585.90   587.06   587.36   588.27   589.29   603.61
eigval :      608.71   623.65   632.22   640.22   644.77   655.23
eigval :      662.79   669.73   672.60   678.73   680.96   682.57
eigval :      685.05   703.85   709.35   721.14   721.70   746.73
eigval :      755.86   761.21   762.35   763.93   769.34   776.70
eigval :      776.82   779.01   780.96   787.51   787.59   800.24
eigval :      830.76   838.11   840.67   862.21   870.19   872.33
eigval :      876.31   877.27   878.61   881.13   893.11   894.03
eigval :      895.07   898.00   900.18   901.26   902.72   904.60
eigval :      905.83   908.77   908.89   913.18   913.36   921.64
eigval :      923.63   923.70   925.31   925.44   926.50   927.43
eigval :      930.19   930.34   939.97   979.71   984.19   989.83
eigval :     1010.17  1020.87  1021.62  1036.03  1061.19  1065.63
eigval :     1066.42  1069.31  1072.33  1073.94  1075.63  1087.52
eigval :     1087.65  1092.99  1109.43  1110.02  1118.90  1134.15
eigval :     1141.29  1143.14  1144.21  1148.24  1156.87  1171.42
eigval :     1175.36  1176.09  1177.57  1179.21  1179.49  1179.93
eigval :     1180.42  1182.89  1189.82  1192.76  1204.89  1219.25
eigval :     1231.36  1233.14  1234.66  1237.58  1259.10  1267.60
eigval :     1273.93  1282.22  1289.22  1291.13  1293.01  1295.59
eigval :     1295.71  1297.47  1305.35  1323.94  1330.51  1331.22
eigval :     1332.42  1333.40  1335.76  1341.85  1351.94  1352.03
eigval :     1354.28  1362.96  1384.92  1386.48  1404.49  1410.56
eigval :     1416.66  1419.71  1420.27  1430.16  1430.91  1433.30
eigval :     1440.39  1449.75  1464.85  1465.70  1468.81  1469.47
eigval :     1479.36  1482.05  1486.17  1486.59  1486.70  1498.95
eigval :     1544.44  1549.15  1553.58  1569.67  1574.32  1574.99
eigval :     1580.47  1580.60  1585.45  1585.99  1587.15  1587.17
eigval :     1587.30  1594.34  1603.04  1603.53  1607.38  3068.09
eigval :     3068.18  3074.99  3075.11  3078.41  3078.56  3079.38
eigval :     3079.43  3079.67  3079.84  3081.67  3081.97  3085.40
eigval :     3086.33  3087.04  3087.21  3089.83  3090.15  3092.25
eigval :     3093.63  3094.63  3094.78  3098.65  3099.57  3099.97
eigval :     3100.25  3100.56  3100.90  3100.94  3101.11  3107.83
eigval :     3107.91  3112.85  3113.94

   temp. (K)  partition function   enthalpy   heat capacity  entropy
                                   cal/mol     cal/K/mol   cal/K/mol   J/K/mol
 298.15  VIB  0.133E+24            28857.666    180.763    179.503
         ROT  0.675E+08              888.752      2.981     38.806
         INT  0.897E+31            29746.418    183.744    218.309
         TR   0.222E+29             1481.254      4.968     45.921
         TOT                       31227.6721   188.7125   264.2300  1105.5383

       T/K    H(0)-H(T)+PV         H(T)/Eh          T*S/Eh         G(T)/Eh
   ------------------------------------------------------------------------
    298.15    0.497645E-01    0.773400E+00    0.125544E+00    0.647856E+00
   ------------------------------------------------------------------------

         :::::::::::::::::::::::::::::::::::::::::::::::::::::
         ::                  THERMODYNAMIC                  ::
         :::::::::::::::::::::::::::::::::::::::::::::::::::::
         :: total free energy        -157.917199625307 Eh   ::
         ::.................................................::
         :: total energy             -158.565055699850 Eh   ::
         :: zero point energy           0.723635806453 Eh   ::
         :: G(RRHO) w/o ZPVE           -0.075779731910 Eh   ::
         :: G(RRHO) contrib.            0.647856074543 Eh   ::
         :::::::::::::::::::::::::::::::::::::::::::::::::::::

           -------------------------------------------------
          | TOTAL ENERGY             -158.565055699850 Eh   |
          | TOTAL ENTHALPY           -157.791655430249 Eh   |
          | TOTAL FREE ENERGY        -157.917199625307 Eh   |
          | GRADIENT NORM               0.000112270135 Eh/α |
           -------------------------------------------------

 * finished run on 2025/07/16 at 17:42:39.277
