   * xtb version 6.7.1 (edcfbbe) compiled by 'albert@albert-system' on 2024-07-22

   ID    Z sym.   atoms
    1    7 N      1, 5, 19, 34, 36, 50
    2    6 C      2-4, 6-18, 20-33, 35, 37-49, 51-62
    3    1 H      63-94

          program call               : xtb data2507/toluene/4CzTPN/4CzTPN.xyz --gfn 2 --gbsa toluene --ohess vtight --parallel 40 --molden --ceasefiles --namespace data2507/toluene/4CzTPN/4CzTPN_toluene_S0_preOpt
      * Solvation model:               GBSA
        Solvent                        toluene
        Solvent mass                       9.2140E+01 g/mol
          :  Hamiltonian                  GFN2-xTB          :
 * total energy  :  -153.8840765 Eh     change       -0.3075513E-08 Eh
 * total energy  :  -153.9067162 Eh     change       -0.2263976E-01 Eh
 * total energy  :  -153.9125923 Eh     change       -0.5876042E-02 Eh
 * total energy  :  -153.9140470 Eh     change       -0.1454704E-02 Eh
 * total energy  :  -153.9153700 Eh     change       -0.1323018E-02 Eh
 * total energy  :  -153.9161829 Eh     change       -0.8129458E-03 Eh
 * total energy  :  -153.9167877 Eh     change       -0.6047636E-03 Eh
 * total energy  :  -153.9173046 Eh     change       -0.5169350E-03 Eh
 * total energy  :  -153.9177760 Eh     change       -0.4713889E-03 Eh
 * total energy  :  -153.9182365 Eh     change       -0.4605058E-03 Eh
 * total energy  :  -153.9216734 Eh     change       -0.8826498E-06 Eh
 * total energy  :  -153.9216743 Eh     change       -0.8315981E-06 Eh
 * total energy  :  -153.9216751 Eh     change       -0.7737825E-06 Eh
 * total energy  :  -153.9216758 Eh     change       -0.7608583E-06 Eh
 * total energy  :  -153.9216765 Eh     change       -0.7245767E-06 Eh
 * total energy  :  -153.9216772 Eh     change       -0.6944673E-06 Eh
 * total energy  :  -153.9216779 Eh     change       -0.6544258E-06 Eh
 * total energy  :  -153.9216785 Eh     change       -0.6161615E-06 Eh
 * total energy  :  -153.9216785 Eh     change       -0.5908902E-08 Eh
   *** GEOMETRY OPTIMIZATION CONVERGED AFTER 68 ITERATIONS ***

 final structure:
================
94
 xtb: 6.7.1 (edcfbbe)
N            0.00007592003960        3.10946056971519        2.41464329238652
C            0.00006540146100        2.25817521382318        1.64638750444921
C            0.00003233916787        1.16168996846078        0.75380946838480
C           -1.22856614360015        0.59043277317202        0.38156264985067
N           -2.42220198760728        1.17624957114543        0.79182747236803
C           -3.46019088126289        0.51951897329592        1.43821704560345
C           -3.47600852111160       -0.74111492731597        2.01142876088289
C           -4.64347493642158       -1.15358811394919        2.62705666771618
C           -5.76001192079496       -0.32520564155700        2.68921759134161
C           -5.72841075814567        0.95303269546636        2.16537131875290
C           -4.56665831185732        1.38745656009529        1.54229081888810
C           -4.17287272294356        2.63172032790781        0.93745236220572
C           -4.82740328117253        3.83782334499887        0.72839479727138
C           -4.15212844660952        4.85473835292392        0.08180876360410
C           -2.84670185530299        4.67582034038230       -0.36594222177014
C           -2.17763443074113        3.48152355676956       -0.17084864009525
C           -2.84278717342590        2.46719110572856        0.49720665280939
C           -1.22859963178877       -0.59031843101489       -0.38172348853405
N           -2.42226820330247       -1.17607049243309       -0.79198550213750
C           -2.84292295592525       -2.46698708494357       -0.49734742461868
C           -2.17780305812925       -3.48136747458414        0.17066701078604
C           -2.84693614471843       -4.67562377070782        0.36578447912966
C           -4.15239592722277       -4.85445622741343       -0.08190254168889
C           -4.82763861492549       -3.83749211573742       -0.72844477581713
C           -4.17304202512033       -2.63142893838876       -0.93752395921733
C           -4.56678252252043       -1.38713444340878       -1.54232797961383
C           -5.72854774515871       -0.95262929994429       -2.16532775958276
C           -5.76010014834124        0.32561645283416       -2.68915847654464
C           -4.64350236613095        1.15392210584232       -2.62706798385732
C           -3.47602262890428        0.74136662247828       -2.01152029089394
C           -3.46025268702467       -0.51926979582162       -1.43831347804103
C           -0.00003153203015       -1.16165078563732       -0.75395508451355
C           -0.00005595764192       -2.25812262508445       -1.64654572382089
N           -0.00004435610139       -3.10939717285395       -2.41481751396243
C            1.22856796367216       -0.59040145910999       -0.38169452114296
N            2.42220749880769       -1.17623588152113       -0.79192449038301
C            3.46023570360103       -0.51952052631635       -1.43826830544686
C            3.47609508050881        0.74110736141076       -2.01149199827071
C            4.64359779951196        1.15356429040128       -2.62706215318379
C            5.76013103730281        0.32517166020113       -2.68915599553562
C            5.72849125921407       -0.95306079560449       -2.16529787799943
C            4.56670217735815       -1.38746778892154       -1.54227382953585
C            4.17287783078023       -2.63172046569264       -0.93743790922221
C            4.82739093831643       -3.83782363235348       -0.72832664527270
C            4.15207889216624       -4.85472303791117       -0.08175486055479
C            2.84663189220899       -4.67578901970172        0.36592965077672
C            2.17758173673487       -3.48149165829292        0.17078127763367
C            2.84277190549834       -2.46717499346539       -0.49726051728908
C            1.22859905675726        0.59035039229009        0.38158942222952
N            2.42226863784305        1.17608151111768        0.79188299782238
C            3.46018816925911        0.51927232016800        1.43830457025782
C            3.47588607610209       -0.74135619629174        2.01153117745648
C            4.64330177940970       -1.15391974702447        2.62719421001921
C            5.75990628862175       -0.32562948907467        2.68937316036525
C            5.72842445401121        0.95260601044433        2.16551260440798
C            4.56672413667715        1.38712003782290        1.54239745253312
C            4.17305433695887        2.63141119205807        0.93754004882320
C            4.82768648080047        3.83746080319628        0.72849289181277
C            4.15250854945531        4.85442719105832        0.08188642079853
C            2.84707741783089        4.67561290297723       -0.36589271741274
C            2.17790904045890        3.48137094325168       -0.17080941493234
C            2.84296586271025        2.46698668104276        0.49726288978192
H           -2.60713879553623       -1.38169116402912        1.99464615435735
H           -4.68384114781578       -2.13682799682766        3.07097432967671
H           -6.65585915304479       -0.68427688914812        3.17269031753294
H           -6.58346182570989        1.60636603306533        2.24347043334521
H           -5.84480032666185        3.97103899408667        1.06186266506453
H           -4.64179807645690        5.80180311256067       -0.08684407630568
H           -2.34413327043334        5.48240736183113       -0.87827807567697
H           -1.16924931213841        3.35367792961218       -0.53641115485638
H           -1.16939152407799       -3.35359136209409        0.53617870047876
H           -2.34439066324392       -5.48224679664359        0.87808624109317
H           -4.64211686642895       -5.80149173243206        0.08676644732346
H           -5.84506166976287       -3.97063927893105       -1.06186107509386
H           -6.58364674089692       -1.60590604060164       -2.24337586085966
H           -6.65595743498105        0.68475332949074       -3.17256418846028
H           -4.68383253666154        2.13716716058625       -3.07097760625949
H           -2.60710823693408        1.38188357791316       -1.99479358324924
H            2.60723042828069        1.38169205980521       -1.99476118142781
H            4.68399684606068        2.13679941963782       -3.07098742466632
H            6.65600686612334        0.68423024140246       -3.17258497601297
H            6.58354082020600       -1.60640232823469       -2.24334389522649
H            5.84480410953238       -3.97105096306009       -1.06174072206192
H            4.64173492956442       -5.80178738948936        0.08693949004989
H            2.34403334568044       -5.48236287913572        0.87825667521749
H            1.16918079032077       -3.35363240393021        0.53629426070231
H            2.60696232714416       -1.38185869074219        1.99473359973138
H            4.68357431530447       -2.13715675693469        3.07112680842891
H            6.65571139494889       -0.68476970230641        3.17287261649860
H            6.58352753187759        1.60586908008287        2.24362841525245
H            5.84508613241468        3.97059629119655        1.06198472014556
H            4.64225826308298        5.80145173594475       -0.08675915490234
H            2.34458384729797        5.48223977592513       -0.87823925976686
H            1.16951984568151        3.35360647097438       -0.53638899033094

          :  Hamiltonian                  GFN2-xTB          :
         :: gradient norm              0.000067692466 Eh/a0 ::
         :: HOMO-LUMO gap              1.531174014585 eV    ::
         :: SCC energy              -156.874655685027 Eh    ::
         :: -> dispersion             -0.172003310771 Eh    ::
         :: -> Gsolv                  -0.059953662022 Eh    ::
         :: repulsion energy           2.952977177951 Eh    ::

    * Orbital Energies and Occupations

         #    Occupation            Energy/Eh            Energy/eV
      -------------------------------------------------------------
         1        2.0000           -0.7242457             -19.7077
       ...           ...                  ...                  ...
       131        2.0000           -0.4293535             -11.6833
       132        2.0000           -0.4192558             -11.4085
       133        2.0000           -0.4191670             -11.4061
       134        2.0000           -0.4176534             -11.3649
       135        2.0000           -0.4175525             -11.3622
       136        2.0000           -0.3944883             -10.7346
       137        2.0000           -0.3944468             -10.7334
       138        2.0000           -0.3909567             -10.6385
       139        2.0000           -0.3906626             -10.6305
       140        2.0000           -0.3869910             -10.5306
       141        2.0000           -0.3866483             -10.5212
       142        2.0000           -0.3819273             -10.3928
       143        2.0000           -0.3777781             -10.2799 (HOMO)
       144                         -0.3215085              -8.7487 (LUMO)
       145                         -0.2845688              -7.7435
       146                         -0.2595204              -7.0619
       147                         -0.2585394              -7.0352
       148                         -0.2584263              -7.0321
       149                         -0.2572700              -7.0007
       150                         -0.2482321              -6.7547
       151                         -0.2391913              -6.5087
       152                         -0.2388756              -6.5001
       153                         -0.2374111              -6.4603
       154                         -0.2354490              -6.4069
       ...                                ...                  ...
       280                          1.1437649              31.1234
      -------------------------------------------------------------
                  HL-Gap            0.0562696 Eh            1.5312 eV

     #   Z          covCN         q      C6AA      α(0)
     1   7 N        0.911    -0.248    26.446     7.438
     2   6 C        1.914     0.132    27.867     8.525
     3   6 C        2.974    -0.012    28.301     8.726
     4   6 C        2.916     0.058    26.699     8.473
     5   7 N        2.800    -0.056    22.317     7.016
     6   6 C        3.069     0.048    26.850     8.497
     7   6 C        2.910    -0.049    29.226     8.865
     8   6 C        2.925    -0.032    28.787     8.799
     9   6 C        2.920    -0.037    28.923     8.819
    10   6 C        2.913    -0.031    28.783     8.797
    11   6 C        3.065    -0.014    28.300     8.723
    12   6 C        3.067    -0.013    28.281     8.720
    13   6 C        2.913    -0.031    28.767     8.795
    14   6 C        2.920    -0.037    28.923     8.819
    15   6 C        2.924    -0.031    28.773     8.797
    16   6 C        2.911    -0.047    29.164     8.855
    17   6 C        3.065     0.050    26.825     8.493
    18   6 C        2.916     0.058    26.699     8.473
    19   7 N        2.800    -0.056    22.317     7.016
    20   6 C        3.065     0.050    26.825     8.493
    21   6 C        2.911    -0.047    29.164     8.855
    22   6 C        2.924    -0.031    28.773     8.797
    23   6 C        2.920    -0.037    28.923     8.819
    24   6 C        2.913    -0.031    28.767     8.795
    25   6 C        3.067    -0.013    28.281     8.720
    26   6 C        3.065    -0.014    28.300     8.723
    27   6 C        2.913    -0.031    28.783     8.797
    28   6 C        2.920    -0.037    28.923     8.819
    29   6 C        2.925    -0.032    28.787     8.799
    30   6 C        2.910    -0.049    29.226     8.865
    31   6 C        3.069     0.048    26.850     8.497
    32   6 C        2.974    -0.012    28.301     8.726
    33   6 C        1.914     0.132    27.867     8.525
    34   7 N        0.911    -0.248    26.446     7.438
    35   6 C        2.916     0.058    26.699     8.473
    36   7 N        2.800    -0.056    22.317     7.016
    37   6 C        3.069     0.048    26.850     8.497
    38   6 C        2.910    -0.049    29.226     8.865
    39   6 C        2.925    -0.032    28.787     8.799
    40   6 C        2.920    -0.037    28.923     8.819
    41   6 C        2.913    -0.031    28.783     8.797
    42   6 C        3.065    -0.014    28.300     8.723
    43   6 C        3.067    -0.013    28.281     8.720
    44   6 C        2.913    -0.031    28.767     8.795
    45   6 C        2.920    -0.037    28.923     8.819
    46   6 C        2.924    -0.031    28.773     8.797
    47   6 C        2.911    -0.047    29.164     8.855
    48   6 C        3.065     0.050    26.825     8.493
    49   6 C        2.916     0.058    26.699     8.473
    50   7 N        2.800    -0.056    22.317     7.016
    51   6 C        3.069     0.048    26.850     8.497
    52   6 C        2.910    -0.049    29.226     8.865
    53   6 C        2.925    -0.032    28.787     8.799
    54   6 C        2.920    -0.037    28.923     8.819
    55   6 C        2.913    -0.031    28.783     8.797
    56   6 C        3.065    -0.014    28.300     8.723
    57   6 C        3.067    -0.013    28.281     8.720
    58   6 C        2.913    -0.031    28.767     8.795
    59   6 C        2.920    -0.037    28.923     8.819
    60   6 C        2.924    -0.031    28.773     8.797
    61   6 C        2.911    -0.047    29.164     8.855
    62   6 C        3.065     0.050    26.825     8.493
    63   1 H        0.926     0.018     2.757     2.597
    64   1 H        0.926     0.039     2.460     2.453
    65   1 H        0.926     0.042     2.416     2.430
    66   1 H        0.926     0.045     2.385     2.415
    67   1 H        0.926     0.045     2.379     2.412
    68   1 H        0.926     0.043     2.408     2.427
    69   1 H        0.926     0.041     2.439     2.442
    70   1 H        0.926     0.012     2.851     2.640
    71   1 H        0.926     0.012     2.851     2.640
    72   1 H        0.926     0.041     2.439     2.442
    73   1 H        0.926     0.043     2.408     2.427
    74   1 H        0.926     0.045     2.379     2.412
    75   1 H        0.926     0.045     2.385     2.415
    76   1 H        0.926     0.042     2.416     2.430
    77   1 H        0.926     0.039     2.460     2.453
    78   1 H        0.926     0.018     2.757     2.597
    79   1 H        0.926     0.018     2.757     2.597
    80   1 H        0.926     0.039     2.460     2.453
    81   1 H        0.926     0.042     2.416     2.430
    82   1 H        0.926     0.045     2.385     2.415
    83   1 H        0.926     0.045     2.379     2.412
    84   1 H        0.926     0.043     2.408     2.427
    85   1 H        0.926     0.041     2.439     2.442
    86   1 H        0.926     0.012     2.851     2.640
    87   1 H        0.926     0.018     2.757     2.597
    88   1 H        0.926     0.039     2.460     2.453
    89   1 H        0.926     0.042     2.416     2.430
    90   1 H        0.926     0.045     2.385     2.415
    91   1 H        0.926     0.045     2.379     2.412
    92   1 H        0.926     0.043     2.408     2.427
    93   1 H        0.926     0.041     2.439     2.442
    94   1 H        0.926     0.012     2.851     2.640

molecular dipole:
                 x           y           z       tot (Debye)
 q only:       -0.000      -0.000       0.000
   full:       -0.000      -0.000       0.000       0.000

 projected vibrational frequencies (cm⁻¹)
eigval :       -0.00    -0.00    -0.00    -0.00     0.00     0.00
eigval :       14.64    25.09    28.09    28.56    29.26    32.41
eigval :       34.41    45.15    54.92    55.38    61.07    68.17
eigval :       81.70   105.44   105.58   108.10   114.14   115.35
eigval :      115.97   122.22   123.04   129.27   130.88   138.30
eigval :      148.48   153.72   161.08   164.02   185.17   185.49
eigval :      200.43   212.70   239.92   253.59   263.12   267.22
eigval :      273.69   275.72   275.90   276.64   292.42   302.12
eigval :      348.26   351.72   367.21   394.05   397.79   397.91
eigval :      399.00   402.19   403.01   409.78   414.29   420.68
eigval :      422.77   425.90   432.39   435.02   436.49   441.64
eigval :      444.30   445.41   512.77   513.68   517.68   518.19
eigval :      521.73   522.01   527.61   528.63   534.52   538.12
eigval :      543.02   543.49   543.72   544.00   566.93   573.54
eigval :      576.94   581.91   588.30   592.34   594.61   599.37
eigval :      621.90   635.41   650.62   658.83   660.96   671.53
eigval :      672.15   673.09   673.75   693.35   705.80   706.54
eigval :      706.68   708.21   722.86   728.48   752.15   753.53
eigval :      755.63   756.96   762.87   763.98   767.19   767.77
eigval :      776.91   779.55   779.76   780.95   781.09   787.80
eigval :      855.53   855.80   863.46   864.61   864.67   874.14
eigval :      874.41   874.53   874.70   890.10   893.25   893.40
eigval :      896.52   896.61   898.96   898.98   902.13   904.24
eigval :      904.33   904.42   904.50   919.03   919.05   920.35
eigval :      920.40   925.29   925.38   925.43   925.50   972.98
eigval :     1008.57  1012.48  1012.84  1014.77  1020.24  1068.80
eigval :     1068.95  1069.67  1070.08  1071.43  1072.39  1073.34
eigval :     1074.49  1075.01  1079.21  1120.73  1143.71  1147.39
eigval :     1149.59  1149.97  1152.21  1152.91  1162.16  1176.51
eigval :     1176.73  1177.79  1179.38  1179.46  1179.98  1180.35
eigval :     1181.30  1195.70  1216.16  1218.91  1229.33  1230.34
eigval :     1232.20  1233.83  1234.84  1246.64  1260.05  1271.13
eigval :     1281.98  1291.71  1292.36  1292.82  1292.96  1294.57
eigval :     1296.61  1298.44  1304.43  1348.72  1350.68  1356.78
eigval :     1356.79  1357.01  1358.33  1359.54  1359.81  1360.28
eigval :     1361.11  1403.71  1409.13  1413.94  1418.89  1421.29
eigval :     1425.84  1426.08  1426.29  1427.98  1438.69  1452.62
eigval :     1470.79  1471.19  1471.33  1472.37  1484.76  1484.82
eigval :     1484.89  1485.24  1496.23  1497.01  1577.82  1577.85
eigval :     1578.14  1578.26  1592.07  1592.27  1592.41  1593.21
eigval :     1599.96  1600.35  1600.37  1600.69  1611.60  1611.76
eigval :     1612.14  1613.76  2360.23  2361.02  3069.56  3069.59
eigval :     3070.56  3070.72  3080.85  3080.88  3080.95  3080.96
eigval :     3084.66  3084.79  3084.84  3084.90  3085.73  3085.75
eigval :     3086.00  3086.01  3091.60  3091.76  3091.94  3092.01
eigval :     3093.56  3093.57  3093.88  3093.89  3100.32  3100.37
eigval :     3100.54  3100.54  3102.53  3102.54  3102.80  3102.90

   temp. (K)  partition function   enthalpy   heat capacity  entropy
                                   cal/mol     cal/K/mol   cal/K/mol   J/K/mol
 298.15  VIB  0.113E+21            27888.199    179.354    170.665
         ROT  0.472E+08              888.752      2.981     38.097
         INT  0.533E+28            28776.951    182.335    208.762
         TR   0.214E+29             1481.254      4.968     45.854
         TOT                       30258.2053   187.3034   254.6162  1065.3142

       T/K    H(0)-H(T)+PV         H(T)/Eh          T*S/Eh         G(T)/Eh
   ------------------------------------------------------------------------
    298.15    0.482195E-01    0.749065E+00    0.120976E+00    0.628088E+00
   ------------------------------------------------------------------------

         :::::::::::::::::::::::::::::::::::::::::::::::::::::
         ::                  THERMODYNAMIC                  ::
         :::::::::::::::::::::::::::::::::::::::::::::::::::::
         :: total free energy        -153.293590190611 Eh   ::
         ::.................................................::
         :: total energy             -153.921678509084 Eh   ::
         :: zero point energy           0.700845175959 Eh   ::
         :: G(RRHO) w/o ZPVE           -0.072756857486 Eh   ::
         :: G(RRHO) contrib.            0.628088318473 Eh   ::
         :::::::::::::::::::::::::::::::::::::::::::::::::::::

           -------------------------------------------------
          | TOTAL ENERGY             -153.921678509084 Eh   |
          | TOTAL ENTHALPY           -153.172613813612 Eh   |
          | TOTAL FREE ENERGY        -153.293590190611 Eh   |
          | GRADIENT NORM               0.000067681275 Eh/α |
          | HOMO-LUMO GAP               1.531173611105 eV   |
           -------------------------------------------------

 * finished run on 2025/07/16 at 08:51:07.332
