   * xtb version 6.7.1 (edcfbbe) compiled by 'albert@albert-system' on 2024-07-22

   ID    Z sym.   atoms
    1    7 N      1, 5, 19, 34, 36, 50
    2    6 C      2-4, 6-18, 20-33, 35, 37-49, 51-62
    3    1 H      63-94

          program call               : xtb data2507/toluene/4CzTPN/4CzTPN_toluene_S0_finalOpt.xtbopt.xyz --gfn 2 --uhf 2 --gbsa toluene --ohess vtight --parallel 40 --molden --ceasefiles --namespace data2507/toluene/4CzTPN/4CzTPN_toluene_T1_preOpt
      * Solvation model:               GBSA
        Solvent                        toluene
        Solvent mass                       9.2140E+01 g/mol
          :  Hamiltonian                  GFN2-xTB          :
 * total energy  :  -153.8476934 Eh     change       -0.5583627E-07 Eh
 * total energy  :  -153.8521498 Eh     change       -0.4456374E-02 Eh
 * total energy  :  -153.8532825 Eh     change       -0.1132675E-02 Eh
 * total energy  :  -153.8533749 Eh     change       -0.9239271E-04 Eh
 * total energy  :  -153.8534586 Eh     change       -0.8378913E-04 Eh
 * total energy  :  -153.8534901 Eh     change       -0.3140965E-04 Eh
 * total energy  :  -153.8535220 Eh     change       -0.3197578E-04 Eh
 * total energy  :  -153.8535378 Eh     change       -0.1572417E-04 Eh
 * total energy  :  -153.8535515 Eh     change       -0.1374515E-04 Eh
 * total energy  :  -153.8535645 Eh     change       -0.1300079E-04 Eh
 * total energy  :  -153.8536571 Eh     change       -0.1070752E-05 Eh
 * total energy  :  -153.8536583 Eh     change       -0.1194794E-05 Eh
 * total energy  :  -153.8536596 Eh     change       -0.1297507E-05 Eh
 * total energy  :  -153.8536610 Eh     change       -0.1377024E-05 Eh
 * total energy  :  -153.8536622 Eh     change       -0.1220505E-05 Eh
 * total energy  :  -153.8536629 Eh     change       -0.6824448E-06 Eh
 * total energy  :  -153.8536626 Eh     change        0.2899568E-06 Eh
 * total energy  :  -153.8536631 Eh     change       -0.4452023E-06 Eh
 * total energy  :  -153.8536631 Eh     change       -0.4257657E-08 Eh
   *** GEOMETRY OPTIMIZATION CONVERGED AFTER 32 ITERATIONS ***

 final structure:
================
94
 xtb: 6.7.1 (edcfbbe)
N            0.00154185983432        3.40231924038688       -2.02394969848885
C            0.00102338686737        2.43834560116665       -1.38054812254468
C            0.00070207429385        1.28214973352156       -0.61793339412471
C           -1.23003193688775        0.62264456797245       -0.29985163552274
N           -2.43503001930122        1.24226138244598       -0.65210236069742
C           -2.85665548406914        2.48312964181089       -0.21909994853603
C           -2.20345696765412        3.40660009367949        0.58552054025354
C           -2.87281009521087        4.57200971802912        0.90725951244279
C           -4.16772803865579        4.81080625096355        0.45496073559157
C           -4.83324717191164        3.88329707658603       -0.32808667634327
C           -4.17804595802392        2.71059330657703       -0.66828138928480
C           -4.55706977886050        1.54796501855464       -1.42840305607416
C           -5.70317401146701        1.18844388983290       -2.11949492973742
C           -5.71944153208103       -0.02273465736615       -2.79065855178112
C           -4.60201349564966       -0.85176763573950       -2.80338809224314
C           -3.44812352129565       -0.51276788035511       -2.12046473927104
C           -3.44638444235841        0.67462393387417       -1.40318318250900
C           -1.23056188047222       -0.62075568059246        0.30090892929080
N           -2.43605128187779       -1.23861690355311        0.65461703560192
C           -3.44545969557224       -0.66957212574471        1.40723443799991
C           -3.44433707894570        0.51770655579043        2.12470556637583
C           -4.59670443865177        0.85833557314485        2.80938502378562
C           -5.71541750841902        0.03100488280179        2.79813242532208
C           -5.70208186287937       -1.17995834432994        2.12651101363782
C           -4.55754659755199       -1.54109290949471        1.43364853355685
C           -4.18146936128441       -2.70404851980033        0.67257025647836
C           -4.83917183957682       -3.87539198669250        0.33252673392275
C           -4.17640049725638       -4.80350143904056       -0.45213997766990
C           -2.88165253691403       -4.56672843632020       -0.90599991084769
C           -2.20976538285297       -3.40276862461551       -0.58430208620989
C           -2.86033009596978       -2.47858413798599        0.22164564178399
C           -0.00043780611723       -1.28205418317823        0.61757127501181
C           -0.00107161842382       -2.43831097840188        1.38010717752204
N           -0.00179805102886       -3.40235945838882        2.02344141484895
C            1.23032334290336       -0.62256640592922        0.29946533437852
N            2.43522168505859       -1.24245084075867        0.65150928862568
C            2.85628895478892       -2.48351313766432        0.21843958409744
C            2.20252434507938       -3.40687856178672       -0.58586051762173
C            2.87142494180324       -4.57251853665253       -0.90772109326300
C            4.16640973463529       -4.81167578383492       -0.45580837529091
C            4.83249124802671       -3.88426108354752        0.32685949666090
C            4.17778552131640       -2.71130901797273        0.66711623839260
C            4.55760020457056       -1.54859901443340        1.42670701430421
C            5.70426863249287       -1.18919753288798        2.11693133649012
C            5.72134900596644        0.02218879381016        2.78769095759052
C            4.60414225771832        0.85151315855908        2.80094315532822
C            3.44969200359329        0.51261217432514        2.11891666145327
C            3.44715716454184       -0.67495181922468        1.40192348669720
C            1.23085378716557        0.62088217988444       -0.30122988316000
N            2.43623944034291        1.23894497375810       -0.65482199698796
C            2.85996925360276        2.47919357397553       -0.22205469397439
C            2.20886072063233        3.40343372541542        0.58340063508007
C            2.88025398386392        4.56774550359346        0.90487189351765
C            4.17503821090295        4.80482483356116        0.45128110552331
C            4.83838212592417        3.87662652203647       -0.33279211572528
C            4.18120659038294        2.70490845568080       -0.67254276958065
C            4.55802772824852        1.54172615048029       -1.43289580731732
C            5.70312371263892        1.18055551540355       -2.12479744990224
C            5.71720791786315       -0.03067666029464       -2.79591275549084
C            4.59865565538963       -0.85821635624528       -2.80766429780126
C            3.44577169925460       -0.51759748063936       -2.12384936286032
C            3.44617029343952        0.66991902263048       -1.40675617479203
H           -1.20288404459727        3.22734895589587        0.94792420182928
H           -2.38096628089215        5.30889128161797        1.52414684506570
H           -4.65872071468763        5.73318345313467        0.72567651172335
H           -5.84210155801306        4.06468038408071       -0.66480899662510
H           -6.56013901476279        1.84358087637201       -2.13806633662476
H           -6.60492098699385       -0.32292443679063       -3.32988482757526
H           -4.63090617351087       -1.77631740867447       -3.35969051094060
H           -2.57546225989887       -1.14659814490557       -2.15985947277824
H           -2.57069710626782        1.15027688553865        2.16278455044882
H           -4.62339912615299        1.78286363712939        3.36583939391604
H           -6.59956727938742        0.33233761680258        3.33890968195369
H           -6.55999061337425       -1.83382680694835        2.14632213322964
H           -5.84802701312240       -4.05503724220364        0.67017722427285
H           -4.66949519358575       -5.72470752801199       -0.72302248879117
H           -2.39184860519917       -5.30419362234905       -1.52381888003529
H           -1.20925980973263       -3.22515366279096       -0.94771521040251
H            1.20180971809595       -3.22748301004264       -0.94781273678688
H            2.37906187676310       -5.30941312937029       -1.52418012572610
H            4.65704585563261       -5.73421290440179       -0.72661473103173
H            5.84153245170556       -4.06571931243388        0.66296912944245
H            6.56107835340264       -1.84454904297984        2.13507272530682
H            6.60726182432194        0.32227843001969        3.32626314105046
H            4.63362161687174        1.77619132841388        3.35700284162569
H            2.57722612495688        1.14667783988216        2.15875849712169
H            1.20830144370377        3.22564898743326        0.94658341467970
H            2.38993036365525        5.30535456436210        1.52210852432009
H            4.66764115266834        5.72640928695176        0.72176837343186
H            5.84731475489581        4.05642368182728       -0.67012998823169
H            6.56089284362634        1.83461282623339       -2.14424233658110
H            6.60185163956654       -0.33209709277603       -3.33583344926157
H            4.62595492368823       -1.78300162385990       -3.36366512847111
H            2.57227878897936       -1.15034214812452       -2.16237431481632

          :  Hamiltonian                  GFN2-xTB          :
         :: gradient norm              0.000152125509 Eh/a0 ::
         :: HOMO-LUMO gap              0.811912366135 eV    ::
         :: SCC energy              -156.786140285168 Eh    ::
         :: -> dispersion             -0.170765241398 Eh    ::
         :: -> Gsolv                  -0.067040140883 Eh    ::
         :: repulsion energy           2.932477218217 Eh    ::

    * Orbital Energies and Occupations

         #    Occupation            Energy/Eh            Energy/eV
      -------------------------------------------------------------
         1        2.0000           -0.6979807             -18.9930
       ...           ...                  ...                  ...
       132        2.0000           -0.4189486             -11.4002
       133        2.0000           -0.4156746             -11.3111
       134        2.0000           -0.4131298             -11.2418
       135        2.0000           -0.4107369             -11.1767
       136        2.0000           -0.3965453             -10.7905
       137        2.0000           -0.3964987             -10.7893
       138        2.0000           -0.3934385             -10.7060
       139        2.0000           -0.3932273             -10.7003
       140        1.9998           -0.3853897             -10.4870
       141        1.9997           -0.3851705             -10.4810
       142        1.7882           -0.3785433             -10.3007
       143        1.2122           -0.3760487             -10.2328
       144        1.0000           -0.2957967              -8.0490 (HOMO)
       145        0.0000           -0.2659595              -7.2371 (LUMO)
       146                         -0.2607708              -7.0959
       147                         -0.2600951              -7.0775
       148                         -0.2600233              -7.0756
       149                         -0.2534630              -6.8971
       150                         -0.2415666              -6.5734
       151                         -0.2414733              -6.5708
       152                         -0.2354866              -6.4079
       153                         -0.2354504              -6.4069
       154                         -0.2248306              -6.1180
       155                         -0.2127041              -5.7880
       ...                                ...                  ...
       280                          1.1646966              31.6930
      -------------------------------------------------------------
                  HL-Gap            0.0298372 Eh            0.8119 eV

     #   Z          covCN         q      C6AA      α(0)
     1   7 N        0.911    -0.355    29.146     7.808
     2   6 C        1.909     0.109    28.411     8.608
     3   6 C        2.965    -0.055    29.363     8.888
     4   6 C        2.911     0.042    27.062     8.530
     5   7 N        2.802    -0.034    21.904     6.951
     6   6 C        3.073     0.055    26.699     8.472
     7   6 C        2.910    -0.038    28.951     8.823
     8   6 C        2.923    -0.030    28.745     8.792
     9   6 C        2.920    -0.032    28.796     8.800
    10   6 C        2.912    -0.029    28.719     8.788
    11   6 C        3.067    -0.012    28.246     8.715
    12   6 C        3.066    -0.013    28.278     8.720
    13   6 C        2.913    -0.029    28.723     8.788
    14   6 C        2.920    -0.033    28.829     8.805
    15   6 C        2.923    -0.031    28.774     8.797
    16   6 C        2.910    -0.045    29.106     8.846
    17   6 C        3.075     0.049    26.813     8.490
    18   6 C        2.911     0.042    27.062     8.530
    19   7 N        2.802    -0.034    21.905     6.951
    20   6 C        3.075     0.049    26.813     8.490
    21   6 C        2.910    -0.045    29.106     8.846
    22   6 C        2.923    -0.031    28.774     8.797
    23   6 C        2.920    -0.033    28.829     8.805
    24   6 C        2.913    -0.029    28.723     8.788
    25   6 C        3.066    -0.013    28.278     8.720
    26   6 C        3.067    -0.012    28.246     8.715
    27   6 C        2.912    -0.029    28.719     8.788
    28   6 C        2.920    -0.032    28.796     8.800
    29   6 C        2.923    -0.030    28.745     8.792
    30   6 C        2.910    -0.038    28.951     8.823
    31   6 C        3.073     0.055    26.699     8.472
    32   6 C        2.965    -0.055    29.363     8.888
    33   6 C        1.909     0.109    28.411     8.608
    34   7 N        0.911    -0.355    29.146     7.808
    35   6 C        2.911     0.042    27.062     8.530
    36   7 N        2.802    -0.034    21.904     6.951
    37   6 C        3.073     0.055    26.699     8.472
    38   6 C        2.910    -0.038    28.951     8.823
    39   6 C        2.923    -0.030    28.745     8.792
    40   6 C        2.920    -0.032    28.796     8.800
    41   6 C        2.912    -0.029    28.719     8.788
    42   6 C        3.067    -0.012    28.246     8.715
    43   6 C        3.066    -0.013    28.278     8.720
    44   6 C        2.913    -0.029    28.723     8.788
    45   6 C        2.920    -0.033    28.829     8.805
    46   6 C        2.923    -0.031    28.774     8.797
    47   6 C        2.910    -0.045    29.106     8.846
    48   6 C        3.075     0.049    26.813     8.490
    49   6 C        2.911     0.042    27.062     8.530
    50   7 N        2.802    -0.034    21.904     6.951
    51   6 C        3.073     0.055    26.699     8.472
    52   6 C        2.910    -0.038    28.951     8.823
    53   6 C        2.923    -0.030    28.745     8.792
    54   6 C        2.920    -0.032    28.796     8.800
    55   6 C        2.912    -0.029    28.719     8.788
    56   6 C        3.067    -0.012    28.246     8.715
    57   6 C        3.066    -0.013    28.278     8.720
    58   6 C        2.913    -0.029    28.723     8.788
    59   6 C        2.920    -0.033    28.829     8.805
    60   6 C        2.923    -0.031    28.774     8.797
    61   6 C        2.910    -0.045    29.106     8.846
    62   6 C        3.075     0.049    26.813     8.490
    63   1 H        0.926     0.024     2.671     2.556
    64   1 H        0.926     0.045     2.388     2.416
    65   1 H        0.926     0.048     2.348     2.396
    66   1 H        0.926     0.049     2.331     2.387
    67   1 H        0.926     0.049     2.337     2.390
    68   1 H        0.926     0.047     2.358     2.401
    69   1 H        0.926     0.043     2.408     2.427
    70   1 H        0.926     0.027     2.636     2.539
    71   1 H        0.926     0.027     2.636     2.539
    72   1 H        0.926     0.043     2.408     2.427
    73   1 H        0.926     0.047     2.358     2.401
    74   1 H        0.926     0.049     2.337     2.390
    75   1 H        0.926     0.049     2.331     2.387
    76   1 H        0.926     0.048     2.348     2.396
    77   1 H        0.926     0.045     2.388     2.416
    78   1 H        0.926     0.024     2.671     2.556
    79   1 H        0.926     0.024     2.671     2.556
    80   1 H        0.926     0.045     2.388     2.416
    81   1 H        0.926     0.048     2.348     2.396
    82   1 H        0.926     0.049     2.331     2.387
    83   1 H        0.926     0.049     2.337     2.390
    84   1 H        0.926     0.047     2.358     2.401
    85   1 H        0.926     0.043     2.408     2.427
    86   1 H        0.926     0.027     2.636     2.539
    87   1 H        0.926     0.024     2.671     2.556
    88   1 H        0.926     0.045     2.388     2.416
    89   1 H        0.926     0.048     2.348     2.396
    90   1 H        0.926     0.049     2.331     2.387
    91   1 H        0.926     0.049     2.337     2.390
    92   1 H        0.926     0.047     2.358     2.401
    93   1 H        0.926     0.043     2.408     2.427
    94   1 H        0.926     0.027     2.636     2.539

molecular dipole:
                 x           y           z       tot (Debye)
 q only:        0.000       0.000      -0.000
   full:        0.000       0.000      -0.000       0.001

 projected vibrational frequencies (cm⁻¹)
eigval :       -0.00    -0.00    -0.00    -0.00     0.00     0.00
eigval :       12.17    21.47    26.47    29.29    29.84    31.49
eigval :       31.57    48.33    52.46    55.47    56.31    67.77
eigval :       71.82   100.08   104.73   108.96   110.95   112.10
eigval :      114.44   119.44   122.32   126.67   129.55   137.24
eigval :      146.33   149.33   160.66   163.79   182.83   184.07
eigval :      193.76   213.51   231.47   250.70   252.98   265.77
eigval :      272.59   272.74   274.64   276.59   292.76   302.76
eigval :      354.44   357.64   367.03   386.72   391.92   396.64
eigval :      397.79   399.95   403.20   403.99   415.54   418.12
eigval :      420.93   422.45   428.92   430.86   435.50   436.65
eigval :      439.93   444.00   454.09   504.83   513.37   514.68
eigval :      514.91   516.06   517.52   533.87   536.08   537.29
eigval :      538.77   539.17   539.61   542.08   543.25   555.58
eigval :      574.43   579.09   583.25   585.18   587.54   595.28
eigval :      602.12   621.82   636.36   644.44   647.51   656.91
eigval :      672.11   672.65   672.97   673.92   706.54   707.11
eigval :      707.22   707.69   721.63   725.63   750.64   752.09
eigval :      754.25   755.48   761.71   762.72   765.09   766.11
eigval :      777.02   777.41   777.63   778.33   783.06   783.23
eigval :      851.89   853.00   853.21   860.19   860.52   873.88
eigval :      874.04   874.30   874.38   888.54   892.85   893.40
eigval :      896.25   896.31   898.55   898.71   900.51   904.23
eigval :      904.31   904.51   904.69   917.20   917.32   918.56
eigval :      918.60   924.02   924.15   924.25   924.29   974.39
eigval :     1006.21  1010.88  1010.97  1013.87  1015.10  1059.95
eigval :     1064.69  1065.50  1066.49  1068.09  1069.36  1069.44
eigval :     1069.83  1070.92  1079.49  1116.79  1137.45  1140.16
eigval :     1141.51  1141.78  1143.80  1152.52  1154.57  1172.91
eigval :     1173.36  1174.32  1175.72  1176.18  1176.95  1177.97
eigval :     1181.21  1191.42  1213.77  1215.33  1221.04  1224.92
eigval :     1226.41  1227.57  1229.36  1237.06  1241.47  1271.13
eigval :     1274.99  1279.59  1280.51  1282.23  1282.36  1288.25
eigval :     1290.10  1295.11  1295.84  1337.17  1338.00  1338.04
eigval :     1340.92  1344.27  1346.10  1349.60  1359.23  1359.33
eigval :     1361.46  1363.24  1375.66  1389.25  1409.90  1410.36
eigval :     1410.77  1412.58  1413.86  1417.58  1424.65  1428.79
eigval :     1459.41  1459.51  1459.68  1459.89  1478.83  1480.04
eigval :     1480.27  1480.59  1480.69  1534.48  1565.78  1566.13
eigval :     1566.23  1566.56  1578.74  1578.81  1579.03  1579.46
eigval :     1580.13  1580.80  1581.66  1583.84  1597.21  1597.38
eigval :     1602.05  1605.95  2249.55  2295.34  3081.65  3081.69
eigval :     3082.58  3082.62  3084.55  3084.57  3084.61  3084.67
eigval :     3087.25  3087.27  3087.50  3087.67  3088.49  3088.51
eigval :     3088.86  3088.96  3093.69  3093.81  3093.95  3094.15
eigval :     3095.93  3096.07  3096.33  3096.36  3100.85  3101.43
eigval :     3101.52  3101.75  3102.10  3102.79  3103.01  3104.11

   temp. (K)  partition function   enthalpy   heat capacity  entropy
                                   cal/mol     cal/K/mol   cal/K/mol   J/K/mol
 298.15  VIB  0.308E+21            28148.661    180.363    172.766
         ROT  0.473E+08              888.752      2.981     38.099
         INT  0.146E+29            29037.414    183.344    210.865
         TR   0.214E+29             1481.254      4.968     45.854
         TOT                       30518.6676   188.3125   256.7188  1074.1114

       T/K    H(0)-H(T)+PV         H(T)/Eh          T*S/Eh         G(T)/Eh
   ------------------------------------------------------------------------
    298.15    0.486346E-01    0.746308E+00    0.121975E+00    0.624333E+00
   ------------------------------------------------------------------------

         :::::::::::::::::::::::::::::::::::::::::::::::::::::
         ::                  THERMODYNAMIC                  ::
         :::::::::::::::::::::::::::::::::::::::::::::::::::::
         :: total free energy        -153.229330006329 Eh   ::
         ::.................................................::
         :: total energy             -153.853663067753 Eh   ::
         :: zero point energy           0.697673847377 Eh   ::
         :: G(RRHO) w/o ZPVE           -0.073340785953 Eh   ::
         :: G(RRHO) contrib.            0.624333061424 Eh   ::
         :::::::::::::::::::::::::::::::::::::::::::::::::::::

           -------------------------------------------------
          | TOTAL ENERGY             -153.853663067753 Eh   |
          | TOTAL ENTHALPY           -153.107354627852 Eh   |
          | TOTAL FREE ENERGY        -153.229330006329 Eh   |
          | GRADIENT NORM               0.000152072057 Eh/α |
          | HOMO-LUMO GAP               0.811911941706 eV   |
           -------------------------------------------------

 * finished run on 2025/07/16 at 08:57:20.842
