   * xtb version 6.7.1 (edcfbbe) compiled by 'albert@albert-system' on 2024-07-22

   ID    Z sym.   atoms
    1    7 N      1, 5, 19, 34, 36, 50
    2    6 C      2-4, 6-18, 20-33, 35, 37-49, 51-62
    3    1 H      63-94

          program call               : xtb data2507/toluene/4CzTPN/4CzTPN_toluene_S0_crest.xyz --gfn 2 --gbsa toluene --ohess vtight --parallel 40 --molden --ceasefiles --namespace data2507/toluene/4CzTPN/4CzTPN_toluene_S0_finalOpt
      * Solvation model:               GBSA
        Solvent                        toluene
        Solvent mass                       9.2140E+01 g/mol
          :  Hamiltonian                  GFN2-xTB          :
 * total energy  :  -153.9201892 Eh     change       -0.4993581E-08 Eh
 * total energy  :  -153.9203642 Eh     change       -0.1750103E-03 Eh
 * total energy  :  -153.9205106 Eh     change       -0.1464818E-03 Eh
 * total energy  :  -153.9205765 Eh     change       -0.6583082E-04 Eh
 * total energy  :  -153.9206401 Eh     change       -0.6361025E-04 Eh
 * total energy  :  -153.9207049 Eh     change       -0.6484756E-04 Eh
 * total energy  :  -153.9207832 Eh     change       -0.7823828E-04 Eh
 * total energy  :  -153.9208422 Eh     change       -0.5904425E-04 Eh
 * total energy  :  -153.9208822 Eh     change       -0.3995266E-04 Eh
 * total energy  :  -153.9209506 Eh     change       -0.6842937E-04 Eh
 * total energy  :  -153.9215517 Eh     change       -0.2954801E-05 Eh
 * total energy  :  -153.9215551 Eh     change       -0.3357143E-05 Eh
 * total energy  :  -153.9215586 Eh     change       -0.3527501E-05 Eh
 * total energy  :  -153.9215618 Eh     change       -0.3236835E-05 Eh
 * total energy  :  -153.9215643 Eh     change       -0.2441038E-05 Eh
 * total energy  :  -153.9215658 Eh     change       -0.1537707E-05 Eh
 * total energy  :  -153.9215667 Eh     change       -0.9447677E-06 Eh
 * total energy  :  -153.9215673 Eh     change       -0.5902631E-06 Eh
 * total energy  :  -153.9215673 Eh     change       -0.5571792E-09 Eh
   *** GEOMETRY OPTIMIZATION CONVERGED AFTER 44 ITERATIONS ***

 final structure:
================
94
 xtb: 6.7.1 (edcfbbe)
N            0.00087768754985        3.34876002950033       -2.06865684229573
C            0.00089776066402        2.42153141552223       -1.39405541589420
C            0.00071863292511        1.23658759417142       -0.62275418236976
C           -1.22838711039813        0.62926554332818       -0.31440353091499
N           -2.42104487796694        1.25940970651969       -0.65598886780196
C           -2.83380956708625        2.51324617473932       -0.22217713694971
C           -2.16183487806583        3.44550915643494        0.55038124272178
C           -2.82351680216327        4.61539814741458        0.87526588962878
C           -4.12886885651708        4.84882772233895        0.45318336993944
C           -4.81186804811416        3.91076922690137       -0.29634136610837
C           -4.16474711686481        2.73057594020553       -0.63587489469401
C           -4.56847124369642        1.55933738587919       -1.36678948246586
C           -5.73716749339349        1.19834061863584       -2.02277592663283
C           -5.77999612142804       -0.01805408693955       -2.67682907124306
C           -4.66742512792480       -0.85333723928682       -2.71111507901672
C           -3.49282344005578       -0.51288965625941       -2.06563098724168
C           -3.46611179347211        0.67996666622596       -1.36235543426088
C           -1.22874103499260       -0.62763792116171        0.31558368685727
N           -2.42179041842278       -1.25628299765245        0.65864780556767
C           -3.46496810904825       -0.67532306850971        1.36651882725946
C           -3.48865302680574        0.51738785713926        2.07014405738324
C           -4.66171557670973        0.85957043728839        2.71749196155364
C           -5.77569533521425        0.02610178681198        2.68459421020974
C           -5.73594853029126       -1.19005175105807        2.02988644039700
C           -4.56884895773295       -1.55276842544672        1.37200188974778
C           -4.16818959594548       -2.72425944088308        0.63978757996875
C           -4.81805023041861       -3.90282434169573        0.29981791339030
C           -4.13783846878957       -4.84143457311344       -0.45155456346969
C           -2.83244650415274       -4.61026904457949       -0.87476914126773
C           -2.16802907624945       -3.44205635718292       -0.54942923695793
C           -2.83734157560985       -2.50911791331728        0.22462661642064
C           -0.00003846394712       -1.23641178255663        0.62258362337303
C           -0.00062937084771       -2.42139072861600        1.39381021363958
N           -0.00133254950704       -3.34869217300423        2.06834256286111
C            1.22912982739413       -0.62917809131809        0.31412141307374
N            2.42153550626420       -1.26006678232897        0.65508305474295
C            2.83252032146297       -2.51454174422335        0.22126834223457
C            2.15881636097135       -3.44630707988795       -0.55039119596962
C            2.81884768810946       -4.61709035961929       -0.87542404656503
C            4.12430379062973       -4.85186614434639       -0.45443069501936
C            4.80911811075330       -3.91421245833273        0.29394684459633
C            4.16365880716847       -2.73314217379674        0.63360290021056
C            4.56948494471375       -1.56197512498393        1.36346285709060
C            5.73950559364892       -1.20184874314852        2.01754313630116
C            5.78461293993676        0.01493996811456        2.67070744163781
C            4.67294773460240        0.85137984374360        2.70613006667160
C            3.49701437201926        0.51175303255623        2.06262856441308
C            3.46805058074484       -0.68143179894515        1.35999155815831
C            1.22948806612297        0.62789051351589       -0.31565525955293
N            2.42230901787696        1.25714333611764       -0.65824816718300
C            2.83620800060993        2.51073266310635       -0.22466326501963
C            2.16526975412636        3.44355765004820        0.54812691422322
C            2.82805895146006        4.61286659097239        0.87287688197815
C            4.13349552848075        4.84517995586711        0.45045137428590
C            4.81547087139246        3.90654245354272       -0.29928893206014
C            4.16723689860534        2.72691414692071       -0.63867375275229
C            4.56986982977861        1.55521000570375       -1.36945637908949
C            5.73823235568663        1.19303103680768       -2.02537346110583
C            5.78003930748631       -0.02364811446821       -2.67897238451585
C            4.66678890843033       -0.85804316282473       -2.71291274703727
C            3.49247466803222       -0.51637019799574       -2.06755926344006
C            3.46680009050673        0.67673814834211       -1.36467167686518
H           -1.15336506214507        3.27369513852825        0.89699339324536
H           -2.31525259722816        5.35894651286303        1.47063304437217
H           -4.61249243147925        5.77494798369529        0.72440127877855
H           -5.82950971804820        4.08429793233581       -0.60994740658379
H           -6.58883105629677        1.86066299867566       -2.02534451057243
H           -6.68154490042445       -0.32036657985668       -3.18765537282214
H           -4.71629861212997       -1.78447722914332       -3.25516669420873
H           -2.62729663106591       -1.15556799203805       -2.12396082381516
H           -2.62197155824347        1.15862862802926        2.12725977974046
H           -4.70824922179801        1.79064063696165        3.26187386476103
H           -6.67592847434271        0.32965276692098        3.19700374777240
H           -6.58877275375261       -1.85087718820602        2.03343575657365
H           -5.83571464101348       -4.07460462873969        0.61431426488827
H           -4.62372492364996       -5.76619588618463       -0.72337029850923
H           -2.32636454881781       -5.35423054780830       -1.47148467739584
H           -1.15957459182201       -3.27193024300345       -0.89692627515667
H            1.15025800344722       -3.27349113090090       -0.89622856142812
H            2.30914544728416       -5.36029611351750       -1.46998465334812
H            4.60657556005485       -5.77868651229374       -0.72566081985151
H            5.82688278685826       -4.08872685912285        0.60659622090181
H            6.59044073517770       -1.86510674252488        2.01926557838260
H            6.68724993975673        0.31663870453572        3.17996760313696
H            4.72359167259948        1.78284197712304        3.24946659569006
H            2.63227166082995        1.15539575829664        2.12191998751074
H            1.15676982234854        3.27261585368954        0.89507255846158
H            2.32058478573234        5.35683030864653        1.46840163250548
H            4.61801541760875        5.77084557527298        0.72162534023297
H            5.83321423338616        4.07915459010544       -0.61306757489288
H            6.59044782762752        1.85464091526099       -2.02821614988604
H            6.68133004349787       -0.32688376509175       -3.18970127121119
H            4.71488929560829       -1.78949235819919       -3.25650550720075
H            2.62642640431493       -1.15837584565028       -2.12560181164800

          :  Hamiltonian                  GFN2-xTB          :
         :: gradient norm              0.000133496596 Eh/a0 ::
         :: HOMO-LUMO gap              1.535755580364 eV    ::
         :: SCC energy              -156.874452910302 Eh    ::
         :: -> dispersion             -0.172293196940 Eh    ::
         :: -> Gsolv                  -0.059763864888 Eh    ::
         :: repulsion energy           2.952885574045 Eh    ::

    * Orbital Energies and Occupations

         #    Occupation            Energy/Eh            Energy/eV
      -------------------------------------------------------------
         1        2.0000           -0.7240918             -19.7035
       ...           ...                  ...                  ...
       131        2.0000           -0.4292526             -11.6806
       132        2.0000           -0.4191556             -11.4058
       133        2.0000           -0.4190638             -11.4033
       134        2.0000           -0.4177352             -11.3672
       135        2.0000           -0.4176251             -11.3642
       136        2.0000           -0.3945150             -10.7353
       137        2.0000           -0.3944750             -10.7342
       138        2.0000           -0.3909087             -10.6372
       139        2.0000           -0.3906264             -10.6295
       140        2.0000           -0.3870917             -10.5333
       141        2.0000           -0.3867103             -10.5229
       142        2.0000           -0.3819298             -10.3928
       143        2.0000           -0.3777612             -10.2794 (HOMO)
       144                         -0.3213231              -8.7436 (LUMO)
       145                         -0.2844189              -7.7394
       146                         -0.2595201              -7.0619
       147                         -0.2585685              -7.0360
       148                         -0.2584543              -7.0329
       149                         -0.2572097              -6.9990
       150                         -0.2480793              -6.7506
       151                         -0.2392239              -6.5096
       152                         -0.2389199              -6.5013
       153                         -0.2372539              -6.4560
       154                         -0.2353039              -6.4029
       ...                                ...                  ...
       280                          1.1439271              31.1278
      -------------------------------------------------------------
                  HL-Gap            0.0564380 Eh            1.5358 eV

     #   Z          covCN         q      C6AA      α(0)
     1   7 N        0.911    -0.248    26.455     7.439
     2   6 C        1.914     0.132    27.866     8.525
     3   6 C        2.974    -0.012    28.303     8.727
     4   6 C        2.916     0.058    26.702     8.474
     5   7 N        2.800    -0.056    22.316     7.016
     6   6 C        3.065     0.050    26.824     8.493
     7   6 C        2.911    -0.047    29.165     8.855
     8   6 C        2.924    -0.031    28.773     8.797
     9   6 C        2.920    -0.037    28.923     8.819
    10   6 C        2.913    -0.031    28.767     8.795
    11   6 C        3.067    -0.013    28.280     8.720
    12   6 C        3.065    -0.014    28.300     8.723
    13   6 C        2.913    -0.031    28.784     8.798
    14   6 C        2.920    -0.037    28.923     8.819
    15   6 C        2.925    -0.032    28.787     8.799
    16   6 C        2.910    -0.049    29.225     8.865
    17   6 C        3.068     0.048    26.850     8.497
    18   6 C        2.916     0.058    26.702     8.474
    19   7 N        2.800    -0.056    22.316     7.016
    20   6 C        3.068     0.048    26.850     8.497
    21   6 C        2.910    -0.049    29.225     8.865
    22   6 C        2.925    -0.032    28.787     8.799
    23   6 C        2.920    -0.037    28.923     8.819
    24   6 C        2.913    -0.031    28.784     8.798
    25   6 C        3.065    -0.014    28.300     8.723
    26   6 C        3.067    -0.013    28.280     8.720
    27   6 C        2.913    -0.031    28.767     8.795
    28   6 C        2.920    -0.037    28.923     8.819
    29   6 C        2.924    -0.031    28.773     8.797
    30   6 C        2.911    -0.047    29.165     8.855
    31   6 C        3.065     0.050    26.824     8.493
    32   6 C        2.974    -0.012    28.303     8.727
    33   6 C        1.914     0.132    27.866     8.525
    34   7 N        0.911    -0.248    26.455     7.439
    35   6 C        2.916     0.058    26.702     8.474
    36   7 N        2.800    -0.056    22.315     7.016
    37   6 C        3.065     0.050    26.825     8.493
    38   6 C        2.911    -0.047    29.165     8.855
    39   6 C        2.924    -0.031    28.773     8.797
    40   6 C        2.920    -0.037    28.923     8.819
    41   6 C        2.913    -0.031    28.767     8.795
    42   6 C        3.067    -0.013    28.280     8.720
    43   6 C        3.065    -0.014    28.300     8.723
    44   6 C        2.913    -0.031    28.783     8.798
    45   6 C        2.920    -0.037    28.923     8.819
    46   6 C        2.925    -0.032    28.787     8.799
    47   6 C        2.910    -0.049    29.225     8.865
    48   6 C        3.068     0.048    26.851     8.497
    49   6 C        2.916     0.058    26.702     8.474
    50   7 N        2.800    -0.056    22.315     7.016
    51   6 C        3.065     0.050    26.824     8.493
    52   6 C        2.911    -0.047    29.165     8.856
    53   6 C        2.924    -0.031    28.773     8.797
    54   6 C        2.920    -0.037    28.923     8.819
    55   6 C        2.913    -0.031    28.767     8.795
    56   6 C        3.067    -0.013    28.280     8.720
    57   6 C        3.065    -0.014    28.300     8.723
    58   6 C        2.913    -0.031    28.783     8.798
    59   6 C        2.920    -0.037    28.923     8.819
    60   6 C        2.925    -0.032    28.787     8.799
    61   6 C        2.910    -0.049    29.225     8.865
    62   6 C        3.068     0.048    26.850     8.497
    63   1 H        0.926     0.012     2.851     2.640
    64   1 H        0.926     0.041     2.440     2.443
    65   1 H        0.926     0.043     2.408     2.427
    66   1 H        0.926     0.045     2.378     2.412
    67   1 H        0.926     0.045     2.385     2.415
    68   1 H        0.926     0.043     2.415     2.430
    69   1 H        0.926     0.039     2.460     2.453
    70   1 H        0.926     0.019     2.756     2.596
    71   1 H        0.926     0.018     2.756     2.596
    72   1 H        0.926     0.039     2.460     2.453
    73   1 H        0.926     0.043     2.415     2.430
    74   1 H        0.926     0.045     2.385     2.415
    75   1 H        0.926     0.045     2.378     2.412
    76   1 H        0.926     0.043     2.408     2.427
    77   1 H        0.926     0.041     2.440     2.443
    78   1 H        0.926     0.012     2.851     2.640
    79   1 H        0.926     0.012     2.851     2.640
    80   1 H        0.926     0.041     2.439     2.442
    81   1 H        0.926     0.043     2.408     2.427
    82   1 H        0.926     0.045     2.378     2.412
    83   1 H        0.926     0.045     2.385     2.415
    84   1 H        0.926     0.043     2.415     2.430
    85   1 H        0.926     0.039     2.460     2.453
    86   1 H        0.926     0.019     2.755     2.596
    87   1 H        0.926     0.012     2.850     2.640
    88   1 H        0.926     0.041     2.440     2.442
    89   1 H        0.926     0.043     2.408     2.427
    90   1 H        0.926     0.045     2.378     2.412
    91   1 H        0.926     0.045     2.385     2.415
    92   1 H        0.926     0.043     2.415     2.430
    93   1 H        0.926     0.039     2.460     2.453
    94   1 H        0.926     0.019     2.756     2.596

molecular dipole:
                 x           y           z       tot (Debye)
 q only:        0.004       0.000      -0.000
   full:        0.004       0.000      -0.000       0.010

 projected vibrational frequencies (cm⁻¹)
eigval :       -0.00    -0.00    -0.00    -0.00    -0.00     0.00
eigval :       10.36    27.35    28.62    29.01    30.48    32.77
eigval :       33.95    45.06    55.16    56.70    58.64    66.48
eigval :       77.35   101.93   102.01   108.35   109.87   112.47
eigval :      115.44   120.88   121.65   128.88   130.60   137.08
eigval :      148.37   154.63   162.28   165.65   185.61   185.98
eigval :      199.90   212.68   239.40   253.30   263.92   267.75
eigval :      273.44   274.90   275.71   276.22   293.54   302.02
eigval :      347.95   351.05   367.16   393.19   397.00   397.16
eigval :      397.28   401.96   403.52   408.57   413.96   419.54
eigval :      421.66   425.37   432.22   435.08   436.49   441.79
eigval :      444.14   444.30   511.63   513.31   517.67   518.24
eigval :      521.30   522.44   528.01   529.25   534.49   537.64
eigval :      542.94   543.38   543.55   543.86   566.18   573.44
eigval :      575.90   581.43   588.08   592.08   594.26   599.11
eigval :      621.70   633.04   649.99   658.75   659.73   670.73
eigval :      671.43   672.35   673.05   692.15   706.04   706.75
eigval :      706.91   708.29   722.55   728.61   751.77   753.19
eigval :      755.41   756.71   763.06   763.94   768.36   768.78
eigval :      777.21   780.07   780.44   781.44   782.03   788.09
eigval :      857.17   857.28   863.49   867.03   867.06   875.81
eigval :      876.01   876.17   876.30   890.15   893.23   893.32
eigval :      901.00   901.02   902.27   902.87   902.93   903.93
eigval :      904.02   904.25   904.34   920.59   920.71   921.41
eigval :      921.64   925.59   925.70   925.75   925.84   973.18
eigval :     1008.16  1012.18  1012.70  1014.67  1020.25  1068.35
eigval :     1068.41  1069.54  1069.75  1070.78  1071.99  1072.84
eigval :     1074.41  1074.69  1079.16  1120.57  1143.09  1146.99
eigval :     1148.97  1149.35  1151.74  1152.47  1161.52  1175.95
eigval :     1176.04  1176.78  1178.95  1179.03  1180.06  1180.59
eigval :     1181.09  1195.48  1215.70  1218.59  1228.48  1229.89
eigval :     1231.69  1233.30  1234.22  1246.39  1259.62  1270.98
eigval :     1281.97  1291.17  1292.06  1292.17  1292.80  1294.22
eigval :     1296.24  1298.14  1304.30  1348.77  1350.73  1356.40
eigval :     1356.54  1356.60  1358.10  1359.19  1359.58  1359.96
eigval :     1360.76  1403.36  1408.87  1413.68  1418.79  1420.90
eigval :     1425.51  1425.56  1426.08  1427.58  1438.87  1452.32
eigval :     1470.55  1470.87  1471.00  1472.06  1484.39  1484.53
eigval :     1484.54  1484.96  1496.55  1496.92  1577.69  1577.71
eigval :     1578.01  1578.14  1591.81  1592.01  1592.17  1592.97
eigval :     1599.74  1600.07  1600.14  1600.39  1611.38  1611.56
eigval :     1611.89  1613.49  2360.36  2361.19  3070.44  3070.49
eigval :     3071.37  3071.54  3080.59  3080.65  3080.73  3080.76
eigval :     3084.59  3084.72  3084.77  3084.96  3085.73  3085.79
eigval :     3085.98  3086.05  3091.57  3091.73  3091.94  3092.03
eigval :     3093.34  3093.38  3093.69  3093.73  3100.50  3100.57
eigval :     3100.71  3100.76  3102.62  3102.65  3102.91  3103.01

   temp. (K)  partition function   enthalpy   heat capacity  entropy
                                   cal/mol     cal/K/mol   cal/K/mol   J/K/mol
 298.15  VIB  0.166E+21            27921.182    179.341    171.339
         ROT  0.472E+08              888.752      2.981     38.097
         INT  0.785E+28            28809.935    182.322    209.435
         TR   0.214E+29             1481.254      4.968     45.854
         TOT                       30291.1887   187.2901   255.2891  1068.1294

       T/K    H(0)-H(T)+PV         H(T)/Eh          T*S/Eh         G(T)/Eh
   ------------------------------------------------------------------------
    298.15    0.482721E-01    0.749047E+00    0.121296E+00    0.627751E+00
   ------------------------------------------------------------------------

         :::::::::::::::::::::::::::::::::::::::::::::::::::::
         ::                  THERMODYNAMIC                  ::
         :::::::::::::::::::::::::::::::::::::::::::::::::::::
         :: total free energy        -153.293816385186 Eh   ::
         ::.................................................::
         :: total energy             -153.921567336755 Eh   ::
         :: zero point energy           0.700774942154 Eh   ::
         :: G(RRHO) w/o ZPVE           -0.073023990585 Eh   ::
         :: G(RRHO) contrib.            0.627750951569 Eh   ::
         :::::::::::::::::::::::::::::::::::::::::::::::::::::

           -------------------------------------------------
          | TOTAL ENERGY             -153.921567336755 Eh   |
          | TOTAL ENTHALPY           -153.172520312764 Eh   |
          | TOTAL FREE ENERGY        -153.293816385186 Eh   |
          | GRADIENT NORM               0.000133498284 Eh/α |
          | HOMO-LUMO GAP               1.535756304148 eV   |
           -------------------------------------------------

 * finished run on 2025/07/16 at 08:57:09.495
