   * xtb version 6.7.1 (edcfbbe) compiled by 'albert@albert-system' on 2024-07-22

   ID    Z sym.   atoms
    1    7 N      1, 5, 19, 34, 36, 50
    2    6 C      2-4, 6-18, 20-33, 35, 37-49, 51-62
    3    1 H      63-94

          program call               : xtb data2507/toluene/4CzTPN/4CzTPN_toluene_T1_crest.xyz --gfn 2 --uhf 2 --gbsa toluene --ohess vtight --parallel 40 --molden --ceasefiles --namespace data2507/toluene/4CzTPN/4CzTPN_toluene_T1_finalOpt
      * Solvation model:               GBSA
        Solvent                        toluene
        Solvent mass                       9.2140E+01 g/mol
          :  Hamiltonian                  GFN2-xTB          :
 * total energy  :  -153.8520101 Eh     change       -0.3097114E-08 Eh
 * total energy  :  -153.8522293 Eh     change       -0.2192662E-03 Eh
 * total energy  :  -153.8523946 Eh     change       -0.1652359E-03 Eh
 * total energy  :  -153.8524696 Eh     change       -0.7499236E-04 Eh
 * total energy  :  -153.8525429 Eh     change       -0.7331222E-04 Eh
 * total energy  :  -153.8526131 Eh     change       -0.7023427E-04 Eh
 * total energy  :  -153.8526935 Eh     change       -0.8041759E-04 Eh
 * total energy  :  -153.8527543 Eh     change       -0.6081157E-04 Eh
 * total energy  :  -153.8527965 Eh     change       -0.4216858E-04 Eh
 * total energy  :  -153.8528700 Eh     change       -0.7344283E-04 Eh
 * total energy  :  -153.8536620 Eh     change       -0.6873265E-06 Eh
 * total energy  :  -153.8536627 Eh     change       -0.6568374E-06 Eh
 * total energy  :  -153.8536632 Eh     change       -0.5253817E-06 Eh
 * total energy  :  -153.8536640 Eh     change       -0.7326443E-06 Eh
 * total energy  :  -153.8536646 Eh     change       -0.6306363E-06 Eh
 * total energy  :  -153.8536652 Eh     change       -0.6180776E-06 Eh
 * total energy  :  -153.8536658 Eh     change       -0.6099090E-06 Eh
 * total energy  :  -153.8536664 Eh     change       -0.5852788E-06 Eh
 * total energy  :  -153.8536664 Eh     change       -0.5112298E-08 Eh
   *** GEOMETRY OPTIMIZATION CONVERGED AFTER 68 ITERATIONS ***

 final structure:
================
94
 xtb: 6.7.1 (edcfbbe)
N           -0.00021707947299       -3.37268446899694       -2.07582294966700
C           -0.00026848869790       -2.41845914547847       -1.41800515936063
C           -0.00028900261956       -1.27368768309506       -0.63837991472542
C           -1.23060659706903       -0.61780814678018       -0.31147364833035
N           -2.43646278579305       -1.23035105756579       -0.67325072459770
C           -3.44747789029210       -0.64763340237978       -1.41321085744819
C           -3.44441524013450        0.54806177629266       -2.11658157393921
C           -4.59876967145209        0.90220220481935       -2.79098985759513
C           -5.72162176677983        0.08047011707126       -2.78280724147612
C           -5.71037943253218       -1.13858298280294       -2.12596062148806
C           -4.56358572620742       -1.51374025996584       -1.44437202096183
C           -4.18819092412126       -2.68812738351825       -0.70073398434398
C           -4.84889517810791       -3.86125619507463       -0.37292527818764
C           -4.18545102350026       -4.80291593127728        0.39482480513475
C           -2.88710537430448       -4.57774380855117        0.84431423863555
C           -2.21213026245134       -3.41227929390263        0.53470369373657
C           -2.86351801122885       -2.47423597495158       -0.25438456722661
C           -1.23058585780029        0.61680534391493        0.30733213294017
N           -2.43643072926172        1.22954378666367        0.66881350289990
C           -2.86306008037799        2.47364049439144        0.25014278529909
C           -2.21128144017984        3.41167734203071       -0.53862433178346
C           -2.88579627367875        4.57750467439098       -0.84787957727980
C           -4.18407747838345        4.80302749561868       -0.39837753250717
C           -4.84794774594481        3.86133878405124        0.36896229526237
C           -4.18770679406548        2.68784692432873        0.69641546614927
C           -4.56355707488993        1.51340864207170        1.43973269144904
C           -5.71056154195293        1.13843288174269        2.12107440595064
C           -5.72221830395465       -0.08071373199982        2.77773414883950
C           -4.59954959812566       -0.90269498352376        2.78603611922877
C           -3.44500182177035       -0.54874838257026        2.11185680918825
C           -3.44768485261703        0.64700261321024        1.40858686127439
C           -0.00025702000863        1.27244381132703        0.63466152932378
C           -0.00027740171509        2.41716410922955        1.41435121747151
N           -0.00028984972666        3.37134130204609        2.07225317209182
C            1.23004277118658        0.61653862842189        0.30781918244464
N            2.43595080715636        1.22887241511319        0.66977746115731
C            3.44689919777478        0.64556842312379        1.40937935860826
C            3.44326077256186       -0.55000233990840        2.11295398118785
C            4.59767376841651       -0.90489801736931        2.78686319757774
C            5.72115812121643       -0.08404346234637        2.77793593029489
C            5.71046769184704        1.13497559394380        2.12101843177947
C            4.56357876371049        1.51093823208784        1.44002885222018
C            4.18855102032536        2.68560405077381        0.69665456892855
C            4.84975712877544        3.85845342873160        0.36886098979356
C            4.18647814221403        4.80069168128275       -0.39831687721755
C            2.88781474792608        4.57633683675538       -0.84730117443490
C            2.21234374598738        3.41114572523488       -0.53773067848843
C            2.86355818737270        2.47254482744863        0.25083260364494
C            1.23002604048263       -0.61806403607037       -0.31103800389195
N            2.43596798094811       -1.23070916038814       -0.67238802107280
C            3.44744310217634       -0.64766159579913       -1.41147217026695
C            3.44440868917305        0.54783097919483       -2.11518111007577
C            4.59923657924645        0.90240810132812       -2.78854863164074
C            5.72255256575323        0.08132615898381       -2.77894688792212
C            5.71131355323079       -1.13756765962761       -2.12181096039588
C            4.56400877282250       -1.51320490408846       -1.44133676015226
C            4.18841877594528       -2.68764607513804       -0.69789525993102
C            4.84936394654813       -3.86041502487819       -0.36927234634792
C            4.18556972679020       -4.80234231758158        0.39783819204397
C            2.88661957522927       -4.57778880245682        0.84589558742476
C            2.21139738835101       -3.41267707823853        0.53548733471739
C            2.86317677381726       -2.47434914930547       -0.25293347514111
H           -2.56767500584598        1.17653481725502       -2.15221743777027
H           -4.62390841787658        1.83304370706103       -3.33687187527731
H           -6.60745328732103        0.39277106898710       -3.31452318695723
H           -6.57175302730515       -1.78779143093851       -2.14831202056747
H           -5.86050328251783       -4.03193707884462       -0.70697874673556
H           -4.68096229368097       -5.72561058755022        0.65605883376514
H           -2.39691209658479       -5.32569558193990        1.44907731173842
H           -1.20854310484481       -3.24415691552351        0.89408927227136
H           -1.20773530699174        3.24330426661337       -0.89800610006503
H           -2.39527396534920        5.32549095050150       -1.45233157977742
H           -4.67919250068832        5.72603372136922       -0.65926265246527
H           -5.85951010123180        4.03228625066465        0.70301807011596
H           -6.57176927465876        1.78786155024869        2.14338952309282
H           -6.60821861235933       -0.39288422994299        3.30924436836792
H           -4.62498546875482       -1.83357595789645        3.33183440949552
H           -2.56840264093790       -1.17740823822912        2.14761170266774
H            2.56603129071277       -1.17776433113672        2.14914962128814
H            4.62237343812566       -1.83563523631991        3.33293721779568
H            6.60705361095560       -0.39699472480538        3.30916158875593
H            6.57233577019941        1.78354283131822        2.14285633582968
H            5.86160254941938        4.02848503438127        0.70252646675577
H            4.68235814845095        5.72320967074636       -0.65947530725049
H            2.39774696319645        5.32474374181783       -1.45160155188249
H            1.20848307043455        3.24371315106938       -0.89666194320347
H            2.56733416935223        1.17578362811601       -2.15187281696762
H            4.62440208412226        1.83307611259729       -3.33472060643442
H            6.60876595347643        0.39400982878369       -3.30980043318405
H            6.57307711429138       -1.78629353011093       -2.14308682415249
H            5.86143183706874       -4.03058883478813       -0.70219089048643
H            4.68127160762993       -5.72475495650544        0.65970587591026
H            2.39614297139563       -5.32595381168496        1.45016339672564
H            1.20730562374389       -3.24508129240551        0.89369675150169

          :  Hamiltonian                  GFN2-xTB          :
         :: gradient norm              0.000058385224 Eh/a0 ::
         :: HOMO-LUMO gap              0.810678989630 eV    ::
         :: SCC energy              -156.786060698385 Eh    ::
         :: -> dispersion             -0.171080550923 Eh    ::
         :: -> Gsolv                  -0.066963503047 Eh    ::
         :: repulsion energy           2.932394287404 Eh    ::

    * Orbital Energies and Occupations

         #    Occupation            Energy/Eh            Energy/eV
      -------------------------------------------------------------
         1        2.0000           -0.6980004             -18.9936
       ...           ...                  ...                  ...
       132        2.0000           -0.4189319             -11.3997
       133        2.0000           -0.4156719             -11.3110
       134        2.0000           -0.4131527             -11.2425
       135        2.0000           -0.4107394             -11.1768
       136        2.0000           -0.3966430             -10.7932
       137        2.0000           -0.3965921             -10.7918
       138        2.0000           -0.3933951             -10.7048
       139        2.0000           -0.3931735             -10.6988
       140        1.9998           -0.3853478             -10.4858
       141        1.9998           -0.3852100             -10.4821
       142        1.7896           -0.3785626             -10.3012
       143        1.2108           -0.3760521             -10.2329
       144        1.0000           -0.2957785              -8.0485 (HOMO)
       145        0.0000           -0.2659866              -7.2379 (LUMO)
       146                         -0.2608071              -7.0969
       147                         -0.2601026              -7.0778
       148                         -0.2600349              -7.0759
       149                         -0.2534933              -6.8979
       150                         -0.2416695              -6.5762
       151                         -0.2415637              -6.5733
       152                         -0.2354044              -6.4057
       153                         -0.2353679              -6.4047
       154                         -0.2248208              -6.1177
       155                         -0.2127624              -5.7896
       ...                                ...                  ...
       280                          1.1646611              31.6920
      -------------------------------------------------------------
                  HL-Gap            0.0297919 Eh            0.8107 eV

     #   Z          covCN         q      C6AA      α(0)
     1   7 N        0.911    -0.355    29.144     7.808
     2   6 C        1.909     0.109    28.413     8.608
     3   6 C        2.965    -0.055    29.363     8.888
     4   6 C        2.911     0.042    27.061     8.530
     5   7 N        2.802    -0.034    21.907     6.952
     6   6 C        3.075     0.050    26.812     8.490
     7   6 C        2.910    -0.044    29.105     8.846
     8   6 C        2.923    -0.031    28.774     8.797
     9   6 C        2.920    -0.033    28.830     8.805
    10   6 C        2.913    -0.029    28.723     8.788
    11   6 C        3.065    -0.013    28.279     8.720
    12   6 C        3.067    -0.012    28.246     8.715
    13   6 C        2.912    -0.029    28.720     8.788
    14   6 C        2.920    -0.032    28.796     8.800
    15   6 C        2.923    -0.030    28.745     8.792
    16   6 C        2.910    -0.038    28.951     8.823
    17   6 C        3.073     0.055    26.699     8.472
    18   6 C        2.911     0.042    27.061     8.530
    19   7 N        2.802    -0.034    21.907     6.951
    20   6 C        3.073     0.055    26.699     8.472
    21   6 C        2.910    -0.038    28.951     8.823
    22   6 C        2.923    -0.030    28.745     8.792
    23   6 C        2.920    -0.032    28.796     8.800
    24   6 C        2.912    -0.029    28.720     8.788
    25   6 C        3.067    -0.012    28.246     8.715
    26   6 C        3.065    -0.013    28.279     8.720
    27   6 C        2.913    -0.029    28.723     8.788
    28   6 C        2.920    -0.033    28.830     8.805
    29   6 C        2.923    -0.031    28.774     8.797
    30   6 C        2.910    -0.044    29.105     8.846
    31   6 C        3.075     0.050    26.812     8.490
    32   6 C        2.965    -0.055    29.363     8.888
    33   6 C        1.909     0.109    28.413     8.608
    34   7 N        0.911    -0.355    29.145     7.808
    35   6 C        2.911     0.042    27.061     8.530
    36   7 N        2.802    -0.034    21.907     6.952
    37   6 C        3.075     0.050    26.812     8.490
    38   6 C        2.910    -0.044    29.104     8.846
    39   6 C        2.923    -0.031    28.774     8.797
    40   6 C        2.920    -0.033    28.830     8.805
    41   6 C        2.913    -0.029    28.723     8.788
    42   6 C        3.065    -0.013    28.279     8.720
    43   6 C        3.067    -0.012    28.246     8.715
    44   6 C        2.912    -0.029    28.720     8.788
    45   6 C        2.920    -0.032    28.796     8.800
    46   6 C        2.923    -0.030    28.745     8.792
    47   6 C        2.910    -0.038    28.951     8.823
    48   6 C        3.073     0.055    26.699     8.472
    49   6 C        2.911     0.042    27.061     8.530
    50   7 N        2.802    -0.034    21.907     6.952
    51   6 C        3.075     0.050    26.812     8.490
    52   6 C        2.910    -0.044    29.104     8.846
    53   6 C        2.923    -0.031    28.774     8.797
    54   6 C        2.920    -0.033    28.830     8.805
    55   6 C        2.913    -0.029    28.723     8.788
    56   6 C        3.065    -0.013    28.279     8.720
    57   6 C        3.067    -0.012    28.246     8.715
    58   6 C        2.912    -0.029    28.720     8.788
    59   6 C        2.920    -0.032    28.796     8.800
    60   6 C        2.923    -0.030    28.745     8.792
    61   6 C        2.910    -0.038    28.951     8.823
    62   6 C        3.073     0.055    26.699     8.472
    63   1 H        0.926     0.026     2.637     2.539
    64   1 H        0.926     0.043     2.408     2.427
    65   1 H        0.926     0.047     2.357     2.401
    66   1 H        0.926     0.049     2.336     2.390
    67   1 H        0.926     0.049     2.330     2.387
    68   1 H        0.926     0.048     2.348     2.396
    69   1 H        0.926     0.045     2.388     2.416
    70   1 H        0.926     0.024     2.670     2.555
    71   1 H        0.926     0.024     2.670     2.555
    72   1 H        0.926     0.045     2.388     2.416
    73   1 H        0.926     0.048     2.348     2.396
    74   1 H        0.926     0.049     2.330     2.387
    75   1 H        0.926     0.049     2.336     2.390
    76   1 H        0.926     0.047     2.357     2.401
    77   1 H        0.926     0.043     2.408     2.427
    78   1 H        0.926     0.026     2.637     2.539
    79   1 H        0.926     0.026     2.637     2.539
    80   1 H        0.926     0.043     2.408     2.427
    81   1 H        0.926     0.047     2.357     2.401
    82   1 H        0.926     0.049     2.336     2.390
    83   1 H        0.926     0.049     2.330     2.387
    84   1 H        0.926     0.048     2.348     2.396
    85   1 H        0.926     0.045     2.388     2.416
    86   1 H        0.926     0.024     2.670     2.555
    87   1 H        0.926     0.026     2.637     2.539
    88   1 H        0.926     0.043     2.408     2.427
    89   1 H        0.926     0.047     2.357     2.401
    90   1 H        0.926     0.049     2.336     2.390
    91   1 H        0.926     0.049     2.330     2.387
    92   1 H        0.926     0.048     2.348     2.396
    93   1 H        0.926     0.045     2.388     2.416
    94   1 H        0.926     0.024     2.670     2.555

molecular dipole:
                 x           y           z       tot (Debye)
 q only:        0.001       0.000       0.001
   full:        0.001       0.000       0.000       0.002

 projected vibrational frequencies (cm⁻¹)
eigval :       -0.00     0.00     0.00     0.00     0.00     0.00
eigval :       11.36    20.78    25.18    27.00    27.77    29.68
eigval :       30.36    46.30    53.23    53.40    55.51    67.02
eigval :       73.30    98.71   103.03   107.19   107.66   108.88
eigval :      113.74   116.81   120.45   125.82   129.02   135.53
eigval :      145.28   148.20   160.01   163.00   182.21   183.62
eigval :      193.99   212.82   231.72   250.57   252.48   265.59
eigval :      271.87   272.09   273.58   275.69   292.21   301.49
eigval :      353.85   357.62   367.17   386.47   390.74   395.85
eigval :      396.55   399.82   402.78   405.43   415.10   417.49
eigval :      420.14   421.65   428.66   430.78   435.52   436.69
eigval :      440.19   444.07   456.71   504.69   513.91   514.68
eigval :      514.86   515.91   518.10   533.58   535.79   536.80
eigval :      538.16   538.62   538.83   541.67   542.99   555.74
eigval :      574.59   579.10   583.21   585.00   587.41   595.36
eigval :      602.38   621.69   636.81   645.13   647.38   656.81
eigval :      671.39   671.98   672.33   673.30   707.51   708.13
eigval :      708.30   708.78   722.01   725.53   750.45   751.94
eigval :      754.06   755.34   759.82   760.86   763.34   764.27
eigval :      776.05   776.35   776.49   777.30   782.79   783.14
eigval :      850.70   850.97   851.90   857.90   858.20   873.11
eigval :      873.38   873.47   873.63   888.47   892.83   893.35
eigval :      894.78   894.84   896.62   896.84   900.38   902.93
eigval :      903.04   903.08   903.26   915.90   916.03   917.22
eigval :      917.25   922.89   923.05   923.10   923.19   974.24
eigval :     1006.26  1010.78  1010.89  1013.78  1015.15  1059.73
eigval :     1064.52  1065.26  1066.36  1067.91  1069.02  1069.10
eigval :     1069.53  1070.67  1079.49  1116.61  1137.20  1139.74
eigval :     1140.96  1141.35  1143.34  1152.25  1154.27  1172.40
eigval :     1172.94  1173.79  1175.31  1175.79  1176.44  1177.39
eigval :     1180.52  1191.08  1213.53  1215.36  1220.76  1224.71
eigval :     1226.10  1227.34  1229.04  1236.80  1241.36  1270.65
eigval :     1274.80  1279.46  1280.32  1281.93  1282.20  1288.21
eigval :     1289.96  1294.78  1295.74  1337.20  1337.86  1337.91
eigval :     1340.96  1344.33  1345.95  1349.67  1359.03  1359.10
eigval :     1361.36  1363.15  1375.66  1389.17  1409.70  1410.17
eigval :     1410.61  1412.40  1413.73  1417.46  1424.54  1428.72
eigval :     1459.28  1459.39  1459.54  1459.76  1478.30  1479.95
eigval :     1480.17  1480.44  1480.48  1534.12  1565.68  1566.02
eigval :     1566.16  1566.49  1578.71  1578.72  1578.91  1579.39
eigval :     1580.09  1580.78  1581.54  1583.77  1597.27  1597.41
eigval :     1602.01  1605.89  2249.48  2295.33  3081.61  3081.66
eigval :     3082.51  3082.56  3084.29  3084.31  3084.36  3084.43
eigval :     3086.99  3087.00  3087.27  3087.43  3087.98  3088.02
eigval :     3088.38  3088.50  3093.69  3093.82  3093.94  3094.12
eigval :     3095.89  3096.03  3096.28  3096.31  3100.65  3101.23
eigval :     3101.32  3101.57  3101.89  3102.53  3102.79  3103.91

   temp. (K)  partition function   enthalpy   heat capacity  entropy
                                   cal/mol     cal/K/mol   cal/K/mol   J/K/mol
 298.15  VIB  0.567E+21            28210.595    180.275    173.461
         ROT  0.472E+08              888.752      2.981     38.097
         INT  0.268E+29            29099.348    183.256    211.558
         TR   0.214E+29             1481.254      4.968     45.854
         TOT                       30580.6017   188.2239   257.4116  1077.0101

       T/K    H(0)-H(T)+PV         H(T)/Eh          T*S/Eh         G(T)/Eh
   ------------------------------------------------------------------------
    298.15    0.487333E-01    0.746136E+00    0.122305E+00    0.623832E+00
   ------------------------------------------------------------------------

         :::::::::::::::::::::::::::::::::::::::::::::::::::::
         ::                  THERMODYNAMIC                  ::
         :::::::::::::::::::::::::::::::::::::::::::::::::::::
         :: total free energy        -153.229834677039 Eh   ::
         ::.................................................::
         :: total energy             -153.853666408832 Eh   ::
         :: zero point energy           0.697402996631 Eh   ::
         :: G(RRHO) w/o ZPVE           -0.073571264838 Eh   ::
         :: G(RRHO) contrib.            0.623831731792 Eh   ::
         :::::::::::::::::::::::::::::::::::::::::::::::::::::

           -------------------------------------------------
          | TOTAL ENERGY             -153.853666408832 Eh   |
          | TOTAL ENTHALPY           -153.107530121333 Eh   |
          | TOTAL FREE ENERGY        -153.229834677039 Eh   |
          | GRADIENT NORM               0.000058137265 Eh/α |
          | HOMO-LUMO GAP               0.810678789812 eV   |
           -------------------------------------------------

 * finished run on 2025/07/16 at 09:04:39.213
