   * xtb version 6.7.1 (edcfbbe) compiled by 'albert@albert-system' on 2024-07-22

   ID    Z sym.   atoms
    1    6 C      1-8, 10-16, 18-36, 38-63
    2    7 N      9, 17, 37
    3    1 H      64-102

          program call               : xtb data2507/gas/BDPCC/BDPCC_gas_S0_finalOpt.xtbopt.xyz --gfn 2 --spinpol --tblite --uhf 2 --ohess vtight --parallel 40 --molden --ceasefiles --namespace data2507/gas/BDPCC/BDPCC_gas_T1_preOpt
 * total energy  :  -157.1505139 Eh     change        0.1510422E-06 Eh
 * total energy  :  -157.1538245 Eh     change       -0.3310600E-02 Eh
 * total energy  :  -157.1556328 Eh     change       -0.1808293E-02 Eh
 * total energy  :  -157.1560511 Eh     change       -0.4182383E-03 Eh
 * total energy  :  -157.1564214 Eh     change       -0.3703443E-03 Eh
 * total energy  :  -157.1565663 Eh     change       -0.1449232E-03 Eh
 * total energy  :  -157.1567091 Eh     change       -0.1428092E-03 Eh
 * total energy  :  -157.1568380 Eh     change       -0.1288343E-03 Eh
 * total energy  :  -157.1569750 Eh     change       -0.1370616E-03 Eh
 * total energy  :  -157.1571081 Eh     change       -0.1331149E-03 Eh
 * total energy  :  -157.1578822 Eh     change       -0.8770330E-06 Eh
 * total energy  :  -157.1578833 Eh     change       -0.1045846E-05 Eh
 * total energy  :  -157.1578840 Eh     change       -0.7401963E-06 Eh
 * total energy  :  -157.1578847 Eh     change       -0.6763261E-06 Eh
 * total energy  :  -157.1578853 Eh     change       -0.5656396E-06 Eh
 * total energy  :  -157.1578859 Eh     change       -0.6551707E-06 Eh
 * total energy  :  -157.1578865 Eh     change       -0.5662142E-06 Eh
 * total energy  :  -157.1578872 Eh     change       -0.6828245E-06 Eh
 * total energy  :  -157.1578872 Eh     change       -0.4818818E-07 Eh
   *** GEOMETRY OPTIMIZATION CONVERGED AFTER 94 ITERATIONS ***

 final structure:
================
102
 xtb: 6.7.1 (edcfbbe)
C           -7.23952597359368        2.28048445933147        0.86955746688772
C           -6.97175234336072        1.05200662904014        1.44926587963247
C           -5.67247983350535        0.69298983616199        1.75025721750401
C           -4.61459809555724        1.56063898723220        1.48514163014991
C           -3.22752200989650        1.17156087766457        1.76612519492545
C           -2.30835362779943        2.11095916265700        2.26803609171001
C           -0.97256580964945        1.80990915637642        2.43679605036041
C           -0.54560762809865        0.54422305010014        2.06504791716770
N            0.71695636251605        0.02284597202947        1.97569707989518
C            0.66084217519773       -1.22297207271223        1.41826278306994
C            1.71828959504867       -2.08175534018358        0.99403582770877
C            3.03821865952038       -1.66341164063010        0.65740136520596
C            4.11904484558604       -2.56371306031420        0.86771189704917
C            5.42217035937748       -2.23107332802128        0.65871246014991
C            5.72400493851488       -0.94821034571407        0.13916086494211
C            4.66606430176619       -0.04634988821386       -0.12586094057510
N            5.20219476767726        1.08633483995893       -0.69912591823122
C            6.55728790921994        0.94462998487730       -0.81372435462985
C            7.50018924052913        1.81549468452517       -1.32895842030627
C            8.82505046044494        1.41283258453178       -1.31238864637926
C            9.19960125701930        0.16835362343465       -0.79555093840812
C            8.26955389826226       -0.70756151719135       -0.28424867293201
C            6.92272506664674       -0.32781375613627       -0.28329699035277
C            3.32628951235311       -0.34990294352468        0.08834925616647
C            2.29371713188103        0.59947696467703       -0.29027703391873
C            2.42052141724504        1.94710132153221        0.08021476743325
C            1.40448678054126        2.88750311497821       -0.08164847696176
C            1.61580654464432        4.27296670709800        0.35966536427357
C            0.59205799370184        4.98785993712462        0.97976207590480
C            0.79198271874291        6.28986828726210        1.39729365461686
C            2.01668806552628        6.90597863641375        1.20063776451243
C            3.04098249352887        6.20854831171003        0.58284043007059
C            2.84322495729800        4.90511725532245        0.16824237022180
C            0.17402721675446        2.48979282784374       -0.60340798060480
C            0.01749430677246        1.17325935029002       -1.00699840339859
C            1.08454317537052        0.25048776270596       -0.92070569203509
N            0.68796870268694       -0.93443524974655       -1.48451399564451
C           -0.64633063179348       -0.86255916599399       -1.79370087542850
C           -1.51383085294723       -1.84274531232570       -2.24927296516396
C           -2.85305907276268       -1.52236222863614       -2.34511980542044
C           -3.34011839707439       -0.24554109143417       -2.02338873671236
C           -4.78329816867527        0.03080779153763       -2.04483368531026
C           -5.69216200428204       -0.90873264351506       -1.56316675755722
C           -7.04774222129540       -0.64172213706719       -1.55626277715588
C           -7.52155896485821        0.56851413884350       -2.03234677245052
C           -6.62864402003018        1.51151625329450       -2.51182403077093
C           -5.27275456408904        1.24700961570193       -2.51582653828947
C           -2.45394091520770        0.75129749631909       -1.63783557248084
C           -1.10917384317906        0.44359810081028       -1.51392131561360
C            1.30898111799996       -3.42660025552310        0.74651061464353
C           -0.01182978767081       -3.81963042675106        0.68433799971206
C           -0.34747166311375       -5.20491253104297        0.33460674529618
C            0.40334308679244       -6.26782904717294        0.83615605202635
C            0.08568560633281       -7.57231716984526        0.51027325777260
C           -0.98445584759600       -7.84099784975993       -0.32735823334107
C           -1.73742571973392       -6.79412761904317       -0.83324151969953
C           -1.42548153840354       -5.48911388573834       -0.50337918871543
C           -1.04661073469611       -2.88280544405063        0.90241869232112
C           -0.69159496644921       -1.59561006498066        1.28262346061108
C           -1.46713907585620       -0.43821940092132        1.62272603015650
C           -2.80743450227666       -0.12178766883806        1.48186767595830
C           -4.89813709997281        2.79546706380802        0.90410216033607
C           -6.19738600299628        3.14979531333839        0.59645122130242
H           -8.25520868953144        2.55875899120286        0.63106746290139
H           -7.78128510514880        0.37080295760213        1.66764361534423
H           -5.47269087800904       -0.26092707797609        2.21603420281248
H           -2.66564789170275        3.09596315409191        2.53028989779354
H           -0.27439678256378        2.54577672919361        2.80770713783998
H            1.56433365347107        0.53525927006896        2.15750212341177
H            3.89107745231748       -3.52750030665847        1.29701783167405
H            6.21888868861226       -2.92312790358052        0.88190795151164
H            4.66189782106971        1.84653554730121       -1.07601569433468
H            7.21282321638266        2.77578501315850       -1.73158337933294
H            9.58497387532148        2.07074929734807       -1.70643819909851
H           10.24470634161182       -0.10480458655518       -0.80214968986148
H            8.56540457728216       -1.66695815554624        0.11201362283123
H            3.30818096214892        2.24565999798001        0.62114780627665
H           -0.36140366168176        4.50996506873256        1.15039518877563
H           -0.01077711428959        6.82741288165054        1.88131676353137
H            2.17171703922005        7.92401823362413        1.52586089516156
H            3.99759045374546        6.68410451470785        0.42077538759948
H            3.64490450066958        4.37765268310948       -0.32896143966034
H           -0.63844729519611        3.19083904471336       -0.70468965606566
H            1.23409342046818       -1.77938380438883       -1.49197247265343
H           -1.15582272843031       -2.83327392193638       -2.48888229867135
H           -3.55212178282501       -2.27414246184067       -2.68172598841359
H           -5.32944415231757       -1.84924562969861       -1.17376049476331
H           -7.73862744805958       -1.38003571842591       -1.17514925488919
H           -8.58145342074734        0.77585075053286       -2.02936214183576
H           -6.99218351796842        2.45742791753656       -2.88671743787014
H           -4.58344576308782        1.98101684725260       -2.90711660808572
H           -2.81605077537382        1.73293819286832       -1.37402048461512
H            2.06560384981081       -4.13940643234141        0.45672026311020
H            1.22710943313157       -6.06646672400058        1.50544205437512
H            0.67266039565815       -8.38483580264804        0.91364398714079
H           -1.23146962763836       -8.86083320473662       -0.58279424637506
H           -2.57167266006036       -6.99739096905704       -1.48928295752579
H           -2.00977787723215       -4.67791952455056       -0.91280640681411
H           -2.08133187636979       -3.17303902863770        0.83533866006719
H           -3.50069023414704       -0.84774425756484        1.08651337053871
H           -4.08852970027450        3.47254145557184        0.67199658040216
H           -6.39893164094006        4.10736420971193        0.13826471241827

 projected vibrational frequencies (cm⁻¹)
eigval :       -0.00    -0.00    -0.00     0.00     0.00     0.00
eigval :        9.80    12.27    23.17    23.60    35.37    36.83
eigval :       39.08    43.08    46.32    52.35    57.03    57.90
eigval :       60.89    64.89    76.39    78.72    82.56    83.92
eigval :       96.72   103.93   112.49   130.36   133.66   140.87
eigval :      152.36   159.96   172.93   181.24   204.47   206.46
eigval :      224.10   236.63   239.72   244.87   247.06   255.53
eigval :      261.29   263.83   278.43   283.67   292.70   301.26
eigval :      313.70   318.29   338.90   349.11   364.83   371.49
eigval :      373.29   373.67   374.14   383.27   397.31   398.00
eigval :      404.40   405.48   421.29   424.99   457.31   462.52
eigval :      470.52   473.24   475.62   475.99   487.62   498.22
eigval :      503.29   509.40   515.90   517.84   530.22   533.57
eigval :      545.66   550.04   559.01   568.77   572.89   580.15
eigval :      580.73   585.32   585.95   588.60   594.99   598.48
eigval :      601.66   602.85   613.86   616.73   620.84   628.98
eigval :      634.13   642.82   664.16   666.32   670.84   671.40
eigval :      672.63   674.87   681.42   688.26   693.67   695.81
eigval :      703.94   721.09   723.98   736.11   750.16   753.58
eigval :      757.43   757.82   759.10   773.84   781.25   793.13
eigval :      818.10   820.39   823.01   831.34   832.65   843.21
eigval :      850.47   852.03   854.33   861.54   866.63   869.86
eigval :      874.08   875.86   877.38   878.50   879.96   883.48
eigval :      883.66   894.20   895.10   897.16   898.96   900.05
eigval :      902.32   903.26   906.64   908.21   910.64   927.50
eigval :      928.35   929.40   929.51   930.81   931.47   932.47
eigval :      933.52   941.97   967.77   979.88   983.02   987.88
eigval :     1008.56  1032.75  1046.60  1058.92  1066.75  1068.81
eigval :     1084.17  1085.21  1086.20  1087.07  1089.56  1091.91
eigval :     1112.60  1122.02  1122.36  1123.13  1123.91  1125.81
eigval :     1140.64  1150.93  1154.03  1162.17  1165.55  1177.42
eigval :     1178.94  1180.84  1182.36  1182.73  1184.65  1187.84
eigval :     1198.81  1200.51  1200.88  1202.43  1206.39  1215.71
eigval :     1219.44  1226.19  1228.11  1230.69  1240.89  1245.04
eigval :     1260.47  1275.57  1280.69  1281.43  1282.67  1282.92
eigval :     1285.84  1287.60  1292.58  1302.52  1307.56  1313.66
eigval :     1320.64  1321.15  1322.49  1323.26  1326.84  1338.53
eigval :     1351.17  1359.42  1362.12  1365.05  1371.02  1379.51
eigval :     1381.30  1388.05  1399.84  1411.39  1420.52  1427.39
eigval :     1430.21  1431.71  1432.13  1433.81  1436.86  1453.13
eigval :     1456.21  1460.91  1464.78  1467.08  1478.66  1487.50
eigval :     1490.72  1495.16  1497.48  1508.12  1514.45  1537.03
eigval :     1555.13  1557.89  1560.71  1573.92  1576.48  1576.64
eigval :     1580.53  1580.74  1582.11  1584.14  1594.46  1594.92
eigval :     1599.56  1601.23  1606.73  3065.83  3067.75  3068.75
eigval :     3070.05  3070.48  3070.71  3071.81  3072.45  3072.49
eigval :     3073.31  3073.71  3075.58  3077.03  3078.05  3078.87
eigval :     3079.59  3081.77  3082.34  3083.29  3084.63  3085.13
eigval :     3086.18  3086.43  3088.02  3088.57  3090.44  3092.12
eigval :     3092.65  3093.24  3094.42  3094.48  3095.65  3097.01
eigval :     3099.64  3104.87  3115.14  3467.51  3474.67  3478.62

   temp. (K)  partition function   enthalpy   heat capacity  entropy
                                   cal/mol     cal/K/mol   cal/K/mol   J/K/mol
 298.15  VIB  0.526E+22            29108.952    188.010    179.793
         ROT  0.134E+09              888.752      2.981     40.174
         INT  0.707E+30            29997.704    190.991    219.967
         TR   0.220E+29             1481.254      4.968     45.903
         TOT                       31478.9578   195.9591   265.8703  1112.4014

       T/K    H(0)-H(T)+PV         H(T)/Eh          T*S/Eh         G(T)/Eh
   ------------------------------------------------------------------------
    298.15    0.501649E-01    0.833488E+00    0.126324E+00    0.707165E+00
   ------------------------------------------------------------------------

         :::::::::::::::::::::::::::::::::::::::::::::::::::::
         ::                  THERMODYNAMIC                  ::
         :::::::::::::::::::::::::::::::::::::::::::::::::::::
         :: total free energy        -156.450722666159 Eh   ::
         ::.................................................::
         :: total energy             -157.157887212424 Eh   ::
         :: zero point energy           0.783323204141 Eh   ::
         :: G(RRHO) w/o ZPVE           -0.076158657876 Eh   ::
         :: G(RRHO) contrib.            0.707164546265 Eh   ::
         :::::::::::::::::::::::::::::::::::::::::::::::::::::

           -------------------------------------------------
          | TOTAL ENERGY             -157.157887212424 Eh   |
          | TOTAL ENTHALPY           -156.324399095824 Eh   |
          | TOTAL FREE ENERGY        -156.450722666159 Eh   |
          | GRADIENT NORM               0.000065525467 Eh/α |
           -------------------------------------------------

 * finished run on 2025/07/16 at 23:09:23.588
