   * xtb version 6.7.1 (edcfbbe) compiled by 'albert@albert-system' on 2024-07-22

   ID    Z sym.   atoms
    1    6 C      1-8, 10-16, 18-36, 38-63
    2    7 N      9, 17, 37
    3    1 H      64-102

          program call               : xtb data2507/gas/BDPCC/BDPCC_gas_T1_crest.xyz --gfn 2 --spinpol --tblite --uhf 2 --ohess vtight --parallel 40 --molden --ceasefiles --namespace data2507/gas/BDPCC/BDPCC_gas_T1_finalOpt
 * total energy  :  -157.1583500 Eh     change       -0.1420236E-07 Eh
 * total energy  :  -157.1583784 Eh     change       -0.2839928E-04 Eh
 * total energy  :  -157.1583972 Eh     change       -0.1881376E-04 Eh
 * total energy  :  -157.1584026 Eh     change       -0.5435353E-05 Eh
 * total energy  :  -157.1584082 Eh     change       -0.5550775E-05 Eh
 * total energy  :  -157.1584106 Eh     change       -0.2435105E-05 Eh
 * total energy  :  -157.1584128 Eh     change       -0.2222995E-05 Eh
 * total energy  :  -157.1584146 Eh     change       -0.1743078E-05 Eh
 * total energy  :  -157.1584164 Eh     change       -0.1834780E-05 Eh
 * total energy  :  -157.1584180 Eh     change       -0.1608345E-05 Eh
 * total energy  :  -157.1584214 Eh     change       -0.6918756E-06 Eh
 * total energy  :  -157.1584218 Eh     change       -0.4647175E-06 Eh
 * total energy  :  -157.1584222 Eh     change       -0.4070983E-06 Eh
 * total energy  :  -157.1584227 Eh     change       -0.4072147E-06 Eh
 * total energy  :  -157.1584231 Eh     change       -0.4901334E-06 Eh
 * total energy  :  -157.1584236 Eh     change       -0.4206278E-06 Eh
 * total energy  :  -157.1584240 Eh     change       -0.4702385E-06 Eh
 * total energy  :  -157.1584243 Eh     change       -0.3136740E-06 Eh
 * total energy  :  -157.1584244 Eh     change       -0.9815469E-07 Eh
   *** GEOMETRY OPTIMIZATION CONVERGED AFTER 22 ITERATIONS ***

 final structure:
================
102
 xtb: 6.7.1 (edcfbbe)
C           -7.05797292768363        3.00102674295269        1.52693108226023
C           -6.27815296483209        3.47887139953422        2.56736817281862
C           -4.96721372269458        3.06248827090156        2.70384589467464
C           -4.41328828201751        2.15370477252927        1.80381227538550
C           -3.02121645775254        1.70287614728981        1.93357421250330
C           -2.01145266779968        2.61062841964847        2.29642045702368
C           -0.68411109002136        2.23970796668721        2.36620391713187
C           -0.36446382797885        0.92700820174047        2.05662377633653
N            0.85406522619771        0.30909393691041        1.96149220154579
C            0.68481219582545       -0.97455465615715        1.52932695801962
C            1.66359333524698       -1.95484592507955        1.18892111853788
C            2.99856241861408       -1.65957034567726        0.78570212541199
C            4.04036427452369       -2.57633664662134        1.08210279967576
C            5.35484499201299       -2.30618101916638        0.84822489532365
C            5.70100125382476       -1.08495467874535        0.21680275915284
C            4.67847010972351       -0.18059697366937       -0.15154262967420
N            5.25677076480351        0.87095491627424       -0.82787488011871
C            6.60757561346242        0.67537189941313       -0.90888551610878
C            7.58445560843153        1.45973966690717       -1.49586082275544
C            8.89433759889942        1.01863493597405       -1.42123671302444
C            9.22162844738207       -0.17955840589194       -0.77787080639153
C            8.25764178512161       -0.96965166916874       -0.19486300528396
C            6.92463180874970       -0.54859450804969       -0.24964091302444
C            3.32695849300560       -0.42731949325941        0.06968545597416
C            2.30394518150028        0.46195827779553       -0.43984781584473
C            2.41337278073349        1.85129324842709       -0.26738743760743
C            1.37289955503979        2.73921207389042       -0.53060674261120
C            1.56016829470483        4.17462235764774       -0.28151823341759
C            2.77104280466812        4.79961785776402       -0.57591089600210
C            2.94722375933993        6.14981804547130       -0.33997897751779
C            1.91743623049575        6.90280530136160        0.19853343876773
C            0.70871142619774        6.29468086090297        0.49454362526002
C            0.52966575796250        4.94554193558975        0.25527709211849
C            0.13902695988888        2.25318051322909       -0.96961529952051
C            0.00520512975622        0.89352872283526       -1.20160081079804
C            1.09135007328550        0.01166758368320       -1.00240155898612
N            0.72866904797106       -1.23825713415939       -1.42752149601781
C           -0.59977466835275       -1.23323804405955       -1.76646367783234
C           -1.42698627623003       -2.27581664449150       -2.15297348737147
C           -2.76430531002126       -1.99642322504004       -2.34804916569652
C           -3.28499671944388       -0.70241153622278       -2.19219530516767
C           -4.72711250533883       -0.45977708140943       -2.34705435659742
C           -5.65802735845749       -1.34791578819300       -1.81157320396010
C           -7.01367766547458       -1.10396953784243       -1.92652612031436
C           -7.46425151336711        0.02930702555850       -2.58271176807090
C           -6.54886614295685        0.91856737030398       -3.12124489577266
C           -5.19304388892373        0.67841070096395       -3.00246549262301
C           -2.43854949495711        0.34750833941610       -1.86014758189990
C           -1.09645624343885        0.08446704582619       -1.64030631011654
C            1.15398974037693       -3.28131228232454        1.10161554210717
C           -0.19547957622956       -3.57511123838291        1.10288774082635
C           -0.64332673936480       -4.95909167424938        0.90930073251141
C            0.04259935048398       -6.02023724462179        1.49983207491102
C           -0.38069581823193       -7.32286809516549        1.31838261825951
C           -1.49380168182492       -7.59232856079421        0.53906741879427
C           -2.18366002039985       -6.54730325460989       -0.05336285257012
C           -1.76641449638823       -5.24329134768730        0.13235479481984
C           -1.15144855350127       -2.54438051577692        1.23729763741973
C           -0.69562080998424       -1.25561895400374        1.47358818513689
C           -1.37183600881215       -0.01792590662693        1.74082851288206
C           -2.69690278481603        0.37610256577803        1.67443713148857
C           -5.21011843933309        1.67713343168222        0.76302342702659
C           -6.51857723491867        2.09898800603791        0.62474444185636
H           -8.08127292040568        3.33004293819158        1.42090485683204
H           -6.69559950030114        4.17817420056421        3.27765340822213
H           -4.37221707610128        3.42556205979710        3.52945794999735
H           -2.28240439778614        3.63766758070923        2.49243433931111
H            0.08396426290748        2.95511586747207        2.62083497084409
H            1.74302414812629        0.76794863350680        2.07226116860045
H            3.77686054948974       -3.48749373339771        1.59779438798283
H            6.12854713187818       -2.99984849915715        1.13732216682134
H            4.74697436639195        1.60527560601716       -1.28883841440306
H            7.33312970245475        2.38359478382552       -1.99606722918674
H            9.68002707542155        1.60888309105141       -1.86833473081441
H           10.25707114097061       -0.48538226401445       -0.74272313143425
H            8.51741859137855       -1.89358518302308        0.29899193636718
H            3.30391325360957        2.23845682152146        0.20866589911300
H            3.57570463868138        4.22698393380659       -1.01497151163707
H            3.89091375683151        6.61821134348736       -0.58006529807762
H            2.05571199872061        7.95758887120911        0.38444980247577
H           -0.09869160972392        6.87601737021405        0.91611422434390
H           -0.41087026691256        4.47630755385154        0.50314206167327
H           -0.68810294670653        2.92141023893575       -1.14582959425553
H            1.29794225326152       -2.06341271101635       -1.34422844385500
H           -1.04042654046822       -3.27724313415726       -2.27261211074358
H           -3.43318725028291       -2.79263433053641       -2.64130414383295
H           -5.31370851066059       -2.22447677524502       -1.28156183933139
H           -7.72259916055423       -1.79820923062154       -1.49868268283733
H           -8.52395850189098        0.21901010519600       -2.67309294124953
H           -6.89417789735642        1.80355484254307       -3.63623232277274
H           -4.48435627984178        1.36916402507425       -3.43573243143115
H           -2.82589837397444        1.34631909248691       -1.72532082432258
H            1.85055222888406       -4.07699178878204        0.88490626350432
H            0.89979741016596       -5.81645650341965        2.12494338392749
H            0.15734679615849       -8.13290919295435        1.78932935589106
H           -1.82307766291045       -8.61091345713029        0.39620822513230
H           -3.05137942290086       -6.75156175879655       -0.66414512384216
H           -2.30113450786607       -4.43499059290287       -0.34439905441846
H           -2.20599124105638       -2.76228028303085        1.22399940863429
H           -3.46644623601422       -0.33706247608306        1.42184392355624
H           -4.79539155962268        0.98561708019155        0.04485805299356
H           -7.11530936458168        1.72178950164447       -0.19314005414020

 projected vibrational frequencies (cm⁻¹)
eigval :       -0.00    -0.00     0.00     0.00     0.00     0.00
eigval :       12.43    17.43    23.24    25.09    32.14    38.73
eigval :       41.68    42.64    46.27    47.83    51.15    57.87
eigval :       60.54    65.66    67.96    75.60    80.94    84.92
eigval :       96.78   101.23   113.89   128.79   136.48   140.63
eigval :      152.33   154.51   172.03   179.86   203.16   205.90
eigval :      226.77   235.12   238.69   243.86   251.46   255.94
eigval :      260.81   264.77   278.05   280.43   291.82   298.50
eigval :      317.22   320.17   337.14   352.04   359.51   371.82
eigval :      373.75   374.52   374.80   382.23   396.83   399.60
eigval :      403.54   406.09   421.44   426.40   455.09   460.58
eigval :      469.41   473.57   475.37   481.61   488.88   497.49
eigval :      501.02   510.75   515.79   518.43   529.46   534.07
eigval :      544.47   550.18   558.57   570.20   572.88   580.30
eigval :      581.29   585.37   587.13   587.52   594.52   597.64
eigval :      600.21   602.52   613.62   618.30   620.79   629.51
eigval :      634.26   643.06   664.89   666.17   671.14   671.77
eigval :      674.46   675.86   680.08   688.12   693.56   697.34
eigval :      703.42   721.45   724.38   736.20   753.10   757.70
eigval :      758.19   758.45   759.58   778.53   781.90   791.39
eigval :      820.48   821.24   823.08   830.70   834.93   844.16
eigval :      850.61   853.29   855.52   861.98   869.36   872.21
eigval :      874.73   875.68   878.54   880.46   882.32   883.73
eigval :      884.79   891.28   892.93   898.60   900.82   902.77
eigval :      903.68   904.42   908.70   910.85   911.43   929.62
eigval :      930.11   930.64   930.79   932.36   933.59   934.61
eigval :      936.92   942.12   967.44   980.29   982.74   987.81
eigval :     1008.61  1032.93  1049.20  1059.70  1067.18  1068.99
eigval :     1084.08  1085.36  1085.82  1086.51  1089.02  1091.05
eigval :     1112.60  1121.79  1122.27  1123.09  1124.27  1124.78
eigval :     1142.25  1151.19  1153.18  1162.27  1166.24  1177.16
eigval :     1177.98  1181.94  1182.20  1182.45  1182.70  1187.49
eigval :     1198.55  1200.97  1201.38  1201.94  1206.10  1215.95
eigval :     1220.20  1227.60  1228.61  1232.08  1244.30  1247.20
eigval :     1261.57  1275.21  1280.06  1281.76  1282.11  1282.76
eigval :     1286.04  1286.62  1292.40  1304.31  1307.97  1315.35
eigval :     1319.10  1319.18  1321.17  1321.55  1328.20  1341.52
eigval :     1353.34  1360.27  1363.46  1364.70  1372.66  1380.92
eigval :     1383.28  1390.48  1400.55  1412.33  1419.79  1427.86
eigval :     1429.18  1430.76  1432.22  1433.61  1436.57  1453.99
eigval :     1456.27  1459.19  1464.07  1466.62  1479.74  1486.34
eigval :     1489.04  1493.48  1498.24  1507.22  1515.38  1532.85
eigval :     1552.16  1559.27  1565.58  1573.96  1576.49  1577.96
eigval :     1579.72  1581.04  1582.14  1583.10  1593.82  1594.85
eigval :     1598.68  1600.05  1605.52  3064.86  3068.39  3068.88
eigval :     3069.13  3070.29  3070.60  3072.05  3072.45  3072.85
eigval :     3074.14  3074.43  3075.68  3076.53  3078.38  3078.39
eigval :     3081.09  3081.20  3081.95  3082.57  3085.88  3086.52
eigval :     3086.78  3087.12  3087.60  3088.04  3088.91  3090.46
eigval :     3091.50  3092.26  3092.42  3093.13  3094.52  3096.90
eigval :     3098.80  3105.55  3114.26  3471.96  3476.80  3480.40

   temp. (K)  partition function   enthalpy   heat capacity  entropy
                                   cal/mol     cal/K/mol   cal/K/mol   J/K/mol
 298.15  VIB  0.392E+22            29121.986    187.688    179.534
         ROT  0.136E+09              888.752      2.981     40.204
         INT  0.534E+30            30010.738    190.668    219.737
         TR   0.220E+29             1481.254      4.968     45.903
         TOT                       31491.9921   195.6366   265.6402  1111.4384

       T/K    H(0)-H(T)+PV         H(T)/Eh          T*S/Eh         G(T)/Eh
   ------------------------------------------------------------------------
    298.15    0.501857E-01    0.833633E+00    0.126214E+00    0.707418E+00
   ------------------------------------------------------------------------

         :::::::::::::::::::::::::::::::::::::::::::::::::::::
         ::                  THERMODYNAMIC                  ::
         :::::::::::::::::::::::::::::::::::::::::::::::::::::
         :: total free energy        -156.451006134103 Eh   ::
         ::.................................................::
         :: total energy             -157.158424447229 Eh   ::
         :: zero point energy           0.783446840289 Eh   ::
         :: G(RRHO) w/o ZPVE           -0.076028527163 Eh   ::
         :: G(RRHO) contrib.            0.707418313126 Eh   ::
         :::::::::::::::::::::::::::::::::::::::::::::::::::::

           -------------------------------------------------
          | TOTAL ENERGY             -157.158424447229 Eh   |
          | TOTAL ENTHALPY           -156.324791923078 Eh   |
          | TOTAL FREE ENERGY        -156.451006134103 Eh   |
          | GRADIENT NORM               0.000064716563 Eh/α |
           -------------------------------------------------

 * finished run on 2025/07/16 at 23:17:36.859
