   * xtb version 6.7.1 (edcfbbe) compiled by 'albert@albert-system' on 2024-07-22

   ID    Z sym.   atoms
    1    6 C      1-8, 10-16, 18-36, 38-63
    2    7 N      9, 17, 37
    3    1 H      64-102

          program call               : xtb data2507/gas/BDPCC/BDPCC.xyz --gfn 2 --ohess vtight --parallel 40 --molden --ceasefiles --namespace data2507/gas/BDPCC/BDPCC_gas_S0_preOpt
          :  Hamiltonian                  GFN2-xTB          :
 * total energy  :  -157.2105046 Eh     change       -0.7073027E-08 Eh
 * total energy  :  -157.2277641 Eh     change       -0.1725955E-01 Eh
 * total energy  :  -157.2317036 Eh     change       -0.3939461E-02 Eh
 * total energy  :  -157.2328418 Eh     change       -0.1138280E-02 Eh
 * total energy  :  -157.2336961 Eh     change       -0.8542701E-03 Eh
 * total energy  :  -157.2341947 Eh     change       -0.4986270E-03 Eh
 * total energy  :  -157.2347514 Eh     change       -0.5566759E-03 Eh
 * total energy  :  -157.2354049 Eh     change       -0.6534323E-03 Eh
 * total energy  :  -157.2360231 Eh     change       -0.6182904E-03 Eh
 * total energy  :  -157.2365231 Eh     change       -0.4999505E-03 Eh
 * total energy  :  -157.2430884 Eh     change       -0.2737592E-06 Eh
 * total energy  :  -157.2430887 Eh     change       -0.3379705E-06 Eh
 * total energy  :  -157.2430890 Eh     change       -0.2790991E-06 Eh
 * total energy  :  -157.2430893 Eh     change       -0.2888568E-06 Eh
 * total energy  :  -157.2430895 Eh     change       -0.2472443E-06 Eh
 * total energy  :  -157.2430897 Eh     change       -0.1949047E-06 Eh
 * total energy  :  -157.2430899 Eh     change       -0.1982087E-06 Eh
 * total energy  :  -157.2430901 Eh     change       -0.1866412E-06 Eh
 * total energy  :  -157.2430901 Eh     change       -0.2442988E-08 Eh
   *** GEOMETRY OPTIMIZATION CONVERGED AFTER 94 ITERATIONS ***

 final structure:
================
102
 xtb: 6.7.1 (edcfbbe)
C           -8.41097315813181        2.61212474439024        0.62358842462941
C           -8.62089677964534        1.37139334354866        0.04560211930779
C           -7.54799498405471        0.55170689021455       -0.25103597993823
C           -6.24468449298698        0.96072092697504        0.02155374757292
C           -5.10019637579864        0.09398317241649       -0.29843371146488
C           -5.16680741159700       -1.27905353967491       -0.02625663629671
C           -4.11586692084043       -2.12940116093324       -0.30220379680674
C           -2.97247804172072       -1.58539774184661       -0.86788855103035
N           -1.79767410755977       -2.19132810833847       -1.22793207790428
C           -0.95433160166647       -1.25232553727340       -1.76193356738739
C            0.34115635731595       -1.41672436602552       -2.24777464921045
C            1.03612278244046       -2.69882578385424       -1.99188847869810
C            1.35353731505113       -3.60842568612819       -3.00036154766106
C            1.93507172429645       -4.82724613436048       -2.70781135714197
C            2.19310797633156       -5.14430086929471       -1.38001422276491
C            1.87962779986048       -4.21506755107387       -0.35881385700257
N            2.23935158601189       -4.74134114302656        0.85475863467634
C            2.77509564376189       -5.98980813650139        0.66228242268696
C            3.26905345684689       -6.89292067596510        1.59072692229323
C            3.75665878862133       -8.09674113317789        1.11948286492246
C            3.75378576650436       -8.39864562960691       -0.24105244121111
C            3.26225501122711       -7.50329535600174       -1.16987836551396
C            2.76682124633757       -6.28549876693297       -0.72173095476464
C            1.31143927211264       -2.98169507746914       -0.64821871073535
C            1.03024679214006       -1.94612713274838        0.37019844963963
C            0.05319464990173       -2.07294819005271        1.34364921829919
C           -0.28418395560312       -1.01673122692702        2.20011535222551
C           -1.33883038068547       -1.19681417473164        3.21053312874452
C           -1.15790710920997       -0.73196925460837        4.51103009755982
C           -2.15050254829261       -0.89118735465584        5.45987374811364
C           -3.34326325077219       -1.50939520640643        5.12330892043170
C           -3.53521853254365       -1.97034007994990        3.83185530222858
C           -2.53971160921683       -1.82055893383165        2.88472019143103
C            0.35315486921150        0.21140850644146        2.07961802756608
C            1.35030073737431        0.36473582722562        1.12817824129898
C            1.70155159317248       -0.72579978981576        0.30318168120087
N            2.73401634893961       -0.35570090799471       -0.51630579162442
C            3.03323138763565        0.96236919298722       -0.29649540773438
C            3.97488881960616        1.77265376945735       -0.91027680491323
C            4.07541800784840        3.08013505317935       -0.48529412186912
C            3.26347660608253        3.59538501284701        0.53539041843387
C            3.42454717121585        4.99240648193771        0.96577138001249
C            3.70851064446695        5.99948118421691        0.04506792920481
C            3.85873072880832        7.31105223870227        0.45452118272883
C            3.73462499989574        7.64308473188963        1.79313011777727
C            3.46003585540167        6.65122088530243        2.71941633028372
C            3.30569943331760        5.33995381705932        2.31043152040243
C            2.31764588634523        2.77674300517372        1.14179207219456
C            2.19669712580472        1.45847360756117        0.73033788069888
C            0.95606333123045       -0.30019859502996       -2.78546355778404
C            0.36064539000906        0.96782708357812       -2.74768511551151
C            1.13170778914601        2.14281415627212       -3.17835566349945
C            1.94818330523486        2.10635797865279       -4.30573073487371
C            2.68622645653349        3.21460119723468       -4.67721074351533
C            2.61884474767381        4.37939322019834       -3.93145802161727
C            1.80891990838615        4.42769381978825       -2.80946594064354
C            1.07740321056581        3.31840866352639       -2.43261249278418
C           -0.91568014349517        1.12190454590415       -2.22160466334571
C           -1.59279735039535        0.00588236170390       -1.75387647926579
C           -2.88851448654363       -0.20477339084976       -1.16597105779416
C           -3.95499737806864        0.63078192535028       -0.87340115938402
C           -6.04575128778978        2.21158016572241        0.60141817832597
C           -7.11975347389242        3.02844330897469        0.90122847559545
H           -9.24981210527199        3.25156588937574        0.85632781626676
H           -9.62587558608977        1.04275199789193       -0.17758440801347
H           -7.71781263331282       -0.40771950171020       -0.71836066619799
H           -6.06034246722554       -1.67565828219024        0.43280136013903
H           -4.18240252679578       -3.18586679992576       -0.08366225210754
H           -1.58053104255236       -3.16777100183055       -1.12591167720781
H            1.12540867983306       -3.34667701259116       -4.02323421183407
H            2.17921393741822       -5.52440102980480       -3.49469719373536
H            2.12818081989490       -4.27666947654860        1.73958689852751
H            3.27214962857692       -6.66126654861969        2.64562385867768
H            4.14861242049289       -8.81983155275365        1.81937551045469
H            4.14375392551642       -9.35060164492930       -0.56922228595366
H            3.26121235842552       -7.74103913594786       -2.22302425520168
H           -0.47615970858000       -3.01121034897011        1.44031649362807
H           -0.22492842148840       -0.25719753422772        4.77996151353309
H           -1.99401353378381       -0.53124618769697        6.46669628558186
H           -4.12030996086715       -1.62868090265153        5.86394435778992
H           -4.46688262519345       -2.44445775073051        3.55895736533251
H           -2.70480958733253       -2.16069883074125        1.87364617566264
H            0.05704218782332        1.04013885916806        2.70456909612518
H            3.15578148076012       -0.94571193377373       -1.21224107712854
H            4.60984207784054        1.39312357803486       -1.69697330085928
H            4.81711834843528        3.72142133400404       -0.93686240452678
H            3.79679875029276        5.75267696598699       -1.00256748891004
H            4.07284309452220        8.07973270144958       -0.27439732357451
H            3.85385645335419        8.66790927626022        2.11267693710806
H            3.36963450852846        6.90099020090595        3.76693742819195
H            3.11235330840743        4.57071557513749        3.04394996950002
H            1.66656738916497        3.16709779518717        1.90961510504505
H            1.95528678097641       -0.39366334925967       -3.18667872411988
H            1.98903218695518        1.20892098646718       -4.90666295587608
H            3.31347234544168        3.17201932638397       -5.55635908262151
H            3.19389893149040        5.24534403407866       -4.22606486333088
H            1.74533027021791        5.33213162018796       -2.22218370708948
H            0.47431583581469        3.35361288335476       -1.53752498471356
H           -1.38005607494795        2.09544501772793       -2.19040765573704
H           -3.90461649192457        1.68292954424023       -1.11008179820337
H           -5.04136373304190        2.53377670829397        0.83549618126788
H           -6.94982636405553        3.99393134752212        1.35589164541130

          :  Hamiltonian                  GFN2-xTB          :
         :: gradient norm              0.000034825423 Eh/a0 ::
         :: HOMO-LUMO gap              2.785433519799 eV    ::
         :: SCC energy              -160.277390131423 Eh    ::
         :: -> dispersion             -0.160497299905 Eh    ::
         :: repulsion energy           3.034300008126 Eh    ::

    * Orbital Energies and Occupations

         #    Occupation            Energy/Eh            Energy/eV
      -------------------------------------------------------------
         1        2.0000           -0.6811412             -18.5348
       ...           ...                  ...                  ...
       135        2.0000           -0.3984289             -10.8418
       136        2.0000           -0.3978063             -10.8249
       137        2.0000           -0.3975670             -10.8183
       138        2.0000           -0.3971603             -10.8073
       139        2.0000           -0.3956822             -10.7671
       140        2.0000           -0.3875665             -10.5462
       141        2.0000           -0.3863461             -10.5130
       142        2.0000           -0.3791294             -10.3166
       143        2.0000           -0.3748244             -10.1995
       144        2.0000           -0.3734194             -10.1613
       145        2.0000           -0.3700833             -10.0705
       146        2.0000           -0.3581543              -9.7459
       147        2.0000           -0.3560252              -9.6879 (HOMO)
       148                         -0.2536624              -6.9025 (LUMO)
       149                         -0.2430665              -6.6142
       150                         -0.2422631              -6.5923
       151                         -0.2402930              -6.5387
       152                         -0.2380663              -6.4781
       153                         -0.2297696              -6.2523
       154                         -0.2275104              -6.1909
       155                         -0.2254504              -6.1348
       156                         -0.2183553              -5.9418
       157                         -0.2163825              -5.8881
       158                         -0.2158561              -5.8737
       ...                                ...                  ...
       291                          0.7524137              20.4742
      -------------------------------------------------------------
                  HL-Gap            0.1023628 Eh            2.7854 eV

     #   Z          covCN         q      C6AA      α(0)
     1   6 C        2.920    -0.033    28.813     8.802
     2   6 C        2.918    -0.030    28.761     8.794
     3   6 C        2.925    -0.035    28.874     8.812
     4   6 C        2.978     0.011    27.761     8.643
     5   6 C        2.977    -0.002    28.059     8.689
     6   6 C        2.929    -0.036    28.904     8.817
     7   6 C        2.908    -0.054    29.345     8.883
     8   6 C        3.077     0.055    26.690     8.470
     9   7 N        2.755    -0.119    23.591     7.214
    10   6 C        3.089     0.050    26.787     8.484
    11   6 C        2.970    -0.016    28.404     8.742
    12   6 C        2.986    -0.006    28.156     8.704
    13   6 C        2.919    -0.050    29.241     8.868
    14   6 C        2.911    -0.038    28.940     8.821
    15   6 C        3.068    -0.021    28.450     8.746
    16   6 C        3.075     0.048    26.855     8.497
    17   7 N        2.753    -0.122    23.660     7.224
    18   6 C        3.075     0.055    26.689     8.470
    19   6 C        2.909    -0.055    29.359     8.885
    20   6 C        2.924    -0.032    28.801     8.801
    21   6 C        2.920    -0.041    29.028     8.835
    22   6 C        2.912    -0.033    28.821     8.803
    23   6 C        3.073    -0.017    28.354     8.731
    24   6 C        2.977    -0.027    28.674     8.784
    25   6 C        2.966    -0.019    28.470     8.752
    26   6 C        2.931    -0.047    29.177     8.858
    27   6 C        2.976    -0.004    28.124     8.699
    28   6 C        2.978     0.010    27.785     8.646
    29   6 C        2.925    -0.035    28.883     8.813
    30   6 C        2.919    -0.030    28.759     8.794
    31   6 C        2.920    -0.032    28.801     8.801
    32   6 C        2.919    -0.030    28.738     8.791
    33   6 C        2.925    -0.036    28.889     8.814
    34   6 C        2.919    -0.040    28.985     8.829
    35   6 C        3.068    -0.017    28.366     8.733
    36   6 C        3.087     0.049    26.814     8.488
    37   7 N        2.757    -0.119    23.581     7.212
    38   6 C        3.079     0.055    26.674     8.467
    39   6 C        2.908    -0.053    29.325     8.880
    40   6 C        2.930    -0.035    28.880     8.813
    41   6 C        2.976    -0.001    28.051     8.688
    42   6 C        2.976     0.011    27.762     8.643
    43   6 C        2.925    -0.036    28.891     8.815
    44   6 C        2.918    -0.031    28.762     8.795
    45   6 C        2.920    -0.033    28.816     8.803
    46   6 C        2.918    -0.030    28.759     8.794
    47   6 C        2.926    -0.035    28.875     8.812
    48   6 C        2.918    -0.037    28.918     8.818
    49   6 C        3.072    -0.017    28.351     8.730
    50   6 C        2.932    -0.043    29.074     8.843
    51   6 C        2.977    -0.003    28.097     8.695
    52   6 C        2.978     0.011    27.768     8.644
    53   6 C        2.925    -0.036    28.889     8.814
    54   6 C        2.919    -0.031    28.777     8.797
    55   6 C        2.920    -0.032    28.807     8.802
    56   6 C        2.919    -0.029    28.724     8.789
    57   6 C        2.927    -0.033    28.822     8.804
    58   6 C        2.918    -0.039    28.981     8.828
    59   6 C        3.067    -0.017    28.371     8.734
    60   6 C        3.073    -0.016    28.335     8.728
    61   6 C        2.918    -0.036    28.906     8.817
    62   6 C        2.925    -0.035    28.860     8.810
    63   6 C        2.918    -0.030    28.751     8.793
    64   1 H        0.926     0.027     2.630     2.536
    65   1 H        0.926     0.027     2.629     2.536
    66   1 H        0.926     0.029     2.603     2.523
    67   1 H        0.926     0.032     2.559     2.502
    68   1 H        0.926     0.023     2.685     2.562
    69   1 H        0.860     0.158     1.348     1.819
    70   1 H        0.926     0.029     2.600     2.522
    71   1 H        0.926     0.032     2.564     2.504
    72   1 H        0.860     0.160     1.338     1.812
    73   1 H        0.926     0.025     2.658     2.550
    74   1 H        0.926     0.030     2.584     2.514
    75   1 H        0.926     0.029     2.606     2.525
    76   1 H        0.926     0.031     2.573     2.508
    77   1 H        0.925     0.023     2.692     2.566
    78   1 H        0.926     0.029     2.606     2.524
    79   1 H        0.926     0.028     2.619     2.531
    80   1 H        0.926     0.028     2.619     2.531
    81   1 H        0.926     0.027     2.622     2.532
    82   1 H        0.926     0.030     2.592     2.518
    83   1 H        0.926     0.033     2.538     2.491
    84   1 H        0.860     0.161     1.328     1.805
    85   1 H        0.926     0.024     2.670     2.555
    86   1 H        0.926     0.033     2.546     2.495
    87   1 H        0.926     0.032     2.557     2.500
    88   1 H        0.926     0.027     2.634     2.538
    89   1 H        0.926     0.027     2.633     2.537
    90   1 H        0.926     0.027     2.630     2.536
    91   1 H        0.926     0.029     2.597     2.520
    92   1 H        0.926     0.034     2.532     2.488
    93   1 H        0.926     0.025     2.655     2.548
    94   1 H        0.926     0.028     2.622     2.532
    95   1 H        0.926     0.026     2.637     2.539
    96   1 H        0.926     0.026     2.644     2.543
    97   1 H        0.926     0.030     2.589     2.516
    98   1 H        0.926     0.029     2.595     2.519
    99   1 H        0.926     0.034     2.531     2.488
   100   1 H        0.926     0.034     2.535     2.490
   101   1 H        0.926     0.030     2.587     2.515
   102   1 H        0.926     0.027     2.623     2.533

molecular dipole:
                 x           y           z       tot (Debye)
 q only:        0.388      -0.699       0.095
   full:        0.486      -0.919       0.166       2.677

 projected vibrational frequencies (cm⁻¹)
eigval :       -0.00    -0.00    -0.00     0.00     0.00     0.00
eigval :       -5.65    12.11    15.05    18.22    26.61    31.17
eigval :       35.97    39.44    40.76    43.71    44.37    55.94
eigval :       57.86    63.76    70.66    72.18    82.77    84.47
eigval :       88.44    94.17   116.54   119.03   130.88   139.01
eigval :      146.76   152.76   168.51   177.33   204.83   208.14
eigval :      224.92   239.87   248.58   251.77   254.45   258.58
eigval :      259.48   270.72   271.94   277.74   298.55   309.89
eigval :      314.00   329.01   338.18   365.34   369.42   372.26
eigval :      373.32   374.35   379.13   385.19   389.78   406.82
eigval :      412.16   419.86   424.04   425.86   453.73   458.83
eigval :      462.82   468.54   472.35   480.63   484.97   489.76
eigval :      496.96   508.87   509.68   518.59   538.71   541.38
eigval :      543.43   563.56   565.34   574.07   577.45   583.10
eigval :      584.67   586.52   589.39   591.48   600.27   604.16
eigval :      610.87   612.13   622.87   623.74   632.07   635.41
eigval :      648.28   651.33   668.30   670.64   673.63   674.44
eigval :      680.94   689.99   695.77   698.75   709.56   711.21
eigval :      713.19   724.61   730.22   747.89   757.41   758.06
eigval :      760.19   762.93   773.25   792.97   817.87   823.32
eigval :      828.01   832.41   846.03   852.00   855.76   858.06
eigval :      866.73   866.81   869.91   872.75   874.25   875.13
eigval :      877.67   880.58   881.57   883.86   885.73   890.62
eigval :      898.73   899.81   901.09   901.18   901.39   902.74
eigval :      905.12   906.00   907.12   909.70   921.58   928.91
eigval :      929.13   930.45   930.58   931.51   931.78   931.88
eigval :      941.86   948.80   973.12   983.35   984.14   988.34
eigval :     1016.47  1048.90  1066.93  1068.89  1071.73  1082.40
eigval :     1083.71  1085.34  1087.03  1088.29  1090.37  1093.51
eigval :     1121.62  1121.91  1122.58  1123.81  1135.72  1144.69
eigval :     1151.32  1156.39  1159.25  1169.38  1174.40  1179.39
eigval :     1182.04  1182.48  1182.83  1183.91  1189.51  1199.99
eigval :     1201.17  1202.49  1204.16  1211.58  1219.90  1220.63
eigval :     1229.81  1230.65  1230.97  1246.28  1259.83  1272.77
eigval :     1279.13  1281.97  1282.22  1283.36  1283.81  1289.50
eigval :     1291.36  1307.04  1314.75  1318.04  1318.23  1319.78
eigval :     1320.37  1321.31  1323.05  1335.45  1339.05  1347.69
eigval :     1354.69  1365.53  1369.95  1378.13  1378.36  1396.64
eigval :     1408.81  1412.44  1425.85  1426.60  1430.79  1431.25
eigval :     1432.34  1434.59  1435.24  1465.93  1467.57  1467.70
eigval :     1475.14  1486.62  1492.27  1496.40  1497.18  1499.43
eigval :     1504.26  1566.06  1573.43  1573.63  1577.99  1580.27
eigval :     1582.56  1583.21  1584.59  1585.78  1590.61  1593.79
eigval :     1594.06  1598.68  1599.43  1602.60  1603.47  1604.71
eigval :     1616.62  1617.06  1617.73  3065.86  3066.53  3067.41
eigval :     3068.41  3068.46  3068.54  3070.15  3070.65  3071.46
eigval :     3073.30  3074.22  3075.39  3077.37  3078.65  3078.70
eigval :     3079.67  3079.91  3080.75  3080.97  3082.28  3084.03
eigval :     3085.46  3087.38  3087.66  3087.76  3088.68  3089.05
eigval :     3090.43  3091.16  3091.57  3092.05  3094.07  3094.94
eigval :     3095.39  3096.56  3098.72  3486.53  3487.19  3489.87

   temp. (K)  partition function   enthalpy   heat capacity  entropy
                                   cal/mol     cal/K/mol   cal/K/mol   J/K/mol
 298.15  VIB  0.688E+23            29043.822    185.067    180.920
         ROT  0.154E+09              888.752      2.981     40.448
         INT  0.106E+32            29932.574    188.048    221.368
         TR   0.220E+29             1481.254      4.968     45.903
         TOT                       31413.8282   193.0157   267.2713  1118.2632

       T/K    H(0)-H(T)+PV         H(T)/Eh          T*S/Eh         G(T)/Eh
   ------------------------------------------------------------------------
    298.15    0.500611E-01    0.837915E+00    0.126989E+00    0.710926E+00
   ------------------------------------------------------------------------

         :::::::::::::::::::::::::::::::::::::::::::::::::::::
         ::                  THERMODYNAMIC                  ::
         :::::::::::::::::::::::::::::::::::::::::::::::::::::
         :: total free energy        -156.532164202939 Eh   ::
         ::.................................................::
         :: total energy             -157.243090123297 Eh   ::
         :: zero point energy           0.787854024019 Eh   ::
         :: G(RRHO) w/o ZPVE           -0.076928103661 Eh   ::
         :: G(RRHO) contrib.            0.710925920358 Eh   ::
         :::::::::::::::::::::::::::::::::::::::::::::::::::::

           -------------------------------------------------
          | TOTAL ENERGY             -157.243090123297 Eh   |
          | TOTAL ENTHALPY           -156.405174977500 Eh   |
          | TOTAL FREE ENERGY        -156.532164202939 Eh   |
          | GRADIENT NORM               0.000034821868 Eh/α |
          | HOMO-LUMO GAP               2.785433602955 eV   |
           -------------------------------------------------

 * finished run on 2025/07/16 at 23:00:56.934
