   * xtb version 6.7.1 (edcfbbe) compiled by 'albert@albert-system' on 2024-07-22

   ID    Z sym.   atoms
    1    6 C      1-8, 10-16, 18-36, 38-63
    2    7 N      9, 17, 37
    3    1 H      64-102

          program call               : xtb data2507/gas/BDPCC/BDPCC_gas_S0_crest.xyz --gfn 2 --ohess vtight --parallel 40 --molden --ceasefiles --namespace data2507/gas/BDPCC/BDPCC_gas_S0_finalOpt
          :  Hamiltonian                  GFN2-xTB          :
 * total energy  :  -157.2503598 Eh     change       -0.6250701E-08 Eh
 * total energy  :  -157.2503609 Eh     change       -0.1033097E-05 Eh
 * total energy  :  -157.2503621 Eh     change       -0.1220372E-05 Eh
 * total energy  :  -157.2503640 Eh     change       -0.1892732E-05 Eh
 * total energy  :  -157.2503647 Eh     change       -0.7014141E-06 Eh
 * total energy  :  -157.2503657 Eh     change       -0.1059012E-05 Eh
 * total energy  :  -157.2503679 Eh     change       -0.2160105E-05 Eh
 * total energy  :  -157.2503697 Eh     change       -0.1774357E-05 Eh
 * total energy  :  -157.2503704 Eh     change       -0.7637908E-06 Eh
 * total energy  :  -157.2503707 Eh     change       -0.2402515E-06 Eh
 * total energy  :  -157.2503733 Eh     change       -0.6984631E-06 Eh
 * total energy  :  -157.2503741 Eh     change       -0.8066301E-06 Eh
 * total energy  :  -157.2503750 Eh     change       -0.9088035E-06 Eh
 * total energy  :  -157.2503758 Eh     change       -0.8156035E-06 Eh
 * total energy  :  -157.2503765 Eh     change       -0.6705933E-06 Eh
 * total energy  :  -157.2503771 Eh     change       -0.5973440E-06 Eh
 * total energy  :  -157.2503776 Eh     change       -0.4774803E-06 Eh
 * total energy  :  -157.2503779 Eh     change       -0.3492725E-06 Eh
 * total energy  :  -157.2503779 Eh     change       -0.7473233E-08 Eh
   *** GEOMETRY OPTIMIZATION CONVERGED AFTER 22 ITERATIONS ***

 final structure:
================
102
 xtb: 6.7.1 (edcfbbe)
C           -7.54226149209193        1.86360218522552        1.13308408004185
C           -7.14698903659181        0.73947622548466        1.83748541881056
C           -5.80443683732561        0.48125142318553        2.03858817244768
C           -4.83271132562527        1.34765435252661        1.54487510283501
C           -3.40304828946695        1.06980327111477        1.74749144279264
C           -2.52134763556054        2.10598383540777        2.08706980445134
C           -1.16410439334105        1.89852488761093        2.22600304977369
C           -0.67891000006337        0.62220894858947        1.98862554835789
N            0.61367078578662        0.16532829178018        1.94061440292049
C            0.61440923156212       -1.13807668661496        1.51358309521414
C            1.66941379265995       -1.96000091785487        1.11035784123676
C            3.05191235688121       -1.50659408375699        0.85970692870211
C            4.10122323199461       -2.29897607640985        1.34648209812733
C            5.42381738666790       -2.02531498326015        1.07621465796546
C            5.71999463010862       -0.93604812785661        0.26671170900285
C            4.66854691467430       -0.12761476264407       -0.21975122401869
N            5.20059624278798        0.87001827940656       -0.99766431326407
C            6.56454306955041        0.73578321040308       -1.03750568410587
C            7.51087595175386        1.50649508423256       -1.69491631437915
C            8.83818882832038        1.14892011581688       -1.55629754566096
C            9.21798209036911        0.05289998092986       -0.78354865800590
C            8.27948547552440       -0.71790523008583       -0.12710265670140
C            6.93806193141582       -0.37884340575331       -0.25014124544248
C            3.32639641686752       -0.38178102874305        0.06782301944430
C            2.30092700443147        0.58522895575208       -0.37063240258571
C            2.48217001194708        1.92630204545243       -0.04255310411637
C            1.50348515233307        2.90565862163840       -0.24725422466906
C            1.77776570435978        4.30092418432236        0.12561851082857
C            0.78900749752270        5.09147109109877        0.70855830259544
C            1.04911878091405        6.40217497481075        1.06109709052201
C            2.30077014847616        6.95020813763383        0.83585798298753
C            3.29119265124952        6.17639020069415        0.25512769502903
C            3.03295006765060        4.86456261669897       -0.09521785495403
C            0.26415941063316        2.53227153253515       -0.75092108068790
C            0.05203060930567        1.20777211966840       -1.09383643997677
C            1.08655745590677        0.24837433691153       -0.97191888079570
N            0.62650541651581       -0.95797899549382       -1.43284062514398
C           -0.71361037220148       -0.84985152303918       -1.70936015015777
C           -1.63096136748404       -1.82665965557726       -2.06251331274541
C           -2.95605936398507       -1.45583334011309       -2.16678237398618
C           -3.38002495867573       -0.13579552413775       -1.95596786548597
C           -4.80961879284615        0.20315592052606       -2.01644224868076
C           -5.76091304845288       -0.62620953580483       -1.42837348101400
C           -7.10325634394602       -0.30238068349753       -1.47268085937292
C           -7.51968442940285        0.85406153058746       -2.10908984539235
C           -6.58325563196537        1.68800685329711       -2.69533900319140
C           -5.23987643498691        1.36776047483111       -2.64670504802009
C           -2.44686806195521        0.84782758573662       -1.66028176733187
C           -1.11499062960345        0.49164867927120       -1.52586111088507
C            1.34269265862917       -3.27348081399472        0.78661900417528
C            0.03085740508673       -3.76130428297510        0.79017263283492
C           -0.22843286161947       -5.16526668259458        0.43946939716566
C            0.62042526956028       -6.17601370463655        0.88607643565588
C            0.37736515049762       -7.49736191528401        0.56157091832220
C           -0.71635994474393       -7.83372928124228       -0.21826247378256
C           -1.56743551447705       -6.83840460080260       -0.66830256342463
C           -1.32757201231423       -5.51703591563331       -0.34154187068911
C           -1.01628509339765       -2.89482206460638        1.07523263893561
C           -0.72551854795262       -1.58656020542121        1.42321669458853
C           -1.55428984225842       -0.44266336101452        1.68070489612241
C           -2.91668490421587       -0.21808831861537        1.57166509151058
C           -5.24300294396222        2.47423421587108        0.83692517804367
C           -6.58527268700029        2.72835641091429        0.63100366676129
H           -8.59155706626429        2.06426066139650        0.97479736271730
H           -7.88962276312513        0.06195980985280        2.23414097084728
H           -5.50159523960095       -0.38958955937646        2.60210815421864
H           -2.92412491889469        3.09506127872270        2.25138380406210
H           -0.49577579792427        2.70711790269291        2.48299764517220
H            1.43049863088905        0.74476502527342        2.03156624349257
H            3.84940038984908       -3.14144288534716        1.97382180110335
H            6.21087259259357       -2.64560107669743        1.47659488903912
H            4.66222239028980        1.55099660582520       -1.50556727652227
H            7.21920924726504        2.35594185546523       -2.29505736236235
H            9.59847622592065        1.73018700515582       -2.05683445010736
H           10.26609666512809       -0.19334992999935       -0.70036047382760
H            8.57781227069396       -1.56627433012370        0.47027395122440
H            3.39373213687913        2.21072787074064        0.46582286805507
H           -0.18617330263739        4.66866171143039        0.90141444378097
H            0.27235827157765        6.99926051238342        1.51674742661093
H            2.50314573908265        7.97468729630398        1.11089435539761
H            4.26900377970022        6.59809693298583        0.07209801695113
H            3.80935295354072        4.27581840203451       -0.56286841676101
H           -0.52349267177937        3.25794527855906       -0.87772030546666
H            1.12915519359418       -1.82745268373651       -1.37338490213380
H           -1.31902113540911       -2.84811669532231       -2.22235578247938
H           -3.69419110572352       -2.20097209041267       -2.42613483572169
H           -5.44155900423315       -1.52255622934083       -0.91672062449048
H           -7.82853886741785       -0.95308012933892       -1.00610434396544
H           -8.56943068321445        1.10502456032163       -2.14675900665864
H           -6.90243100488150        2.59123318670577       -3.19554169464121
H           -4.51444779130251        2.01414676486039       -3.11959356228570
H           -2.76199484283646        1.86402359584963       -1.48032991561356
H            2.13486650463978       -3.92831322977199        0.45116188320424
H            1.46528509489432       -5.92377476240600        1.51050146524303
H            1.04215345633493       -8.26953179062242        0.92121872005278
H           -0.90532588374440       -8.86617613684198       -0.47273917445161
H           -2.42155479920187       -7.09371480224042       -1.27908104499613
H           -1.99053944496306       -4.74628337345738       -0.70728802130238
H           -2.04024534773948       -3.23156055508945        1.03716967579918
H           -3.58260923560593       -1.02104605698555        1.29553896232320
H           -4.50089310717562        3.14582007567232        0.42996212124419
H           -6.88728310954702        3.60307270128972        0.07342160211509

          :  Hamiltonian                  GFN2-xTB          :
         :: gradient norm              0.000056105307 Eh/a0 ::
         :: HOMO-LUMO gap              2.674992185071 eV    ::
         :: SCC energy              -160.281941762253 Eh    ::
         :: -> dispersion             -0.173006978950 Eh    ::
         :: repulsion energy           3.031563842348 Eh    ::

    * Orbital Energies and Occupations

         #    Occupation            Energy/Eh            Energy/eV
      -------------------------------------------------------------
         1        2.0000           -0.6784675             -18.4620
       ...           ...                  ...                  ...
       135        2.0000           -0.4017736             -10.9328
       136        2.0000           -0.4004324             -10.8963
       137        2.0000           -0.3999387             -10.8829
       138        2.0000           -0.3971095             -10.8059
       139        2.0000           -0.3940898             -10.7237
       140        2.0000           -0.3910891             -10.6421
       141        2.0000           -0.3859178             -10.5014
       142        2.0000           -0.3770345             -10.2596
       143        2.0000           -0.3752946             -10.2123
       144        2.0000           -0.3736250             -10.1669
       145        2.0000           -0.3685595             -10.0290
       146        2.0000           -0.3589634              -9.7679
       147        2.0000           -0.3567416              -9.7074 (HOMO)
       148                         -0.2584375              -7.0324 (LUMO)
       149                         -0.2461561              -6.6982
       150                         -0.2459734              -6.6933
       151                         -0.2412359              -6.5644
       152                         -0.2381344              -6.4800
       153                         -0.2310580              -6.2874
       154                         -0.2284117              -6.2154
       155                         -0.2247028              -6.1145
       156                         -0.2233826              -6.0786
       157                         -0.2197016              -5.9784
       158                         -0.2174821              -5.9180
       ...                                ...                  ...
       291                          0.7521844              20.4680
      -------------------------------------------------------------
                  HL-Gap            0.0983042 Eh            2.6750 eV

     #   Z          covCN         q      C6AA      α(0)
     1   6 C        2.921    -0.031    28.783     8.798
     2   6 C        2.919    -0.030    28.739     8.791
     3   6 C        2.926    -0.034    28.859     8.810
     4   6 C        2.978     0.011    27.754     8.642
     5   6 C        2.978    -0.001    28.038     8.686
     6   6 C        2.930    -0.036    28.897     8.816
     7   6 C        2.908    -0.053    29.328     8.880
     8   6 C        3.078     0.055    26.686     8.469
     9   7 N        2.757    -0.123    23.666     7.225
    10   6 C        3.075     0.050    26.793     8.487
    11   6 C        2.966    -0.018    28.444     8.748
    12   6 C        2.980    -0.005    28.149     8.703
    13   6 C        2.926    -0.048    29.203     8.862
    14   6 C        2.910    -0.036    28.903     8.816
    15   6 C        3.073    -0.019    28.408     8.739
    16   6 C        3.075     0.048    26.838     8.494
    17   7 N        2.757    -0.123    23.667     7.225
    18   6 C        3.074     0.055    26.694     8.471
    19   6 C        2.909    -0.055    29.363     8.885
    20   6 C        2.924    -0.033    28.811     8.802
    21   6 C        2.920    -0.042    29.031     8.836
    22   6 C        2.912    -0.033    28.816     8.802
    23   6 C        3.073    -0.017    28.350     8.730
    24   6 C        2.969    -0.027    28.665     8.782
    25   6 C        2.964    -0.020    28.506     8.757
    26   6 C        2.937    -0.056    29.397     8.892
    27   6 C        2.975    -0.007    28.183     8.708
    28   6 C        2.977     0.009    27.815     8.651
    29   6 C        2.925    -0.036    28.885     8.814
    30   6 C        2.918    -0.030    28.743     8.792
    31   6 C        2.920    -0.032    28.794     8.800
    32   6 C        2.918    -0.030    28.755     8.793
    33   6 C        2.926    -0.035    28.876     8.812
    34   6 C        2.917    -0.040    28.984     8.828
    35   6 C        3.074    -0.017    28.347     8.730
    36   6 C        3.076     0.050    26.799     8.487
    37   7 N        2.756    -0.124    23.684     7.228
    38   6 C        3.079     0.056    26.671     8.467
    39   6 C        2.908    -0.053    29.312     8.878
    40   6 C        2.930    -0.035    28.881     8.813
    41   6 C        2.978     0.000    28.021     8.683
    42   6 C        2.978     0.011    27.755     8.642
    43   6 C        2.926    -0.033    28.816     8.803
    44   6 C        2.919    -0.029    28.719     8.788
    45   6 C        2.921    -0.031    28.779     8.797
    46   6 C        2.919    -0.030    28.739     8.791
    47   6 C        2.926    -0.034    28.858     8.810
    48   6 C        2.919    -0.035    28.871     8.811
    49   6 C        3.072    -0.017    28.356     8.731
    50   6 C        2.938    -0.051    29.258     8.871
    51   6 C        2.975    -0.005    28.154     8.704
    52   6 C        2.977     0.010    27.800     8.649
    53   6 C        2.926    -0.035    28.874     8.812
    54   6 C        2.918    -0.030    28.753     8.793
    55   6 C        2.920    -0.032    28.805     8.801
    56   6 C        2.918    -0.030    28.757     8.794
    57   6 C        2.925    -0.036    28.896     8.815
    58   6 C        2.918    -0.040    28.985     8.828
    59   6 C        3.074    -0.017    28.363     8.732
    60   6 C        3.072    -0.017    28.356     8.731
    61   6 C        2.919    -0.035    28.877     8.812
    62   6 C        2.926    -0.033    28.821     8.804
    63   6 C        2.919    -0.029    28.725     8.789
    64   1 H        0.926     0.027     2.631     2.536
    65   1 H        0.926     0.027     2.625     2.534
    66   1 H        0.926     0.029     2.595     2.519
    67   1 H        0.926     0.032     2.562     2.503
    68   1 H        0.926     0.026     2.639     2.540
    69   1 H        0.860     0.162     1.321     1.801
    70   1 H        0.926     0.030     2.583     2.513
    71   1 H        0.926     0.031     2.566     2.505
    72   1 H        0.860     0.160     1.335     1.810
    73   1 H        0.926     0.024     2.674     2.557
    74   1 H        0.926     0.029     2.595     2.519
    75   1 H        0.926     0.028     2.616     2.529
    76   1 H        0.926     0.031     2.576     2.510
    77   1 H        0.925     0.026     2.637     2.539
    78   1 H        0.926     0.032     2.564     2.504
    79   1 H        0.926     0.029     2.605     2.524
    80   1 H        0.926     0.028     2.610     2.526
    81   1 H        0.926     0.028     2.619     2.531
    82   1 H        0.926     0.023     2.682     2.561
    83   1 H        0.926     0.033     2.538     2.491
    84   1 H        0.860     0.164     1.312     1.794
    85   1 H        0.926     0.028     2.618     2.530
    86   1 H        0.926     0.033     2.546     2.495
    87   1 H        0.926     0.027     2.631     2.536
    88   1 H        0.926     0.027     2.626     2.534
    89   1 H        0.926     0.027     2.626     2.534
    90   1 H        0.926     0.027     2.624     2.533
    91   1 H        0.926     0.029     2.600     2.522
    92   1 H        0.926     0.032     2.553     2.499
    93   1 H        0.926     0.030     2.581     2.512
    94   1 H        0.926     0.029     2.595     2.519
    95   1 H        0.926     0.028     2.621     2.532
    96   1 H        0.926     0.027     2.624     2.533
    97   1 H        0.926     0.027     2.623     2.533
    98   1 H        0.926     0.030     2.591     2.517
    99   1 H        0.926     0.033     2.542     2.493
   100   1 H        0.926     0.032     2.561     2.502
   101   1 H        0.926     0.026     2.642     2.542
   102   1 H        0.926     0.027     2.635     2.538

molecular dipole:
                 x           y           z       tot (Debye)
 q only:        0.334       0.149      -0.195
   full:        0.491       0.251      -0.262       1.553

 projected vibrational frequencies (cm⁻¹)
eigval :       -0.00    -0.00    -0.00     0.00     0.00     0.00
eigval :       12.59    14.12    23.08    24.34    36.97    38.07
eigval :       40.08    44.68    47.39    52.47    59.06    59.75
eigval :       63.83    65.49    76.36    77.83    81.65    84.90
eigval :       95.35   103.16   114.48   135.30   139.19   142.48
eigval :      147.90   161.61   174.50   184.54   203.87   208.93
eigval :      235.99   240.36   241.95   250.94   255.91   261.00
eigval :      262.92   264.59   280.42   288.83   304.18   307.46
eigval :      314.36   320.15   345.81   361.40   371.22   372.49
eigval :      374.18   374.47   374.80   399.14   403.77   406.85
eigval :      409.24   417.26   425.99   426.24   463.02   467.34
eigval :      470.80   475.17   477.63   484.01   490.89   493.88
eigval :      498.46   510.13   512.40   524.69   534.42   543.00
eigval :      546.20   556.50   565.88   574.10   579.09   583.60
eigval :      585.20   586.80   587.04   595.58   602.06   607.04
eigval :      611.77   617.07   621.54   623.63   629.61   636.83
eigval :      645.78   652.81   670.20   671.00   673.10   673.64
eigval :      683.21   688.68   695.71   698.16   709.90   710.52
eigval :      714.83   724.93   729.57   748.28   754.89   758.81
eigval :      760.35   760.95   772.80   792.52   821.89   822.58
eigval :      828.95   830.73   846.33   851.86   853.04   859.85
eigval :      864.76   866.22   868.85   869.39   871.15   875.76
eigval :      876.81   879.17   879.51   881.65   886.54   889.01
eigval :      898.19   898.79   900.13   900.82   902.93   903.64
eigval :      904.89   910.64   911.01   911.96   921.20   928.11
eigval :      928.80   930.18   930.43   931.37   932.30   933.04
eigval :      933.65   949.91   973.07   983.61   984.29   989.91
eigval :     1015.49  1049.98  1067.28  1069.93  1072.39  1085.16
eigval :     1086.10  1086.63  1087.74  1090.73  1094.36  1098.06
eigval :     1121.80  1122.40  1123.00  1123.92  1137.63  1144.60
eigval :     1151.60  1157.89  1165.11  1169.59  1180.12  1181.03
eigval :     1182.08  1182.67  1184.25  1184.78  1189.21  1199.53
eigval :     1202.33  1203.03  1203.92  1215.53  1219.54  1220.86
eigval :     1229.67  1229.84  1234.43  1248.85  1262.07  1275.26
eigval :     1278.45  1281.74  1282.16  1283.13  1283.66  1291.83
eigval :     1294.81  1311.40  1311.54  1314.47  1315.75  1320.34
eigval :     1321.20  1322.70  1322.76  1333.00  1336.45  1344.09
eigval :     1356.16  1360.57  1370.69  1376.17  1377.33  1390.61
eigval :     1394.45  1409.67  1425.23  1425.62  1431.46  1432.01
eigval :     1432.56  1435.12  1435.42  1465.98  1468.47  1468.83
eigval :     1470.41  1488.26  1491.53  1498.83  1499.25  1499.65
eigval :     1502.41  1562.63  1568.86  1569.97  1577.03  1577.79
eigval :     1582.25  1583.07  1583.64  1585.43  1585.80  1591.94
eigval :     1592.56  1595.72  1600.93  1601.74  1603.40  1603.57
eigval :     1616.10  1618.76  1618.99  3066.45  3067.76  3068.11
eigval :     3069.63  3069.68  3070.42  3070.62  3070.95  3072.20
eigval :     3073.74  3073.83  3075.32  3075.73  3077.67  3079.05
eigval :     3079.22  3079.24  3080.19  3081.00  3081.38  3083.05
eigval :     3083.99  3084.67  3085.86  3086.87  3087.14  3090.26
eigval :     3091.53  3091.84  3092.69  3093.13  3093.93  3094.54
eigval :     3096.45  3099.68  3101.05  3477.59  3481.63  3484.76

   temp. (K)  partition function   enthalpy   heat capacity  entropy
                                   cal/mol     cal/K/mol   cal/K/mol   J/K/mol
 298.15  VIB  0.186E+22            28767.559    186.175    177.472
         ROT  0.136E+09              888.752      2.981     40.201
         INT  0.253E+30            29656.311    189.156    217.673
         TR   0.220E+29             1481.254      4.968     45.903
         TOT                       31137.5650   194.1238   263.5762  1102.8030

       T/K    H(0)-H(T)+PV         H(T)/Eh          T*S/Eh         G(T)/Eh
   ------------------------------------------------------------------------
    298.15    0.496209E-01    0.838046E+00    0.125234E+00    0.712812E+00
   ------------------------------------------------------------------------

         :::::::::::::::::::::::::::::::::::::::::::::::::::::
         ::                  THERMODYNAMIC                  ::
         :::::::::::::::::::::::::::::::::::::::::::::::::::::
         :: total free energy        -156.537565911353 Eh   ::
         ::.................................................::
         :: total energy             -157.250377919905 Eh   ::
         :: zero point energy           0.788424718701 Eh   ::
         :: G(RRHO) w/o ZPVE           -0.075612710149 Eh   ::
         :: G(RRHO) contrib.            0.712812008552 Eh   ::
         :::::::::::::::::::::::::::::::::::::::::::::::::::::

           -------------------------------------------------
          | TOTAL ENERGY             -157.250377919905 Eh   |
          | TOTAL ENTHALPY           -156.412332332833 Eh   |
          | TOTAL FREE ENERGY        -156.537565911353 Eh   |
          | GRADIENT NORM               0.000056098254 Eh/α |
          | HOMO-LUMO GAP               2.674992337701 eV   |
           -------------------------------------------------

 * finished run on 2025/07/16 at 23:08:56.610
