   * xtb version 6.7.1 (edcfbbe) compiled by 'albert@albert-system' on 2024-07-22

   ID    Z sym.   atoms
    1    6 C      1-6, 8-20, 22-33, 35-41, 43-49, 51-57, 59-68, 70-86, 88-94
    2    7 N      7, 21, 42, 58, 69, 87
    3    5 B      34, 50
    4    1 H      95-164

          program call               : xtb data2507/toluene/m-ν-DABNA/m-ν-DABNA_toluene_S0_crest.xyz --gfn 2 --gbsa toluene --ohess vtight --parallel 40 --molden --ceasefiles --namespace data2507/toluene/m-ν-DABNA/m-ν-DABNA_toluene_S0_finalOpt
      * Solvation model:               GBSA
        Solvent                        toluene
        Solvent mass                       9.2140E+01 g/mol
          :  Hamiltonian                  GFN2-xTB          :
 * total energy  :  -240.1634572 Eh     change       -0.2824038E-08 Eh
 * total energy  :  -240.1635942 Eh     change       -0.1370445E-03 Eh
 * total energy  :  -240.1638058 Eh     change       -0.2115210E-03 Eh
 * total energy  :  -240.1639529 Eh     change       -0.1470950E-03 Eh
 * total energy  :  -240.1642063 Eh     change       -0.2534690E-03 Eh
 * total energy  :  -240.1644835 Eh     change       -0.2771664E-03 Eh
 * total energy  :  -240.1647477 Eh     change       -0.2642280E-03 Eh
 * total energy  :  -240.1649672 Eh     change       -0.2194400E-03 Eh
 * total energy  :  -240.1651264 Eh     change       -0.1592696E-03 Eh
 * total energy  :  -240.1652434 Eh     change       -0.1170179E-03 Eh
 * total energy  :  -240.1674007 Eh     change       -0.1538465E-05 Eh
 * total energy  :  -240.1674022 Eh     change       -0.1506354E-05 Eh
 * total energy  :  -240.1674037 Eh     change       -0.1455742E-05 Eh
 * total energy  :  -240.1674050 Eh     change       -0.1343165E-05 Eh
 * total energy  :  -240.1674062 Eh     change       -0.1184270E-05 Eh
 * total energy  :  -240.1674073 Eh     change       -0.1102771E-05 Eh
 * total energy  :  -240.1674084 Eh     change       -0.1137672E-05 Eh
 * total energy  :  -240.1674097 Eh     change       -0.1286953E-05 Eh
 * total energy  :  -240.1674097 Eh     change       -0.5571820E-08 Eh
   *** GEOMETRY OPTIMIZATION CONVERGED AFTER 122 ITERATIONS ***

 final structure:
================
164
 xtb: 6.7.1 (edcfbbe)
C          -12.06211104225741       -1.34445358969468       -0.94663445375756
C          -10.66552871955298       -0.99653856239612       -1.36825090979660
C          -10.45228169523991       -0.14609102739489       -2.44915011995307
C           -9.16499749581688        0.17571364350386       -2.84024177587430
C           -8.07504159659882       -0.34216588547856       -2.16746384432758
C           -8.26947300502723       -1.19184404307326       -1.07972470695055
N           -7.17533901903120       -1.71581579416053       -0.38262844805777
C           -7.21289699473059       -3.02742543722739        0.10060373244268
C           -7.82510817724400       -4.03800286364784       -0.63977386411936
C           -7.85680839787956       -5.32903095015551       -0.14852341116694
C           -7.27989411150234       -5.63293898593083        1.07180956306717
C           -6.66405362194183       -4.63748896878314        1.82411172256380
C           -6.07105359544712       -4.96035183030579        3.16328687051560
C           -6.63888354446065       -3.34320730333844        1.33202201296681
C           -6.04640246895296       -0.91506618265350       -0.15912963409106
C           -6.20651642388306        0.43712672337598        0.11632233836179
C           -5.08928620764801        1.23921518580265        0.33765821757649
C           -3.79025658521529        0.69210688065344        0.29186985113549
C           -3.65435254991330       -0.68352212752237        0.00705018198451
C           -4.77608263747968       -1.47737481205402       -0.21675666944774
N           -2.39356757851477       -1.24434320581817       -0.05177026590848
C           -2.31101301657745       -2.65682744541002       -0.24128776103903
C           -2.25641906862367       -3.19024814471428       -1.52325248060984
C           -2.19734816877635       -4.56151954826065       -1.69653252689007
C           -2.19295450465771       -5.40209709040336       -0.59547534201721
C           -2.24017465847179       -4.87014461818042        0.68204222325247
C           -2.29885252476700       -3.49938414050585        0.86215908452068
C           -1.21756256772257       -0.51723372215164        0.00017086059663
C           -0.00835218287472       -1.18650498972470       -0.16597167343008
C            1.20759984498336       -0.50912957697536       -0.18233131420461
C            1.22732405617057        0.90671576997763       -0.11930012090738
C            0.00446204081820        1.52727426697707        0.12241020479307
C           -1.22387142378185        0.88061275359059        0.23428007181282
B           -2.57159583754652        1.56150971270911        0.54206534779382
C           -2.88794396714720        2.98471700349372        1.05149803928532
C           -1.95133625777807        3.88358787664862        1.57925859710671
C           -2.27910021007244        5.16208486993940        1.96504298790129
C           -3.59265613304315        5.61583806192036        1.83729255245439
C           -3.94821652552894        7.02044148304638        2.22299852231719
C           -4.54996777801290        4.74137921622110        1.36857124283359
C           -4.22927494800425        3.42630112685020        1.00222948578454
N           -5.25250108933273        2.58288118631460        0.60596373743799
C           -6.57777618885086        3.10939103168527        0.52352213631489
C           -7.40343102074814        3.11186569876727        1.63998368779626
C           -8.69030062838307        3.60995587100781        1.53185683546901
C           -9.14908957130802        4.10051519421809        0.32251973733462
C           -8.32994138662521        4.10598327906060       -0.80181752006162
C           -8.83110620775729        4.65829272853394       -2.10123504797229
C           -7.04095125266592        3.60412383058716       -0.68782223422883
B            2.58328994730407        1.62352911410983       -0.27077701503108
C            2.91554088821232        3.11852852657056       -0.46871232867073
C            1.99048401061494        4.11716763294365       -0.80131916094366
C            2.33099602085925        5.44544225320048       -0.90509687955200
C            3.64648785243759        5.84965909665318       -0.67382298037625
C            4.01703464578434        7.30047245733205       -0.75113318212765
C            4.59313302186013        4.88689050923646       -0.39493315994555
C            4.25991181053581        3.52690191327965       -0.31806660607661
N            5.27324772129685        2.60953689534752       -0.10123368203606
C            6.60340800464393        3.09548863377456        0.08454490208610
C            7.08130879237767        3.31992355963450        1.36746528764273
C            8.37646103685497        3.77906150504813        1.53937972573883
C            9.18507380392227        4.01135049218681        0.44208195892961
C            8.71656932428345        3.78976753711170       -0.84978468143370
C            9.60205534400290        4.05343499358372       -2.02919632960546
C            7.41884243869899        3.32892632850366       -1.01588337332746
C            5.09629929437489        1.24115135718225       -0.11145191195012
C            6.20266629709847        0.39948485937488       -0.01753170645854
C            6.03042115315725       -0.97878145007725       -0.04995225016663
N            7.14830156332650       -1.82165649185641        0.01625224746455
C            7.07097392036505       -3.03410268308209        0.71012402757111
C            7.70330996366048       -4.17454538907688        0.21727146946835
C            7.61602846156843       -5.36517855581590        0.91325474008739
C            6.89947076316367       -5.43977729924771        2.09436760997101
C            6.26134111238630       -4.31145256882884        2.60090393024896
C            5.50931432231069       -4.38763624229948        3.89631663232688
C            6.35707027845036       -3.11782726906143        1.90544622682336
C            8.33719460119234       -1.45736010184007       -0.62446465708003
C            8.31045920736043       -0.80604635162390       -1.85674834980624
C            9.49440047223108       -0.44772783512356       -2.47184375453267
C           10.71161442278822       -0.73774946682601       -1.88130632251685
C           10.75782346440679       -1.39383215303332       -0.65514110571104
C           12.07647245882534       -1.69372765823463       -0.00663233529194
C            9.56902825829785       -1.74239363988049       -0.03588679675859
C            4.75635826880712       -1.52723850047930       -0.14815469120685
C            3.64261369576307       -0.69362709841354       -0.19862517859797
C            3.79251625895508        0.70964073543624       -0.19454056065197
N            2.37728741349539       -1.24260761531815       -0.27274795513721
C            2.28292635480440       -2.66417837217343       -0.36058725076049
C            2.17741371022708       -3.43005653223058        0.79388154868154
C            2.10938355414248       -4.80849028262679        0.70220271787103
C            2.14394536465932       -5.42554645625678       -0.53742365474450
C            2.24145123712977       -4.66194864451907       -1.68867504817135
C            2.31198902005284       -3.28230635672919       -1.60371831215414
C           -9.57124885692696       -1.50811417315922       -0.69126395324310
H          -12.05687286208659       -1.95520141403124       -0.04732010838048
H          -12.63754407308219       -0.44002526402034       -0.75346033870728
H          -12.56730978937000       -1.89700368703085       -1.73866605287797
H          -11.29849505174416        0.26116702926111       -2.98318735946153
H           -9.00642594382186        0.83049691031099       -3.68504610775847
H           -7.07030193689078       -0.09549331310087       -2.47728692346067
H           -8.26891619479710       -3.80474866454490       -1.59666027786153
H           -8.32977877191746       -6.10790997356354       -0.72972500054992
H           -7.30787667774789       -6.64620860277026        1.44558074564089
H           -5.50372023138064       -5.88785331118507        3.11784298414109
H           -6.86484225222945       -5.09139078699632        3.89966429743953
H           -5.41840553334732       -4.16062511266756        3.50367074146274
H           -6.17109697747709       -2.55691654243975        1.90760153821534
H           -7.20332055348867        0.84593059454064        0.16363879239749
H           -4.67988320348562       -2.52696543330403       -0.44594863687031
H           -2.26269519619417       -2.52407830708233       -2.37381179293586
H           -2.15689432146568       -4.97419383613446       -2.69378753739415
H           -2.14952046115782       -6.47196385124655       -0.73414048217018
H           -2.22981877094062       -5.52361631226863        1.54146819727655
H           -2.33632057421807       -3.07161962999435        1.85327040279246
H           -0.01359888485616       -2.25883611438879       -0.28224439062373
H            0.00894355637745        2.59760217583914        0.23335020671008
H           -0.93250829127597        3.55211548180442        1.70754576021490
H           -1.52176292656485        5.82230008225193        2.36490155058546
H           -3.39347045462608        7.73066451618710        1.60982984723289
H           -5.01220235777711        7.20461584059185        2.09321464798868
H           -3.68514678692308        7.20589452293903        3.26420671570598
H           -5.57319520922660        5.08058695650040        1.29613569086438
H           -7.03360399361770        2.72447930984532        2.57794554480686
H           -9.33801156253338        3.61291282329699        2.39643203130475
H          -10.15549379059093        4.48613959144367        0.24682931576838
H           -8.91770864749254        5.74319936435738       -2.03682985534123
H           -9.81711374907894        4.25843294797333       -2.33037766983050
H           -8.15291808095307        4.41530610772560       -2.91492594403230
H           -6.38175054567764        3.59200377854374       -1.54413200415598
H            0.97050274317627        3.82939813014411       -1.00411281426795
H            1.58225511692859        6.18229473587626       -1.16151475533682
H            3.78636746498955        7.69850518954189       -1.73918587784844
H            3.44633047177112        7.87474052076789       -0.02148644149100
H            5.07723419572008        7.44409198881802       -0.55579798456629
H            5.61761019482390        5.19426203478780       -0.24289974725873
H            6.43883078943027        3.13418742512503        2.21544252072623
H            8.75449485382277        3.95597218708013        2.53574270314878
H           10.19435554423824        4.36974648732323        0.58446504665127
H            9.88538536091449        5.10512638304907       -2.05979221293479
H           10.51548660190695        3.46505350514922       -1.95446332846574
H            9.09842582260048        3.80131127142451       -2.95853920306676
H            7.02575141016134        3.14725373911372       -2.00615781600395
H            7.20042532971112        0.79945674146956        0.06944853470217
H            8.25594076150274       -4.12023172786998       -0.70941455002099
H            8.10581057218351       -6.24626251371757        0.52357070872273
H            6.83421892954860       -6.37619764995008        2.62917631098118
H            6.20740751204051       -4.49137785359131        4.72751680275575
H            4.85115901382652       -5.25448872920142        3.90629616568987
H            4.91654451133457       -3.49073432476741        4.05649095642818
H            5.87446076292222       -2.22959359004776        2.28827723501323
H            7.36132139406766       -0.58882737138395       -2.32399939987504
H            9.46613240198433        0.05404960116151       -3.42856151468267
H           11.63219853777247       -0.45777444717404       -2.37268651637812
H           12.51216365987869       -0.77841914688294        0.39507577301566
H           12.77550364984726       -2.10446812379646       -0.73299544366722
H           11.95703686336858       -2.40312691757686        0.80857514147454
H            9.58825879167945       -2.24456918220559        0.92134048593957
H            4.65083582523263       -2.60028461974522       -0.17531924272223
H            2.14955744043231       -2.93647809724111        1.75415342647112
H            2.02771843670989       -5.40217019102941        1.60031542910856
H            2.09220591692856       -6.50184963748622       -0.60607113196918
H            2.26496491918416       -5.14093705791797       -2.65642204309629
H            2.39210558653039       -2.67569289386770       -2.49405606690820
H           -9.72029628972866       -2.16262741213961        0.15624688129439

          :  Hamiltonian                  GFN2-xTB          :
         :: gradient norm              0.000055942469 Eh/a0 ::
         :: HOMO-LUMO gap              2.203877339141 eV    ::
         :: SCC energy              -244.549978314819 Eh    ::
         :: -> dispersion             -0.247296663545 Eh    ::
         :: -> Gsolv                  -0.096548294256 Eh    ::
         :: repulsion energy           4.382568578130 Eh    ::

    * Orbital Energies and Occupations

         #    Occupation            Energy/Eh            Energy/eV
      -------------------------------------------------------------
         1        2.0000           -0.6601531             -17.9637
       ...           ...                  ...                  ...
       213        2.0000           -0.3876930             -10.5497
       214        2.0000           -0.3817683             -10.3884
       215        2.0000           -0.3791456             -10.3171
       216        2.0000           -0.3783705             -10.2960
       217        2.0000           -0.3736294             -10.1670
       218        2.0000           -0.3688794             -10.0377
       219        2.0000           -0.3624448              -9.8626
       220        2.0000           -0.3585993              -9.7580
       221        2.0000           -0.3492173              -9.5027
       222        2.0000           -0.3419272              -9.3043
       223        2.0000           -0.3402268              -9.2580
       224        2.0000           -0.3371951              -9.1755
       225        2.0000           -0.3313522              -9.0166 (HOMO)
       226                         -0.2503611              -6.8127 (LUMO)
       227                         -0.2370646              -6.4509
       228                         -0.2300002              -6.2586
       229                         -0.2299472              -6.2572
       230                         -0.2295819              -6.2472
       231                         -0.2291426              -6.2353
       232                         -0.2266741              -6.1681
       233                         -0.2264518              -6.1621
       234                         -0.2241140              -6.0985
       235                         -0.2240253              -6.0960
       236                         -0.2226518              -6.0587
       ...                                ...                  ...
       446                          0.7393342              20.1183
      -------------------------------------------------------------
                  HL-Gap            0.0809910 Eh            2.2039 eV

     #   Z          covCN         q      C6AA      α(0)
     1   6 C        3.758    -0.109    22.638     6.783
     2   6 C        2.965     0.016    27.663     8.627
     3   6 C        2.924    -0.052    29.290     8.875
     4   6 C        2.918    -0.034    28.843     8.807
     5   6 C        2.922    -0.054    29.335     8.882
     6   6 C        2.923     0.066    26.512     8.444
     7   7 N        2.754    -0.088    22.957     7.116
     8   6 C        2.922     0.067    26.511     8.444
     9   6 C        2.922    -0.055    29.368     8.887
    10   6 C        2.917    -0.034    28.855     8.809
    11   6 C        2.924    -0.052    29.297     8.876
    12   6 C        2.965     0.016    27.663     8.627
    13   6 C        3.758    -0.109    22.633     6.783
    14   6 C        2.928    -0.059    29.466     8.902
    15   6 C        2.923     0.066    26.519     8.445
    16   6 C        2.922    -0.091    30.277     9.023
    17   6 C        2.926     0.062    26.619     8.461
    18   6 C        2.897    -0.113    30.854     9.107
    19   6 C        2.926     0.062    26.616     8.460
    20   6 C        2.921    -0.091    30.279     9.024
    21   7 N        2.756    -0.064    22.479     7.042
    22   6 C        2.933     0.072    26.401     8.427
    23   6 C        2.921    -0.038    28.943     8.822
    24   6 C        2.920    -0.029    28.724     8.789
    25   6 C        2.920    -0.031    28.783     8.798
    26   6 C        2.920    -0.028    28.699     8.785
    27   6 C        2.922    -0.038    28.938     8.822
    28   6 C        2.927     0.061    26.629     8.463
    29   6 C        2.923    -0.089    30.237     9.018
    30   6 C        2.927     0.061    26.627     8.462
    31   6 C        2.884    -0.097    30.436     9.044
    32   6 C        2.929    -0.040    29.006     8.832
    33   6 C        2.884    -0.097    30.436     9.045
    34   5 B        2.724     0.186    18.588     7.224
    35   6 C        2.886    -0.090    30.266     9.020
    36   6 C        2.922    -0.038    28.957     8.824
    37   6 C        2.919    -0.056    29.396     8.891
    38   6 C        2.965     0.012    27.744     8.640
    39   6 C        3.758    -0.107    22.588     6.776
    40   6 C        2.926    -0.069    29.722     8.941
    41   6 C        2.925     0.059    26.672     8.469
    42   7 N        2.756    -0.061    22.428     7.034
    43   6 C        2.931     0.069    26.455     8.435
    44   6 C        2.921    -0.044    29.084     8.844
    45   6 C        2.918    -0.032    28.787     8.798
    46   6 C        2.925    -0.043    29.063     8.841
    47   6 C        2.966     0.021    27.529     8.606
    48   6 C        3.758    -0.111    22.682     6.790
    49   6 C        2.927    -0.048    29.199     8.862
    50   5 B        2.724     0.186    18.587     7.224
    51   6 C        2.887    -0.090    30.268     9.020
    52   6 C        2.922    -0.038    28.956     8.824
    53   6 C        2.919    -0.056    29.396     8.891
    54   6 C        2.965     0.012    27.743     8.640
    55   6 C        3.758    -0.107    22.589     6.776
    56   6 C        2.926    -0.069    29.724     8.941
    57   6 C        2.925     0.059    26.672     8.469
    58   7 N        2.756    -0.061    22.426     7.033
    59   6 C        2.932     0.069    26.455     8.435
    60   6 C        2.922    -0.044    29.098     8.846
    61   6 C        2.918    -0.031    28.778     8.797
    62   6 C        2.925    -0.043    29.066     8.841
    63   6 C        2.966     0.021    27.542     8.608
    64   6 C        3.758    -0.111    22.678     6.790
    65   6 C        2.927    -0.048    29.183     8.859
    66   6 C        2.926     0.062    26.620     8.461
    67   6 C        2.922    -0.091    30.283     9.024
    68   6 C        2.923     0.066    26.519     8.445
    69   7 N        2.754    -0.088    22.957     7.116
    70   6 C        2.922     0.067    26.510     8.443
    71   6 C        2.922    -0.055    29.361     8.886
    72   6 C        2.917    -0.034    28.853     8.808
    73   6 C        2.924    -0.052    29.290     8.875
    74   6 C        2.965     0.016    27.658     8.626
    75   6 C        3.758    -0.109    22.631     6.782
    76   6 C        2.928    -0.058    29.452     8.900
    77   6 C        2.922     0.066    26.512     8.444
    78   6 C        2.922    -0.054    29.336     8.882
    79   6 C        2.918    -0.034    28.842     8.807
    80   6 C        2.924    -0.052    29.292     8.876
    81   6 C        2.965     0.015    27.663     8.627
    82   6 C        3.758    -0.109    22.638     6.783
    83   6 C        2.928    -0.059    29.478     8.904
    84   6 C        2.922    -0.091    30.290     9.025
    85   6 C        2.926     0.062    26.616     8.460
    86   6 C        2.897    -0.113    30.856     9.108
    87   7 N        2.756    -0.064    22.481     7.042
    88   6 C        2.933     0.072    26.400     8.427
    89   6 C        2.922    -0.037    28.923     8.819
    90   6 C        2.920    -0.028    28.708     8.786
    91   6 C        2.920    -0.032    28.786     8.798
    92   6 C        2.920    -0.029    28.719     8.788
    93   6 C        2.922    -0.039    28.960     8.825
    94   6 C        2.928    -0.059    29.474     8.903
    95   1 H        0.925     0.042     2.428     2.437
    96   1 H        0.925     0.048     2.346     2.395
    97   1 H        0.925     0.048     2.339     2.392
    98   1 H        0.926     0.030     2.587     2.515
    99   1 H        0.926     0.030     2.589     2.516
   100   1 H        0.926     0.026     2.643     2.542
   101   1 H        0.926     0.025     2.654     2.548
   102   1 H        0.926     0.028     2.612     2.528
   103   1 H        0.926     0.029     2.594     2.519
   104   1 H        0.925     0.047     2.355     2.400
   105   1 H        0.924     0.049     2.334     2.389
   106   1 H        0.925     0.042     2.417     2.431
   107   1 H        0.926     0.028     2.612     2.527
   108   1 H        0.926     0.018     2.770     2.603
   109   1 H        0.926     0.017     2.781     2.608
   110   1 H        0.926     0.039     2.458     2.452
   111   1 H        0.926     0.040     2.443     2.444
   112   1 H        0.926     0.041     2.436     2.441
   113   1 H        0.926     0.043     2.412     2.429
   114   1 H        0.926     0.041     2.442     2.444
   115   1 H        0.926     0.011     2.880     2.654
   116   1 H        0.926     0.034     2.525     2.485
   117   1 H        0.926     0.029     2.597     2.520
   118   1 H        0.925     0.017     2.783     2.609
   119   1 H        0.925     0.044     2.400     2.422
   120   1 H        0.925     0.037     2.490     2.468
   121   1 H        0.925     0.043     2.407     2.426
   122   1 H        0.926     0.018     2.768     2.602
   123   1 H        0.926     0.036     2.497     2.471
   124   1 H        0.926     0.038     2.480     2.463
   125   1 H        0.926     0.040     2.452     2.449
   126   1 H        0.924     0.054     2.265     2.354
   127   1 H        0.925     0.052     2.292     2.367
   128   1 H        0.925     0.047     2.359     2.402
   129   1 H        0.926     0.038     2.470     2.458
   130   1 H        0.926     0.029     2.598     2.520
   131   1 H        0.925     0.017     2.782     2.608
   132   1 H        0.925     0.044     2.402     2.424
   133   1 H        0.925     0.043     2.404     2.425
   134   1 H        0.925     0.037     2.488     2.467
   135   1 H        0.926     0.018     2.765     2.600
   136   1 H        0.926     0.036     2.498     2.471
   137   1 H        0.926     0.038     2.476     2.460
   138   1 H        0.926     0.040     2.451     2.448
   139   1 H        0.925     0.054     2.275     2.359
   140   1 H        0.925     0.053     2.281     2.362
   141   1 H        0.925     0.046     2.364     2.404
   142   1 H        0.926     0.038     2.470     2.458
   143   1 H        0.926     0.018     2.767     2.601
   144   1 H        0.926     0.025     2.653     2.547
   145   1 H        0.926     0.028     2.609     2.526
   146   1 H        0.926     0.030     2.588     2.516
   147   1 H        0.924     0.049     2.335     2.389
   148   1 H        0.925     0.048     2.349     2.397
   149   1 H        0.925     0.042     2.421     2.433
   150   1 H        0.926     0.029     2.606     2.525
   151   1 H        0.926     0.026     2.641     2.542
   152   1 H        0.926     0.029     2.594     2.518
   153   1 H        0.926     0.030     2.591     2.517
   154   1 H        0.924     0.049     2.332     2.388
   155   1 H        0.925     0.047     2.359     2.402
   156   1 H        0.925     0.042     2.423     2.434
   157   1 H        0.926     0.027     2.628     2.535
   158   1 H        0.926     0.017     2.782     2.609
   159   1 H        0.926     0.041     2.438     2.442
   160   1 H        0.926     0.042     2.422     2.434
   161   1 H        0.926     0.041     2.436     2.441
   162   1 H        0.926     0.041     2.437     2.441
   163   1 H        0.926     0.040     2.455     2.450
   164   1 H        0.926     0.027     2.628     2.535

molecular dipole:
                 x           y           z       tot (Debye)
 q only:        0.050      -0.535       0.093
   full:        0.043      -0.617       0.088       1.588

 projected vibrational frequencies (cm⁻¹)
eigval :       -0.00    -0.00    -0.00    -0.00    -0.00     0.00
eigval :      -60.19     3.20     6.84    12.16    12.85    13.14
eigval :       15.03    17.87    20.09    23.93    25.61    28.37
eigval :       28.97    30.73    32.92    36.45    38.23    44.69
eigval :       48.58    54.75    55.67    56.77    57.82    58.66
eigval :       60.52    63.10    64.71    66.64    68.25    69.06
eigval :       71.64    75.62    76.22    80.74    83.57    89.53
eigval :       89.70    90.91    93.08    99.07   108.37   115.39
eigval :      123.79   135.08   150.64   160.08   169.36   170.24
eigval :      175.19   176.92   182.80   188.64   191.27   195.19
eigval :      199.31   201.21   205.87   206.23   206.72   209.11
eigval :      213.34   217.66   218.70   219.79   223.62   226.22
eigval :      228.81   235.38   237.25   240.68   243.32   254.26
eigval :      263.17   264.68   269.60   287.92   288.80   294.19
eigval :      300.84   313.77   314.41   326.06   326.81   334.26
eigval :      345.53   356.04   377.20   378.39   379.16   381.19
eigval :      388.09   397.68   403.40   404.61   408.12   412.57
eigval :      413.83   415.10   416.23   417.11   418.13   421.08
eigval :      425.64   427.32   432.20   444.34   446.29   451.77
eigval :      460.24   461.50   478.41   482.77   488.71   500.70
eigval :      501.31   502.96   504.26   505.07   505.75   509.45
eigval :      518.36   521.54   523.81   531.71   537.00   537.36
eigval :      540.47   540.93   543.34   549.35   553.03   553.85
eigval :      568.94   571.71   579.81   580.99   585.23   590.88
eigval :      594.01   596.28   601.58   607.91   615.75   617.80
eigval :      621.05   624.73   630.25   635.80   640.74   643.76
eigval :      648.66   657.04   658.27   659.24   665.06   665.80
eigval :      671.94   674.29   675.25   677.95   679.30   680.96
eigval :      688.51   701.68   705.35   709.29   710.31   712.07
eigval :      756.16   760.47   771.61   779.39   781.17   782.65
eigval :      786.39   787.70   790.08   796.60   801.92   806.74
eigval :      808.15   809.04   812.06   816.29   819.63   822.45
eigval :      823.27   837.49   841.48   849.39   860.06   862.80
eigval :      867.42   871.91   875.27   876.84   879.22   884.07
eigval :      884.52   884.87   885.03   885.61   886.40   886.51
eigval :      889.41   890.47   894.92   899.55   900.03   901.22
eigval :      907.00   907.70   911.07   918.76   922.25   922.97
eigval :      923.42   925.18   925.92   926.61   927.36   927.83
eigval :      928.34   928.91   929.14   930.55   933.49   937.17
eigval :      958.00   981.20   985.63   985.91   986.86   987.35
eigval :      988.56   990.72   993.54   994.52   997.04   997.95
eigval :     1000.68  1001.41  1013.25  1013.56  1017.04  1019.01
eigval :     1026.92  1027.55  1027.94  1031.04  1031.60  1031.98
eigval :     1032.19  1032.33  1032.56  1034.52  1043.83  1044.31
eigval :     1069.48  1076.84  1077.68  1078.76  1093.90  1105.89
eigval :     1111.13  1111.60  1112.21  1118.35  1125.62  1125.89
eigval :     1131.96  1132.31  1134.17  1134.69  1154.11  1160.43
eigval :     1165.64  1167.24  1176.12  1178.43  1179.01  1180.02
eigval :     1183.57  1184.45  1186.26  1187.05  1187.12  1187.40
eigval :     1190.00  1190.38  1194.96  1204.39  1204.53  1207.46
eigval :     1209.69  1210.64  1224.80  1225.99  1241.13  1249.49
eigval :     1250.02  1254.99  1258.67  1264.17  1267.41  1268.85
eigval :     1271.12  1272.28  1272.43  1272.73  1273.74  1273.99
eigval :     1276.52  1278.51  1283.20  1288.57  1292.18  1299.03
eigval :     1302.13  1306.73  1307.73  1308.26  1309.10  1309.46
eigval :     1311.52  1312.62  1320.42  1320.54  1326.56  1327.22
eigval :     1328.82  1329.27  1329.61  1333.67  1342.40  1342.82
eigval :     1354.51  1354.65  1372.72  1385.43  1400.43  1400.50
eigval :     1400.68  1400.72  1401.18  1401.58  1402.34  1402.81
eigval :     1407.99  1414.34  1418.70  1419.97  1427.45  1431.90
eigval :     1432.17  1433.17  1434.38  1434.86  1436.51  1440.67
eigval :     1444.52  1447.59  1461.68  1464.00  1470.29  1471.13
eigval :     1471.79  1472.84  1474.06  1474.25  1475.27  1475.51
eigval :     1477.44  1477.78  1478.05  1478.57  1478.63  1479.04
eigval :     1479.52  1480.64  1481.42  1482.10  1482.91  1483.53
eigval :     1484.21  1484.86  1484.96  1485.27  1485.85  1486.23
eigval :     1501.67  1535.50  1538.25  1544.72  1546.11  1554.71
eigval :     1562.51  1574.35  1579.16  1579.42  1580.23  1580.52
eigval :     1582.75  1582.76  1583.24  1583.49  1595.19  1595.36
eigval :     1595.49  1595.65  1597.70  1597.82  1601.55  1601.64
eigval :     1601.73  1602.03  2994.24  2996.00  2996.68  2997.16
eigval :     2997.36  2999.98  3001.57  3005.88  3010.43  3011.11
eigval :     3016.47  3020.30  3023.80  3024.29  3026.24  3027.31
eigval :     3034.12  3035.24  3040.69  3041.98  3042.78  3043.50
eigval :     3047.34  3047.82  3061.04  3061.31  3066.58  3066.77
eigval :     3068.04  3068.48  3071.87  3072.49  3072.72  3073.41
eigval :     3074.24  3075.55  3075.65  3076.71  3077.38  3077.79
eigval :     3077.95  3078.03  3078.58  3079.08  3079.31  3079.38
eigval :     3079.57  3079.75  3081.51  3082.26  3084.74  3085.47
eigval :     3086.69  3086.72  3088.30  3088.97  3089.28  3089.55
eigval :     3090.69  3091.93  3094.48  3095.63  3097.07  3097.78
eigval :     3101.04  3101.07  3102.70  3104.02  3104.54  3133.97

   temp. (K)  partition function   enthalpy   heat capacity  entropy
                                   cal/mol     cal/K/mol   cal/K/mol   J/K/mol
 298.15  VIB  0.210E+43            50126.828    299.475    321.290
         ROT  0.553E+09              888.752      2.981     42.987
         INT  0.116E+52            51015.580    302.456    364.276
         TR   0.407E+29             1481.254      4.968     47.126
         TOT                       52496.8343   307.4241   411.4027  1721.3089

       T/K    H(0)-H(T)+PV         H(T)/Eh          T*S/Eh         G(T)/Eh
   ------------------------------------------------------------------------
    298.15    0.836590E-01    0.137802E+01    0.195471E+00    0.118255E+01
   ------------------------------------------------------------------------

         :::::::::::::::::::::::::::::::::::::::::::::::::::::
         ::                  THERMODYNAMIC                  ::
         :::::::::::::::::::::::::::::::::::::::::::::::::::::
         :: total free energy        -238.984861466242 Eh   ::
         ::.................................................::
         :: total energy             -240.167409733813 Eh   ::
         :: zero point energy           1.294359936988 Eh   ::
         :: G(RRHO) w/o ZPVE           -0.111811669418 Eh   ::
         :: G(RRHO) contrib.            1.182548267571 Eh   ::
         :::::::::::::::::::::::::::::::::::::::::::::::::::::

           -------------------------------------------------
          | TOTAL ENERGY             -240.167409733813 Eh   |
          | TOTAL ENTHALPY           -238.789390766239 Eh   |
          | TOTAL FREE ENERGY        -238.984861466242 Eh   |
          | GRADIENT NORM               0.000055940032 Eh/α |
          | HOMO-LUMO GAP               2.203878186867 eV   |
           -------------------------------------------------

 * finished run on 2025/08/22 at 03:39:51.889
