   * xtb version 6.7.1 (edcfbbe) compiled by 'albert@albert-system' on 2024-07-22

   ID    Z sym.   atoms
    1    6 C      1-6, 8-20, 22-33, 35-41, 43-49, 51-57, 59-68, 70-86, 88-94
    2    7 N      7, 21, 42, 58, 69, 87
    3    5 B      34, 50
    4    1 H      95-164

          program call               : xtb data2507/toluene/m-ν-DABNA/m-ν-DABNA_toluene_S0_finalOpt.xtbopt.xyz --gfn 2 --uhf 2 --gbsa toluene --ohess vtight --parallel 40 --molden --ceasefiles --namespace data2507/toluene/m-ν-DABNA/m-ν-DABNA_toluene_T1_preOpt
      * Solvation model:               GBSA
        Solvent                        toluene
        Solvent mass                       9.2140E+01 g/mol
          :  Hamiltonian                  GFN2-xTB          :
 * total energy  :  -240.0825458 Eh     change        0.6117233E-08 Eh
 * total energy  :  -240.0830209 Eh     change       -0.4750535E-03 Eh
 * total energy  :  -240.0831311 Eh     change       -0.1101944E-03 Eh
 * total energy  :  -240.0831444 Eh     change       -0.1329450E-04 Eh
 * total energy  :  -240.0831553 Eh     change       -0.1091672E-04 Eh
 * total energy  :  -240.0831595 Eh     change       -0.4232373E-05 Eh
 * total energy  :  -240.0831693 Eh     change       -0.9814249E-05 Eh
 * total energy  :  -240.0831727 Eh     change       -0.3384942E-05 Eh
 * total energy  :  -240.0831771 Eh     change       -0.4356683E-05 Eh
 * total energy  :  -240.0831817 Eh     change       -0.4599751E-05 Eh
 * total energy  :  -240.0833297 Eh     change       -0.4145145E-06 Eh
 * total energy  :  -240.0833301 Eh     change       -0.4515670E-06 Eh
 * total energy  :  -240.0833306 Eh     change       -0.4481795E-06 Eh
 * total energy  :  -240.0833310 Eh     change       -0.4469570E-06 Eh
 * total energy  :  -240.0833315 Eh     change       -0.4431539E-06 Eh
 * total energy  :  -240.0833320 Eh     change       -0.4879219E-06 Eh
 * total energy  :  -240.0833325 Eh     change       -0.5815612E-06 Eh
 * total energy  :  -240.0833332 Eh     change       -0.7042978E-06 Eh
 * total energy  :  -240.0833332 Eh     change       -0.3169816E-08 Eh
   *** GEOMETRY OPTIMIZATION CONVERGED AFTER 94 ITERATIONS ***

 final structure:
================
164
 xtb: 6.7.1 (edcfbbe)
C          -12.03692650401569       -1.31824814514393       -1.19756440003436
C          -10.62519888840799       -0.95582354123153       -1.55088581936135
C          -10.37021500210070       -0.06994002649033       -2.59414145292141
C           -9.06821130271414        0.26222090364314       -2.92439437496867
C           -8.00546442018883       -0.27900071598850       -2.22771695705532
C           -8.24176143812047       -1.16540155768163       -1.17701558502291
N           -7.17566673637190       -1.70665362326228       -0.45275085588511
C           -7.22743259354150       -3.02304035041274        0.01174620978604
C           -7.82902522508812       -4.02339514636918       -0.75255915673593
C           -7.86829719547721       -5.32088541755757       -0.28046403774823
C           -7.30961685396851       -5.64321302973356        0.94406172501584
C           -6.70341236501494       -4.65902665089511        1.71935197596010
C           -6.13044443908670       -5.00175086799683        3.06231495353237
C           -6.66933549180199       -3.35828984837780        1.24620402082537
C           -6.05090827944286       -0.91298102299459       -0.18403592504226
C           -6.21201630075980        0.43617918528363        0.13450351849755
C           -5.09814411040355        1.23211899445550        0.38956521878300
C           -3.79333839495022        0.69544067224924        0.33907399842505
C           -3.65836961718736       -0.67365812139902        0.01865765202161
C           -4.77463322708832       -1.46621377806216       -0.24147574570585
N           -2.39049665355504       -1.23030167477586       -0.04083392771900
C           -2.30642647209203       -2.63777757710608       -0.26333999264360
C           -2.21546691618995       -3.13790830886640       -1.55651383765562
C           -2.15651116518505       -4.50463421924616       -1.76275611754130
C           -2.18779322670786       -5.37311934275736       -0.68396696550727
C           -2.27156654498887       -4.87368839346855        0.60490628488648
C           -2.33113614243779       -3.50788936997700        0.81855797848579
C           -1.22142474042319       -0.51058810424603        0.04901810939060
C           -0.00755925510398       -1.18388734694772       -0.08658106080668
C            1.21165805164048       -0.50671297078139       -0.08803058088630
C            1.23296587116214        0.91705170584017       -0.05062279638518
C            0.00431165392127        1.54032179656080        0.19045884959985
C           -1.22986945956227        0.89174499509754        0.29753764685897
B           -2.58103267894474        1.56194046748937        0.60863290087413
C           -2.90091981835478        2.97324565512173        1.13637768404638
C           -1.96902396941585        3.87365995173526        1.67588724666457
C           -2.30688450073255        5.14565996003928        2.08123238606035
C           -3.62312467329420        5.59409296261046        1.97427515068448
C           -3.98754277811613        6.98945423286979        2.38458048201680
C           -4.57979775470299        4.71516035730368        1.49729555691054
C           -4.24916330291751        3.41354575405807        1.10542752339612
N           -5.26818876459066        2.56842994337618        0.69568411178369
C           -6.59650868737795        3.08755410584744        0.63136811629405
C           -7.42293287709989        3.04372714995389        1.74634783015887
C           -8.71353083549716        3.53566647329564        1.65410297679655
C           -9.17476451508477        4.06596153372039        0.46276081509451
C           -8.35466051898321        4.11739267137188       -0.65996315653169
C           -8.86018581891279        4.70918338379558       -1.93999248192458
C           -7.06229879591752        3.62125400093692       -0.56267405006457
B            2.58846665361916        1.62488303837202       -0.23327294428995
C            2.91830010318491        3.11182506596210       -0.46443882357795
C            1.98973906776661        4.11397433534828       -0.78659537254310
C            2.33639455456542        5.44017054399766       -0.91942751620369
C            3.65881317776199        5.84498908584602       -0.74092270632865
C            4.03324046275142        7.29303091183067       -0.84578051453775
C            4.61207725210731        4.87658122334052       -0.47851552582548
C            4.27247215291785        3.52395803112387       -0.36743467573945
N            5.28821799993149        2.60253484860995       -0.16814035233774
C            6.62680891028241        3.08444582127366       -0.05220342702750
C            7.15845025694965        3.34734817651604        1.20219698574496
C            8.46241257122925        3.80212595581684        1.30484258912128
C            9.22695059350773        3.99050206146804        0.16817949427984
C            8.70445928322291        3.72868577720518       -1.09516629707278
C            9.54253397669205        3.94269794383111       -2.31835810101725
C            7.39772473689932        3.27369010973722       -1.19249010914608
C            5.10542597009641        1.23379988921007       -0.13271939671669
C            6.21272138405107        0.39344194206649       -0.04285359046911
C            6.04061354139231       -0.99135734707780       -0.01987478128156
N            7.15677982596847       -1.83684990068888        0.04529043953396
C            7.09731860938435       -3.01160373329742        0.80005665158501
C            7.72395425054165       -4.17529471698438        0.35348394801278
C            7.64708158062513       -5.33114988798758        1.10613751896756
C            6.94663757557023       -5.35033318349207        2.29956104333701
C            6.31385528496447       -4.19909401525319        2.76021912181477
C            5.57860486319419       -4.21368070832005        4.06735073180624
C            6.39853646027732       -3.04007550970985        2.00793291375665
C            8.31838954374158       -1.50728482510658       -0.65942998536136
C            8.24073672466193       -0.90246331876699       -1.91397820744895
C            9.39774379342977       -0.57249822731368       -2.59198065558566
C           10.63890342556397       -0.84277246470313       -2.04238272026763
C           10.73587895956812       -1.44969427754433       -0.79371133749788
C           12.07971989306448       -1.72441838796991       -0.18706888105367
C            9.57425318200501       -1.77120680120120       -0.11195961076512
C            4.75823918203127       -1.53186372644794       -0.06633607306771
C            3.64705815898849       -0.69293554234352       -0.11860705879490
C            3.79418206728192        0.71106481763139       -0.16416137636571
N            2.37413593155029       -1.24030319165672       -0.14556848911608
C            2.27832398096419       -2.66456896894501       -0.15762675803180
C            2.15461817425724       -3.36301822345036        1.03700582087041
C            2.08762863034273       -4.74457820107607        1.02304351853758
C            2.14293121134498       -5.43174428723952       -0.17836043413693
C            2.25898682403294       -4.73482912463628       -1.36968039771574
C            2.32759409245072       -3.35265373724086       -1.36322736286859
C           -9.55861832830352       -1.49138594265551       -0.84945052741074
H          -12.06966170817561       -1.92265963835208       -0.29452325376163
H          -12.63365256564689       -0.42059028022937       -1.04220722974763
H          -12.49324643870725       -1.88447106044071       -2.00965948705882
H          -11.19493461745694        0.35654740374975       -3.14640940261548
H           -8.87683348408001        0.94455892670816       -3.74018407258645
H           -6.98948983531257       -0.02435095995638       -2.49120256729631
H           -8.25726151798525       -3.77656186688730       -1.71306160666419
H           -8.33305480996834       -6.09104607768535       -0.87963225073923
H           -7.34419277014579       -6.66162593923470        1.30281265198367
H           -5.56923148636522       -5.93280029057720        3.01381597874536
H           -6.93496050309284       -5.13546579412351        3.78650129743222
H           -5.47700561125414       -4.21069393887494        3.42098930085741
H           -6.20984198860315       -2.58066143582549        1.84001764522705
H           -7.20994107596564        0.84290090103740        0.17585364283188
H           -4.67092669857024       -2.50925014248966       -0.49743858369245
H           -2.19359060764489       -2.45010885223222       -2.38917905177770
H           -2.08833762844152       -4.89146332061719       -2.76871697432991
H           -2.14397250630927       -6.43923174610404       -0.84847391591464
H           -2.28923470164666       -5.54874298942776        1.44717724086881
H           -2.39628932082532       -3.10516717971673        1.81856805999380
H           -0.01201237274109       -2.25645281771504       -0.19655395461851
H            0.00825781066200        2.61004608761327        0.30078182979673
H           -0.94647835274351        3.54985428768385        1.79220795902126
H           -1.54937369499405        5.80648700470807        2.48115599144645
H           -3.45495923953693        7.71570929218416        1.76981761561347
H           -5.05624236328612        7.16130477550609        2.27765241775894
H           -3.70705348922856        7.16676096185659        3.42295345524228
H           -5.60618391179598        5.04769325384239        1.44098141955894
H           -7.05080241499747        2.62655799256584        2.67043127441872
H           -9.36177549360628        3.50284890358565        2.51755569807433
H          -10.18372796258714        4.44697777424509        0.39959786227659
H           -9.01120807594063        5.78220590642715       -1.82162880748135
H           -9.81678007264538        4.26631057310352       -2.21190243270845
H           -8.15336969799602        4.54737883005145       -2.74946020914220
H           -6.40188484362112        3.64463988960061       -1.41774920588658
H            0.96194411939891        3.83128954788383       -0.95201761390381
H            1.58065928940191        6.17677449839068       -1.15749300724456
H            3.67665800186594        7.71266719341428       -1.78622474863379
H            3.57483713322657        7.86097142870995       -0.03522163381658
H            5.11183881366257        7.42222470444380       -0.79091208999556
H            5.64256503733124        5.18162964784624       -0.36864322831212
H            6.55036379528048        3.19547327459738        2.08165724127262
H            8.88166636537171        4.00969618679243        2.27843859797447
H           10.24349533425153        4.34538378192815        0.25700681883825
H            9.82735821336991        4.99120537214174       -2.40072692439527
H           10.45646814837659        3.35356935555862       -2.25760950361255
H            9.00100941506024        3.65765808833395       -3.21633699770011
H            6.96263264056338        3.06188141011511       -2.15884585766772
H            7.21344434318936        0.79264758773752        0.00587630705807
H            8.26267893140359       -4.16564903845465       -0.58281622284373
H            8.13217494508647       -6.22967804179917        0.75182357468427
H            6.88998802589028       -6.26038958339486        2.87892588682760
H            6.28771195025727       -4.26702037880950        4.89401491819629
H            4.92913428781064       -5.08475490348222        4.13112191115810
H            4.97930898377287       -3.31487731126530        4.18777890989245
H            5.92065016755710       -2.13524258422967        2.35629421588453
H            7.27310377224217       -0.70129273582532       -2.34926991764994
H            9.32964947849767       -0.10883579291498       -3.56579540112735
H           11.53800001119965       -0.58512639149707       -2.58314911406841
H           12.51020984219191       -0.80027319151512        0.20011696738096
H           12.76348910704978       -2.12345303938731       -0.93397511786367
H           11.99880765366351       -2.43367070897487        0.63306131111701
H            9.63369919488745       -2.23456331602484        0.86302390141348
H            4.64680173780479       -2.60491290264586       -0.06068793950375
H            2.11158563284807       -2.81539723469951        1.96689292675639
H            1.99213115301309       -5.28541131576114        1.95253307043747
H            2.09288665300745       -6.51021507086664       -0.18661176765097
H            2.29821880142692       -5.26786086759929       -2.30805913119423
H            2.42172348757143       -2.79875379142531       -2.28587192431177
H           -9.74111331812716       -2.17232225362638       -0.02981500752540

          :  Hamiltonian                  GFN2-xTB          :
         :: gradient norm              0.000042201135 Eh/a0 ::
         :: HOMO-LUMO gap              0.299775769868 eV    ::
         :: SCC energy              -244.451260859394 Eh    ::
         :: -> dispersion             -0.246948461116 Eh    ::
         :: -> Gsolv                  -0.097177719458 Eh    ::
         :: repulsion energy           4.367927614265 Eh    ::

    * Orbital Energies and Occupations

         #    Occupation            Energy/Eh            Energy/eV
      -------------------------------------------------------------
         1        2.0000           -0.6630092             -18.0414
       ...           ...                  ...                  ...
       214        2.0000           -0.3787534             -10.3064
       215        2.0000           -0.3759464             -10.2300
       216        2.0000           -0.3756168             -10.2211
       217        2.0000           -0.3702103             -10.0739
       218        2.0000           -0.3658761              -9.9560
       219        2.0000           -0.3591975              -9.7743
       220        2.0000           -0.3570327              -9.7154
       221        2.0000           -0.3484272              -9.4812
       222        1.9996           -0.3436028              -9.3499
       223        1.9943           -0.3410156              -9.2795
       224        1.9276           -0.3385341              -9.2120
       225        1.0785           -0.3337709              -9.0824
       226        0.9969           -0.2465375              -6.7086 (HOMO)
       227        0.0030           -0.2355210              -6.4089 (LUMO)
       228        0.0001           -0.2317131              -6.3052
       229        0.0000           -0.2313919              -6.2965
       230        0.0000           -0.2311133              -6.2889
       231        0.0000           -0.2307035              -6.2778
       232        0.0000           -0.2277654              -6.1978
       233        0.0000           -0.2275641              -6.1923
       234                         -0.2250344              -6.1235
       235                         -0.2250029              -6.1226
       236                         -0.2227729              -6.0620
       237                         -0.2226451              -6.0585
       ...                                ...                  ...
       446                          0.7402456              20.1431
      -------------------------------------------------------------
                  HL-Gap            0.0110166 Eh            0.2998 eV

     #   Z          covCN         q      C6AA      α(0)
     1   6 C        3.758    -0.109    22.636     6.783
     2   6 C        2.965     0.015    27.667     8.628
     3   6 C        2.924    -0.052    29.303     8.877
     4   6 C        2.917    -0.034    28.845     8.807
     5   6 C        2.922    -0.054    29.349     8.884
     6   6 C        2.922     0.065    26.548     8.450
     7   7 N        2.753    -0.083    22.864     7.102
     8   6 C        2.921     0.065    26.548     8.449
     9   6 C        2.922    -0.055    29.373     8.888
    10   6 C        2.917    -0.034    28.854     8.809
    11   6 C        2.924    -0.053    29.307     8.878
    12   6 C        2.965     0.015    27.665     8.627
    13   6 C        3.758    -0.109    22.634     6.783
    14   6 C        2.928    -0.060    29.482     8.905
    15   6 C        2.922     0.055    26.762     8.483
    16   6 C        2.920    -0.082    30.050     8.989
    17   6 C        2.925     0.060    26.665     8.468
    18   6 C        2.896    -0.110    30.789     9.098
    19   6 C        2.925     0.051    26.854     8.498
    20   6 C        2.919    -0.075    29.864     8.962
    21   7 N        2.756    -0.048    22.170     6.993
    22   6 C        2.934     0.070    26.431     8.432
    23   6 C        2.921    -0.037    28.931     8.821
    24   6 C        2.920    -0.028    28.710     8.787
    25   6 C        2.920    -0.031    28.772     8.796
    26   6 C        2.920    -0.027    28.687     8.783
    27   6 C        2.922    -0.037    28.923     8.819
    28   6 C        2.925     0.064    26.573     8.454
    29   6 C        2.921    -0.100    30.507     9.058
    30   6 C        2.925     0.064    26.570     8.453
    31   6 C        2.881    -0.079    29.970     8.975
    32   6 C        2.925    -0.065    29.614     8.924
    33   6 C        2.882    -0.079    29.972     8.975
    34   5 B        2.724     0.157    19.020     7.308
    35   6 C        2.885    -0.082    30.057     8.988
    36   6 C        2.920    -0.046    29.149     8.854
    37   6 C        2.919    -0.051    29.266     8.871
    38   6 C        2.964     0.004    27.921     8.667
    39   6 C        3.757    -0.105    22.556     6.771
    40   6 C        2.925    -0.071    29.765     8.947
    41   6 C        2.924     0.058    26.701     8.474
    42   7 N        2.756    -0.050    22.207     6.999
    43   6 C        2.932     0.068    26.470     8.438
    44   6 C        2.921    -0.043    29.074     8.842
    45   6 C        2.918    -0.031    28.776     8.797
    46   6 C        2.925    -0.042    29.055     8.840
    47   6 C        2.966     0.022    27.514     8.604
    48   6 C        3.758    -0.112    22.687     6.791
    49   6 C        2.927    -0.048    29.185     8.860
    50   5 B        2.724     0.156    19.027     7.309
    51   6 C        2.885    -0.082    30.053     8.988
    52   6 C        2.921    -0.046    29.153     8.854
    53   6 C        2.919    -0.051    29.264     8.871
    54   6 C        2.964     0.004    27.922     8.667
    55   6 C        3.757    -0.105    22.556     6.771
    56   6 C        2.925    -0.071    29.768     8.947
    57   6 C        2.924     0.058    26.702     8.474
    58   7 N        2.756    -0.050    22.198     6.998
    59   6 C        2.932     0.068    26.470     8.438
    60   6 C        2.921    -0.044    29.085     8.844
    61   6 C        2.918    -0.031    28.769     8.796
    62   6 C        2.925    -0.043    29.058     8.840
    63   6 C        2.966     0.021    27.525     8.606
    64   6 C        3.758    -0.112    22.684     6.790
    65   6 C        2.927    -0.047    29.172     8.858
    66   6 C        2.925     0.059    26.666     8.468
    67   6 C        2.920    -0.082    30.057     8.990
    68   6 C        2.921     0.055    26.761     8.483
    69   7 N        2.753    -0.083    22.864     7.102
    70   6 C        2.922     0.065    26.550     8.450
    71   6 C        2.922    -0.055    29.372     8.888
    72   6 C        2.917    -0.034    28.854     8.809
    73   6 C        2.924    -0.053    29.305     8.878
    74   6 C        2.965     0.015    27.663     8.627
    75   6 C        3.758    -0.109    22.633     6.783
    76   6 C        2.928    -0.059    29.473     8.903
    77   6 C        2.922     0.065    26.549     8.450
    78   6 C        2.922    -0.054    29.346     8.884
    79   6 C        2.917    -0.034    28.843     8.807
    80   6 C        2.924    -0.052    29.302     8.877
    81   6 C        2.965     0.015    27.666     8.628
    82   6 C        3.758    -0.109    22.637     6.783
    83   6 C        2.928    -0.060    29.481     8.904
    84   6 C        2.920    -0.075    29.870     8.962
    85   6 C        2.925     0.051    26.853     8.498
    86   6 C        2.895    -0.110    30.790     9.098
    87   7 N        2.756    -0.048    22.163     6.992
    88   6 C        2.934     0.070    26.432     8.432
    89   6 C        2.922    -0.037    28.910     8.817
    90   6 C        2.920    -0.028    28.691     8.784
    91   6 C        2.920    -0.031    28.775     8.797
    92   6 C        2.920    -0.028    28.709     8.787
    93   6 C        2.921    -0.038    28.946     8.823
    94   6 C        2.928    -0.060    29.481     8.904
    95   1 H        0.925     0.042     2.428     2.437
    96   1 H        0.925     0.047     2.352     2.398
    97   1 H        0.925     0.048     2.340     2.392
    98   1 H        0.926     0.029     2.595     2.519
    99   1 H        0.926     0.029     2.595     2.519
   100   1 H        0.926     0.026     2.648     2.545
   101   1 H        0.926     0.026     2.649     2.545
   102   1 H        0.926     0.028     2.615     2.529
   103   1 H        0.926     0.029     2.599     2.521
   104   1 H        0.925     0.047     2.356     2.400
   105   1 H        0.924     0.049     2.336     2.390
   106   1 H        0.925     0.042     2.417     2.431
   107   1 H        0.926     0.028     2.616     2.529
   108   1 H        0.926     0.021     2.721     2.580
   109   1 H        0.926     0.022     2.702     2.571
   110   1 H        0.926     0.041     2.442     2.444
   111   1 H        0.926     0.042     2.422     2.434
   112   1 H        0.926     0.042     2.419     2.432
   113   1 H        0.926     0.044     2.393     2.419
   114   1 H        0.926     0.042     2.426     2.436
   115   1 H        0.926     0.008     2.919     2.672
   116   1 H        0.926     0.026     2.643     2.542
   117   1 H        0.926     0.026     2.644     2.543
   118   1 H        0.925     0.014     2.820     2.626
   119   1 H        0.924     0.041     2.438     2.442
   120   1 H        0.925     0.035     2.513     2.479
   121   1 H        0.925     0.040     2.445     2.445
   122   1 H        0.926     0.015     2.807     2.620
   123   1 H        0.926     0.037     2.486     2.465
   124   1 H        0.926     0.039     2.464     2.455
   125   1 H        0.926     0.041     2.438     2.442
   126   1 H        0.925     0.055     2.261     2.352
   127   1 H        0.925     0.053     2.279     2.361
   128   1 H        0.925     0.047     2.355     2.400
   129   1 H        0.926     0.039     2.459     2.452
   130   1 H        0.926     0.026     2.642     2.542
   131   1 H        0.925     0.014     2.820     2.626
   132   1 H        0.925     0.040     2.446     2.446
   133   1 H        0.924     0.041     2.439     2.442
   134   1 H        0.925     0.035     2.510     2.478
   135   1 H        0.926     0.015     2.803     2.618
   136   1 H        0.926     0.037     2.484     2.465
   137   1 H        0.926     0.039     2.460     2.453
   138   1 H        0.926     0.041     2.438     2.441
   139   1 H        0.925     0.054     2.269     2.355
   140   1 H        0.925     0.054     2.272     2.357
   141   1 H        0.925     0.047     2.358     2.401
   142   1 H        0.926     0.039     2.460     2.453
   143   1 H        0.926     0.021     2.718     2.578
   144   1 H        0.926     0.026     2.650     2.546
   145   1 H        0.926     0.028     2.614     2.528
   146   1 H        0.926     0.029     2.596     2.519
   147   1 H        0.924     0.049     2.337     2.391
   148   1 H        0.925     0.048     2.351     2.398
   149   1 H        0.925     0.042     2.422     2.434
   150   1 H        0.926     0.028     2.612     2.527
   151   1 H        0.926     0.026     2.645     2.543
   152   1 H        0.926     0.029     2.598     2.520
   153   1 H        0.926     0.029     2.598     2.521
   154   1 H        0.924     0.049     2.334     2.389
   155   1 H        0.925     0.046     2.365     2.405
   156   1 H        0.925     0.042     2.422     2.434
   157   1 H        0.926     0.027     2.623     2.533
   158   1 H        0.926     0.022     2.697     2.568
   159   1 H        0.926     0.042     2.424     2.435
   160   1 H        0.926     0.044     2.400     2.423
   161   1 H        0.926     0.042     2.419     2.432
   162   1 H        0.926     0.042     2.419     2.432
   163   1 H        0.926     0.041     2.440     2.443
   164   1 H        0.926     0.027     2.624     2.533

molecular dipole:
                 x           y           z       tot (Debye)
 q only:        0.047      -1.190      -0.002
   full:        0.039      -1.252      -0.009       3.184

 projected vibrational frequencies (cm⁻¹)
eigval :       -0.00    -0.00     0.00     0.00     0.00     0.00
eigval :       -2.04     5.92     9.11    14.00    14.67    15.48
eigval :       16.04    17.22    20.59    23.77    25.79    28.82
eigval :       32.45    33.29    34.16    38.94    40.74    45.78
eigval :       50.51    51.06    56.03    57.48    59.57    59.75
eigval :       61.28    66.10    68.64    70.36    71.96    74.33
eigval :       79.20    79.92    82.42    85.69    88.71    89.99
eigval :       92.20    92.57    96.66   106.41   108.42   118.95
eigval :      123.86   134.41   149.82   159.28   168.06   168.70
eigval :      175.32   176.56   181.82   187.22   189.89   195.52
eigval :      197.90   203.75   204.49   205.03   206.09   207.08
eigval :      212.01   218.27   220.02   220.81   223.01   225.66
eigval :      228.10   235.23   236.65   240.54   241.90   247.44
eigval :      263.04   264.20   267.45   286.91   288.66   291.91
eigval :      300.32   311.43   315.52   325.28   325.94   334.03
eigval :      346.53   358.61   372.63   376.64   379.07   380.17
eigval :      382.45   390.89   394.45   397.55   407.98   413.43
eigval :      414.26   415.08   415.74   416.34   417.57   420.13
eigval :      425.85   426.11   432.36   440.43   445.64   447.36
eigval :      458.05   460.46   476.29   480.70   488.07   500.21
eigval :      500.76   502.61   503.97   504.50   505.61   508.87
eigval :      515.36   518.99   519.93   522.34   530.68   533.08
eigval :      533.51   535.81   538.63   541.23   541.67   545.52
eigval :      551.27   555.83   570.10   571.22   582.47   589.03
eigval :      592.90   594.93   599.13   604.66   609.65   610.96
eigval :      618.36   621.57   626.74   629.63   637.68   640.71
eigval :      646.99   655.46   656.68   657.32   663.35   663.85
eigval :      664.21   669.68   670.05   672.75   673.45   678.04
eigval :      681.63   695.53   699.53   701.38   707.92   708.91
eigval :      753.64   760.08   771.00   780.19   780.57   782.13
eigval :      784.87   789.17   792.00   793.33   797.39   798.47
eigval :      801.85   804.34   805.24   807.00   807.37   808.89
eigval :      821.05   834.40   837.02   839.14   846.63   854.64
eigval :      856.60   860.34   875.42   877.66   881.08   882.43
eigval :      882.64   883.72   883.77   884.00   886.48   886.71
eigval :      888.92   892.91   893.24   896.09   898.59   900.93
eigval :      902.81   903.24   906.97   912.15   916.61   919.54
eigval :      923.13   925.02   925.60   925.91   928.31   928.36
eigval :      928.98   929.35   930.39   933.90   934.34   938.95
eigval :      955.76   979.27   984.82   985.12   986.04   986.20
eigval :      987.58   988.99   989.64   992.88   995.81   997.11
eigval :     1000.04  1000.83  1011.87  1013.70  1015.76  1017.76
eigval :     1023.77  1025.12  1026.74  1030.60  1031.58  1032.28
eigval :     1032.32  1032.55  1032.91  1035.31  1042.59  1043.14
eigval :     1061.82  1070.42  1077.52  1078.80  1086.11  1101.34
eigval :     1106.77  1111.70  1113.37  1114.50  1125.72  1125.87
eigval :     1130.38  1132.49  1133.10  1133.21  1148.10  1156.32
eigval :     1161.17  1161.80  1176.11  1177.71  1177.80  1179.43
eigval :     1183.36  1184.06  1184.75  1185.74  1187.08  1187.25
eigval :     1189.01  1189.95  1192.67  1202.33  1204.35  1204.74
eigval :     1207.29  1208.62  1217.86  1223.33  1224.68  1240.66
eigval :     1245.81  1250.10  1254.52  1257.97  1263.95  1267.28
eigval :     1269.29  1269.63  1270.96  1271.24  1272.10  1272.88
eigval :     1274.15  1274.46  1274.82  1281.64  1286.94  1294.10
eigval :     1294.96  1300.84  1302.64  1303.50  1308.78  1309.02
eigval :     1311.11  1311.43  1320.37  1321.07  1321.63  1324.92
eigval :     1325.39  1328.88  1330.20  1330.41  1334.26  1345.96
eigval :     1352.26  1353.66  1361.98  1367.19  1369.78  1385.94
eigval :     1392.39  1400.48  1400.82  1400.91  1401.03  1401.33
eigval :     1401.37  1403.06  1403.95  1404.51  1405.34  1410.14
eigval :     1416.11  1416.71  1430.97  1431.63  1431.86  1432.22
eigval :     1432.77  1433.23  1442.71  1443.34  1453.39  1455.32
eigval :     1466.36  1468.23  1470.67  1471.38  1472.55  1473.05
eigval :     1474.77  1475.59  1476.11  1476.50  1477.01  1477.31
eigval :     1477.85  1478.85  1479.26  1480.44  1481.00  1482.26
eigval :     1482.44  1483.23  1483.49  1484.34  1484.51  1485.14
eigval :     1485.50  1485.67  1497.21  1498.77  1504.72  1513.03
eigval :     1524.94  1524.99  1563.00  1571.06  1572.44  1572.86
eigval :     1574.00  1574.07  1579.66  1580.53  1581.42  1581.70
eigval :     1589.43  1589.58  1591.47  1591.79  1595.21  1596.45
eigval :     1596.91  1597.19  2988.06  2989.79  2994.21  2994.30
eigval :     2997.43  2998.57  3002.62  3004.51  3006.08  3007.22
eigval :     3016.87  3020.46  3022.50  3024.74  3025.75  3027.05
eigval :     3032.01  3032.86  3039.85  3041.06  3042.52  3042.79
eigval :     3047.81  3047.85  3054.91  3055.38  3066.18  3066.20
eigval :     3066.80  3068.46  3072.04  3072.49  3072.87  3073.24
eigval :     3073.84  3075.19  3076.73  3077.34  3077.78  3078.06
eigval :     3078.34  3078.52  3078.61  3079.03  3079.56  3080.19
eigval :     3080.91  3080.99  3082.58  3083.60  3086.30  3086.67
eigval :     3086.68  3086.77  3087.67  3089.00  3090.20  3090.87
eigval :     3091.45  3093.22  3095.59  3097.90  3098.04  3098.18
eigval :     3098.75  3098.87  3103.24  3103.73  3108.49  3139.39

   temp. (K)  partition function   enthalpy   heat capacity  entropy
                                   cal/mol     cal/K/mol   cal/K/mol   J/K/mol
 298.15  VIB  0.230E+44            50790.900    302.459    326.472
         ROT  0.554E+09              888.752      2.981     42.991
         INT  0.127E+53            51679.653    305.440    369.463
         TR   0.407E+29             1481.254      4.968     47.126
         TOT                       53160.9066   310.4077   416.5893  1743.0094

       T/K    H(0)-H(T)+PV         H(T)/Eh          T*S/Eh         G(T)/Eh
   ------------------------------------------------------------------------
    298.15    0.847173E-01    0.137560E+01    0.197935E+00    0.117767E+01
   ------------------------------------------------------------------------

         :::::::::::::::::::::::::::::::::::::::::::::::::::::
         ::                  THERMODYNAMIC                  ::
         :::::::::::::::::::::::::::::::::::::::::::::::::::::
         :: total free energy        -238.905663700666 Eh   ::
         ::.................................................::
         :: total energy             -240.083333243561 Eh   ::
         :: zero point energy           1.290887243787 Eh   ::
         :: G(RRHO) w/o ZPVE           -0.113217700892 Eh   ::
         :: G(RRHO) contrib.            1.177669542895 Eh   ::
         :::::::::::::::::::::::::::::::::::::::::::::::::::::

           -------------------------------------------------
          | TOTAL ENERGY             -240.083333243561 Eh   |
          | TOTAL ENTHALPY           -238.707728702540 Eh   |
          | TOTAL FREE ENERGY        -238.905663700666 Eh   |
          | GRADIENT NORM               0.000042964977 Eh/α |
          | HOMO-LUMO GAP               0.299775679840 eV   |
           -------------------------------------------------

 * finished run on 2025/08/22 at 03:40:48.651
