   * xtb version 6.7.1 (edcfbbe) compiled by 'albert@albert-system' on 2024-07-22

   ID    Z sym.   atoms
    1    6 C      1-6, 8-20, 22-33, 35-41, 43-49, 51-57, 59-68, 70-86, 88-94
    2    7 N      7, 21, 42, 58, 69, 87
    3    5 B      34, 50
    4    1 H      95-164

          program call               : xtb data2507/toluene/m-ν-DABNA/m-ν-DABNA_toluene_T1_crest.xyz --gfn 2 --uhf 2 --gbsa toluene --ohess vtight --parallel 40 --molden --ceasefiles --namespace data2507/toluene/m-ν-DABNA/m-ν-DABNA_toluene_T1_finalOpt
      * Solvation model:               GBSA
        Solvent                        toluene
        Solvent mass                       9.2140E+01 g/mol
          :  Hamiltonian                  GFN2-xTB          :
 * total energy  :  -240.0795726 Eh     change       -0.2207059E-08 Eh
 * total energy  :  -240.0797178 Eh     change       -0.1452464E-03 Eh
 * total energy  :  -240.0799329 Eh     change       -0.2151030E-03 Eh
 * total energy  :  -240.0800793 Eh     change       -0.1464211E-03 Eh
 * total energy  :  -240.0803196 Eh     change       -0.2402794E-03 Eh
 * total energy  :  -240.0806220 Eh     change       -0.3023252E-03 Eh
 * total energy  :  -240.0808748 Eh     change       -0.2528158E-03 Eh
 * total energy  :  -240.0810621 Eh     change       -0.1873036E-03 Eh
 * total energy  :  -240.0812238 Eh     change       -0.1617459E-03 Eh
 * total energy  :  -240.0813958 Eh     change       -0.1719993E-03 Eh
 * total energy  :  -240.0833424 Eh     change       -0.3967178E-06 Eh
 * total energy  :  -240.0833430 Eh     change       -0.5514196E-06 Eh
 * total energy  :  -240.0833437 Eh     change       -0.7026112E-06 Eh
 * total energy  :  -240.0833446 Eh     change       -0.8965035E-06 Eh
 * total energy  :  -240.0833448 Eh     change       -0.2176521E-06 Eh
 * total energy  :  -240.0833453 Eh     change       -0.4435591E-06 Eh
 * total energy  :  -240.0833452 Eh     change        0.1029485E-06 Eh
 * total energy  :  -240.0833455 Eh     change       -0.3088366E-06 Eh
 * total energy  :  -240.0833455 Eh     change       -0.2679684E-08 Eh
   *** GEOMETRY OPTIMIZATION CONVERGED AFTER 98 ITERATIONS ***

 final structure:
================
164
 xtb: 6.7.1 (edcfbbe)
C          -12.03331793173203       -1.30017068297278       -1.21244204149476
C          -10.62474350817974       -0.94010004620886       -1.58076549111442
C          -10.37731520842178       -0.01723315482072       -2.59290373469029
C           -9.07753092273135        0.32853926444405       -2.91906742339518
C           -8.00992062600806       -0.23540407040859       -2.24869709370530
C           -8.23876818800695       -1.15889178137393       -1.22860654912327
N           -7.16722576532765       -1.72454216169551       -0.53107255829928
C           -7.21375152426258       -3.05766454102954       -0.11688950004154
C           -7.81646776337181       -4.02931389285666       -0.91658649997670
C           -7.85152367029585       -5.34392358275844       -0.49422652011960
C           -7.28714639209829       -5.71160619286416        0.71482135561794
C           -6.68003181106116       -4.75646736432963        1.52493544055821
C           -6.10174794206268       -5.14910651433497        2.85187104182940
C           -6.65025410013046       -3.43851713714857        1.10174384916223
C           -6.04484494853184       -0.93683589916450       -0.23664573158513
C           -6.21133424907825        0.39890880865503        0.13175649075513
C           -5.10031387560243        1.19150987780479        0.40849969467002
C           -3.79300976961714        0.66434500519451        0.33057043724812
C           -3.65267449091144       -0.69263236076678       -0.03576707610764
C           -4.76616333462744       -1.48139983295915       -0.31864025575535
N           -2.38225072953367       -1.24068473163066       -0.11787217791605
C           -2.29192404581933       -2.63955186510129       -0.38703787343150
C           -2.19233847189865       -3.09549265076848       -1.69581271349513
C           -2.12795446543739       -4.45433303752155       -1.94767873840250
C           -2.16200880372032       -5.35894735974088       -0.89909459861962
C           -2.25366174159741       -4.90344425600443        0.40546911471879
C           -2.31883955437947       -3.54583473077483        0.66473434171178
C           -1.21630726492903       -0.51871120449274       -0.00837980502899
C            0.00071137255254       -1.18298922954550       -0.15972012790874
C            1.21647622200004       -0.49983858056688       -0.14289704093814
C            1.22969618013886        0.92314922874279       -0.07944095974201
C           -0.00134599713697        1.53497780366505        0.17793999681766
C           -1.23107635773214        0.87677351444338        0.27648389498472
B           -2.58361877738058        1.52955014449289        0.61664286120631
C           -2.90691653683861        2.92058222704229        1.19349821419151
C           -1.97493232296197        3.80859791903436        1.75295774601300
C           -2.31676294384311        5.06334221269099        2.20613203980467
C           -3.63724904716675        5.50544894571266        2.13012080225909
C           -4.00708177454927        6.88334685125417        2.59138025115988
C           -4.59325653451255        4.63688498162729        1.63313288852296
C           -4.25829627582690        3.35223049691678        1.19220902690600
N           -5.27589297741249        2.51488537249130        0.76343310245614
C           -6.60832797628864        3.02636612928659        0.73298479305705
C           -7.42226275184354        2.93249036530984        1.85400858518350
C           -8.71664605559037        3.41958787870833        1.79536994294644
C           -9.19384704306767        3.99441884660427        0.63130991433488
C           -8.38682735390471        4.09459405971523       -0.49766138142304
C           -8.91111286491899        4.73167309572722       -1.74804269993306
C           -7.09049264682479        3.60338884680080       -0.43411536060668
B            2.58065233998491        1.64122993727087       -0.25353846714960
C            2.90098825217161        3.13243165343075       -0.46810519908177
C            1.96570054010801        4.13123556064149       -0.78090803322579
C            2.30429200407846        5.46047016762545       -0.90373605901663
C            3.62481076522420        5.87150076444158       -0.72509694679635
C            3.99082727508247        7.32221983425990       -0.82261195261770
C            4.58414702299649        4.90703695024683       -0.47030179247954
C            4.25255732702128        3.55181790073395       -0.36731626842872
N            5.27340634324275        2.63508230125405       -0.17195909200278
C            6.60801414786448        3.12506951368365       -0.04437969235610
C            7.12702038725529        3.39066541431929        1.21473105247895
C            8.42703656227892        3.85389319655655        1.32893605274081
C            9.20000931925553        4.04828553792081        0.19903069163269
C            8.69015834618907        3.78403247169165       -1.06895972674038
C            9.53687931970141        4.00587680665706       -2.28473670034869
C            7.38742450806757        3.32021513189264       -1.17784899759749
C            5.09932536038645        1.26494947791199       -0.14843521453290
C            6.21103982593297        0.43072822390430       -0.05581588940586
C            6.04714442169580       -0.95522536830301       -0.04334275498038
N            7.16734100299983       -1.79457184910494        0.03043297923016
C            7.10509104211797       -2.97379595769158        0.77803131592770
C            7.74290797912976       -4.13176073396233        0.33247572471909
C            7.66215703258022       -5.29241872839077        1.07731749291605
C            6.94708132783455       -5.32195126007811        2.26181522234791
C            6.30349010791163       -4.17632874778636        2.72158721404946
C            5.55245460724076       -4.20207768249952        4.01956777412123
C            6.39199995467992       -3.01251909829056        1.97721353187200
C            8.33651525415954       -1.45402098262707       -0.65631771737782
C            8.27251096891297       -0.84452170509622       -1.90931056870517
C            9.43679926682247       -0.50445801901752       -2.56968076130481
C           10.67180918562811       -0.76857573123288       -2.00353325513586
C           10.75520587166983       -1.37994427473942       -0.75602349993677
C           12.09232144016627       -1.64838759435099       -0.13196203834088
C            9.58623876815067       -1.71208458028932       -0.09219787756210
C            4.76868772645700       -1.50341191204681       -0.10728250526282
C            3.65285861161520       -0.67105872435927       -0.16329841331736
C            3.79173957877861        0.73415842134882       -0.19307609319944
N            2.38341313662776       -1.22565230652704       -0.20813533332100
C            2.29591023515298       -2.65003719742945       -0.24218648245461
C            2.16165515074198       -3.36635976075749        0.94073532943256
C            2.10205550082943       -4.74783755515613        0.90608842737793
C            2.17456993937829       -5.41723188642905       -0.30445919823616
C            2.30156809851479       -4.70260309523845       -1.48410727095517
C            2.36343773342444       -3.32033668536112       -1.45691672078927
C           -9.55282042940440       -1.49852964917050       -0.90513103395847
H          -12.49369000175720       -0.48446500983653       -0.65400409653312
H          -12.63115177865925       -1.47133256687542       -2.10586315319624
H          -12.05770619787673       -2.19460758948619       -0.59471554662111
H          -11.20557094554899        0.42723170836648       -3.12536124309029
H           -8.89209333638648        1.03870794539917       -3.71219891061083
H           -6.99585346891538        0.02905872805815       -2.50979317294235
H           -8.24903671608643       -3.74653311565999       -1.86517938616095
H           -8.31709317657312       -6.09160988380618       -1.12060995517829
H           -7.31813977698198       -6.74304764046141        1.03449822607400
H           -5.54115535370557       -6.07784200492061        2.76639114425312
H           -6.90335005372651       -5.30956561688115        3.57384141550479
H           -5.44663739296382       -4.37209583302089        3.23716417247313
H           -6.19047873102697       -2.68295086357424        1.72314512523289
H           -7.21116241885072        0.79840646028877        0.19278609888539
H           -4.65841288999927       -2.51421670907408       -0.61172765332124
H           -2.16858111981319       -2.38036942566954       -2.50511970241752
H           -2.05343865482172       -4.80666044146112       -2.96578519345483
H           -2.11417306563099       -6.41878554016092       -1.09926285609741
H           -2.27289635726274       -5.60648965043910        1.22448379625046
H           -2.39020180520625       -3.17726551255143        1.67743143863828
H            0.00181695738454       -2.25276380848519       -0.29439993296131
H           -0.00273171154788        2.60227671442148        0.31100281458556
H           -0.94884199745043        3.48833914624022        1.84572028773579
H           -1.55920297537425        5.71528448743046        2.62028493046411
H           -5.08294831556632        7.03561105478088        2.54221180919071
H           -3.67708196985946        7.04341271597292        3.61772896885215
H           -3.52146554901588        7.63413807669819        1.96696478009281
H           -5.62247547791147        4.96374103587204        1.60014289298810
H           -7.03744330105125        2.48115209968326        2.75660358688616
H           -9.35497378099574        3.34861555194848        2.66391136312479
H          -10.20547447207011        4.37184467466548        0.59437707468994
H           -9.07696971524877        5.79638989643759       -1.58410153374349
H           -9.86331977761988        4.28603840106612       -2.03083547857572
H           -8.20876157396516        4.61381009477930       -2.56884787050681
H           -6.43967860800591        3.66411185259945       -1.29474064791563
H            0.93954004819697        3.84305025619423       -0.94733691632737
H            1.54398647636955        6.19452038252884       -1.13507246887963
H            3.64587735675921        7.74023062948545       -1.76819622220535
H            3.51618428499955        7.88631482510008       -0.01884233919841
H            5.06758472524980        7.45863783522651       -0.75151933802300
H            5.61297036434579        5.21744554204874       -0.35974597089642
H            6.51228010822703        3.23429889686083        2.08875375150795
H            8.83656257532381        4.06352273970588        2.30622156891012
H           10.21324478895577        4.41018228540352        0.29689064817608
H            9.00764983811012        3.71144326081054       -3.18699412848091
H            9.80826434126140        5.05794275306990       -2.36725789464089
H           10.45800767054920        3.42938958394646       -2.21377903429150
H            6.96209112311484        3.10625588539022       -2.14808071296528
H            7.20878769258805        0.83565413615404        0.00512062888182
H            8.29325743095791       -4.11384386881546       -0.59691675385681
H            8.15591062349843       -6.18655978850918        0.72386799662374
H            6.88740981378720       -6.23569566430189        2.83503001697480
H            6.25162439458270       -4.26130389226359        4.85423957710841
H            4.90315431257585       -5.07426149513563        4.06858360137245
H            4.95064057883414       -3.30491820226577        4.13984554752934
H            5.90608802425066       -2.11178885775210        2.32508073172892
H            7.30978285293269       -0.64799186841211       -2.35743014982339
H            9.37944085447240       -0.03728578370745       -3.54250415870526
H           11.57677003446177       -0.50262663105943       -2.53031482707556
H           12.78683006992734       -2.04637710278937       -0.86950654752610
H           12.00386820486995       -2.35638050607932        0.68847074819093
H           12.51459400250319       -0.72187882509190        0.25857813360410
H            9.63486641516416       -2.17934583229584        0.88152432270470
H            4.66372468557907       -2.57713634814072       -0.10978631820349
H            2.10475141097092       -2.83237147997572        1.87778050681170
H            1.99879183377115       -5.30256377711540        1.82652969991729
H            2.12961693546241       -6.49567938244843       -0.32875479679855
H            2.35424414383262       -5.22176770627546       -2.42958842046267
H            2.46601824516952       -2.75271314225758       -2.37024602695296
H           -9.72959910057651       -2.20879749783156       -0.10947124304500

          :  Hamiltonian                  GFN2-xTB          :
         :: gradient norm              0.000149978559 Eh/a0 ::
         :: HOMO-LUMO gap              0.298688938692 eV    ::
         :: SCC energy              -244.451335602477 Eh    ::
         :: -> dispersion             -0.246865690283 Eh    ::
         :: -> Gsolv                  -0.097211614551 Eh    ::
         :: repulsion energy           4.367990135956 Eh    ::

    * Orbital Energies and Occupations

         #    Occupation            Energy/Eh            Energy/eV
      -------------------------------------------------------------
         1        2.0000           -0.6629754             -18.0405
       ...           ...                  ...                  ...
       214        2.0000           -0.3787940             -10.3075
       215        2.0000           -0.3759576             -10.2303
       216        2.0000           -0.3756312             -10.2214
       217        2.0000           -0.3702552             -10.0752
       218        2.0000           -0.3659525              -9.9581
       219        2.0000           -0.3591995              -9.7743
       220        2.0000           -0.3570186              -9.7150
       221        2.0000           -0.3484195              -9.4810
       222        1.9996           -0.3436181              -9.3503
       223        1.9944           -0.3410220              -9.2797
       224        1.9282           -0.3385391              -9.2121
       225        1.0778           -0.3337579              -9.0820
       226        0.9968           -0.2465603              -6.7092 (HOMO)
       227        0.0030           -0.2355837              -6.4106 (LUMO)
       228        0.0001           -0.2316898              -6.3046
       229        0.0000           -0.2312917              -6.2938
       230        0.0000           -0.2310676              -6.2877
       231        0.0000           -0.2306762              -6.2770
       232        0.0000           -0.2277771              -6.1981
       233        0.0000           -0.2276363              -6.1943
       234                         -0.2250789              -6.1247
       235                         -0.2250300              -6.1234
       236                         -0.2227854              -6.0623
       237                         -0.2226185              -6.0578
       ...                                ...                  ...
       446                          0.7403154              20.1450
      -------------------------------------------------------------
                  HL-Gap            0.0109766 Eh            0.2987 eV

     #   Z          covCN         q      C6AA      α(0)
     1   6 C        3.758    -0.109    22.637     6.783
     2   6 C        2.965     0.015    27.666     8.628
     3   6 C        2.924    -0.052    29.300     8.877
     4   6 C        2.917    -0.034    28.845     8.807
     5   6 C        2.922    -0.054    29.346     8.884
     6   6 C        2.923     0.065    26.547     8.449
     7   7 N        2.753    -0.084    22.866     7.102
     8   6 C        2.921     0.065    26.547     8.449
     9   6 C        2.922    -0.055    29.375     8.888
    10   6 C        2.917    -0.034    28.855     8.809
    11   6 C        2.924    -0.053    29.308     8.878
    12   6 C        2.965     0.015    27.665     8.627
    13   6 C        3.758    -0.109    22.634     6.783
    14   6 C        2.928    -0.060    29.482     8.905
    15   6 C        2.922     0.055    26.761     8.483
    16   6 C        2.920    -0.082    30.052     8.990
    17   6 C        2.925     0.060    26.665     8.468
    18   6 C        2.896    -0.110    30.789     9.098
    19   6 C        2.925     0.051    26.855     8.498
    20   6 C        2.919    -0.075    29.864     8.961
    21   7 N        2.756    -0.048    22.168     6.993
    22   6 C        2.934     0.070    26.432     8.432
    23   6 C        2.921    -0.037    28.931     8.821
    24   6 C        2.920    -0.028    28.710     8.787
    25   6 C        2.920    -0.031    28.773     8.796
    26   6 C        2.920    -0.027    28.687     8.783
    27   6 C        2.922    -0.037    28.923     8.819
    28   6 C        2.925     0.064    26.572     8.453
    29   6 C        2.921    -0.100    30.507     9.058
    30   6 C        2.925     0.064    26.569     8.453
    31   6 C        2.882    -0.079    29.969     8.975
    32   6 C        2.924    -0.065    29.611     8.924
    33   6 C        2.882    -0.079    29.970     8.975
    34   5 B        2.724     0.157    19.021     7.308
    35   6 C        2.885    -0.082    30.057     8.988
    36   6 C        2.920    -0.046    29.149     8.854
    37   6 C        2.918    -0.051    29.266     8.871
    38   6 C        2.964     0.004    27.921     8.667
    39   6 C        3.757    -0.105    22.556     6.771
    40   6 C        2.925    -0.071    29.766     8.947
    41   6 C        2.924     0.058    26.702     8.474
    42   7 N        2.756    -0.050    22.207     6.999
    43   6 C        2.932     0.068    26.469     8.437
    44   6 C        2.921    -0.043    29.075     8.842
    45   6 C        2.918    -0.031    28.777     8.797
    46   6 C        2.925    -0.043    29.056     8.840
    47   6 C        2.966     0.022    27.514     8.604
    48   6 C        3.758    -0.112    22.688     6.791
    49   6 C        2.927    -0.048    29.185     8.859
    50   5 B        2.724     0.156    19.025     7.309
    51   6 C        2.885    -0.082    30.054     8.988
    52   6 C        2.920    -0.046    29.152     8.854
    53   6 C        2.919    -0.051    29.264     8.871
    54   6 C        2.964     0.004    27.922     8.667
    55   6 C        3.757    -0.105    22.557     6.771
    56   6 C        2.925    -0.071    29.767     8.947
    57   6 C        2.924     0.058    26.702     8.474
    58   7 N        2.756    -0.050    22.199     6.998
    59   6 C        2.932     0.068    26.469     8.438
    60   6 C        2.921    -0.044    29.085     8.844
    61   6 C        2.918    -0.031    28.769     8.796
    62   6 C        2.925    -0.043    29.057     8.840
    63   6 C        2.966     0.021    27.525     8.606
    64   6 C        3.758    -0.112    22.684     6.790
    65   6 C        2.927    -0.047    29.173     8.858
    66   6 C        2.925     0.060    26.665     8.468
    67   6 C        2.920    -0.082    30.059     8.991
    68   6 C        2.921     0.055    26.760     8.483
    69   7 N        2.753    -0.083    22.865     7.102
    70   6 C        2.922     0.065    26.549     8.450
    71   6 C        2.922    -0.055    29.372     8.888
    72   6 C        2.917    -0.034    28.854     8.809
    73   6 C        2.924    -0.053    29.305     8.877
    74   6 C        2.965     0.015    27.663     8.627
    75   6 C        3.758    -0.109    22.633     6.783
    76   6 C        2.928    -0.059    29.472     8.903
    77   6 C        2.922     0.065    26.548     8.450
    78   6 C        2.922    -0.054    29.346     8.884
    79   6 C        2.917    -0.034    28.843     8.807
    80   6 C        2.924    -0.052    29.301     8.877
    81   6 C        2.965     0.015    27.666     8.628
    82   6 C        3.758    -0.109    22.637     6.783
    83   6 C        2.928    -0.060    29.480     8.904
    84   6 C        2.920    -0.075    29.868     8.962
    85   6 C        2.925     0.051    26.854     8.498
    86   6 C        2.895    -0.110    30.790     9.098
    87   7 N        2.756    -0.048    22.163     6.992
    88   6 C        2.934     0.070    26.434     8.432
    89   6 C        2.922    -0.037    28.909     8.817
    90   6 C        2.920    -0.028    28.692     8.784
    91   6 C        2.920    -0.031    28.776     8.797
    92   6 C        2.920    -0.028    28.709     8.787
    93   6 C        2.921    -0.038    28.947     8.823
    94   6 C        2.928    -0.060    29.481     8.904
    95   1 H        0.924     0.049     2.334     2.389
    96   1 H        0.925     0.047     2.362     2.403
    97   1 H        0.925     0.042     2.423     2.434
    98   1 H        0.926     0.029     2.596     2.520
    99   1 H        0.926     0.029     2.595     2.519
   100   1 H        0.926     0.026     2.647     2.544
   101   1 H        0.926     0.026     2.650     2.546
   102   1 H        0.926     0.028     2.617     2.530
   103   1 H        0.926     0.029     2.599     2.521
   104   1 H        0.925     0.047     2.356     2.401
   105   1 H        0.924     0.049     2.336     2.390
   106   1 H        0.925     0.042     2.417     2.431
   107   1 H        0.926     0.028     2.615     2.529
   108   1 H        0.926     0.021     2.722     2.580
   109   1 H        0.926     0.022     2.702     2.571
   110   1 H        0.926     0.041     2.442     2.444
   111   1 H        0.926     0.042     2.422     2.434
   112   1 H        0.926     0.042     2.419     2.432
   113   1 H        0.926     0.044     2.393     2.419
   114   1 H        0.926     0.042     2.427     2.436
   115   1 H        0.926     0.008     2.919     2.672
   116   1 H        0.926     0.026     2.645     2.543
   117   1 H        0.926     0.026     2.644     2.543
   118   1 H        0.925     0.014     2.821     2.626
   119   1 H        0.925     0.035     2.513     2.479
   120   1 H        0.925     0.040     2.447     2.446
   121   1 H        0.924     0.041     2.437     2.441
   122   1 H        0.926     0.015     2.807     2.620
   123   1 H        0.926     0.037     2.486     2.466
   124   1 H        0.926     0.039     2.465     2.455
   125   1 H        0.926     0.041     2.438     2.442
   126   1 H        0.925     0.055     2.261     2.352
   127   1 H        0.925     0.053     2.277     2.360
   128   1 H        0.925     0.047     2.355     2.400
   129   1 H        0.926     0.039     2.459     2.452
   130   1 H        0.926     0.026     2.643     2.542
   131   1 H        0.925     0.014     2.820     2.626
   132   1 H        0.925     0.040     2.445     2.445
   133   1 H        0.924     0.041     2.440     2.443
   134   1 H        0.925     0.035     2.511     2.478
   135   1 H        0.926     0.015     2.803     2.618
   136   1 H        0.926     0.037     2.484     2.465
   137   1 H        0.926     0.039     2.460     2.453
   138   1 H        0.926     0.041     2.437     2.441
   139   1 H        0.925     0.047     2.358     2.401
   140   1 H        0.925     0.054     2.268     2.355
   141   1 H        0.925     0.054     2.273     2.358
   142   1 H        0.926     0.039     2.460     2.453
   143   1 H        0.926     0.021     2.719     2.578
   144   1 H        0.926     0.026     2.650     2.546
   145   1 H        0.926     0.028     2.614     2.528
   146   1 H        0.926     0.029     2.595     2.519
   147   1 H        0.924     0.049     2.337     2.391
   148   1 H        0.925     0.048     2.350     2.398
   149   1 H        0.925     0.042     2.423     2.434
   150   1 H        0.926     0.028     2.612     2.527
   151   1 H        0.926     0.026     2.645     2.543
   152   1 H        0.926     0.029     2.597     2.520
   153   1 H        0.926     0.029     2.597     2.520
   154   1 H        0.925     0.046     2.364     2.404
   155   1 H        0.925     0.042     2.422     2.434
   156   1 H        0.924     0.049     2.334     2.389
   157   1 H        0.926     0.027     2.624     2.533
   158   1 H        0.926     0.022     2.697     2.568
   159   1 H        0.926     0.042     2.424     2.435
   160   1 H        0.926     0.044     2.401     2.423
   161   1 H        0.926     0.042     2.420     2.432
   162   1 H        0.926     0.042     2.419     2.432
   163   1 H        0.926     0.041     2.440     2.443
   164   1 H        0.926     0.028     2.622     2.532

molecular dipole:
                 x           y           z       tot (Debye)
 q only:        0.049      -1.169      -0.010
   full:        0.042      -1.225      -0.007       3.115

 projected vibrational frequencies (cm⁻¹)
eigval :       -0.00    -0.00    -0.00    -0.00     0.00     0.00
eigval :        5.43     7.57    11.94    12.59    13.04    14.72
eigval :       15.98    20.12    22.72    25.71    27.86    31.08
eigval :       31.66    34.47    36.76    38.95    44.47    48.65
eigval :       50.93    55.25    56.24    58.34    59.41    62.08
eigval :       63.71    65.11    66.97    69.50    71.89    73.08
eigval :       76.43    77.14    81.87    84.66    89.17    89.22
eigval :       90.31    91.16    95.58   101.05   105.49   108.08
eigval :      123.50   134.20   151.07   159.36   167.68   168.44
eigval :      175.49   176.14   181.72   187.64   190.07   195.79
eigval :      197.96   201.50   203.85   204.81   206.08   206.44
eigval :      211.94   218.92   219.05   220.47   223.27   225.62
eigval :      229.69   235.84   237.22   240.80   241.95   247.37
eigval :      262.90   264.18   267.46   286.79   289.14   292.43
eigval :      300.39   311.59   315.12   325.19   325.56   333.65
eigval :      346.42   358.63   372.43   376.17   378.32   380.47
eigval :      381.86   391.24   395.24   398.19   407.26   412.44
eigval :      413.44   414.43   415.59   416.71   417.01   419.79
eigval :      425.09   425.77   432.36   440.68   445.64   447.07
eigval :      458.21   460.59   475.78   480.50   487.30   499.73
eigval :      500.65   502.51   503.25   504.39   504.72   508.66
eigval :      515.42   519.04   520.43   522.42   531.19   533.45
eigval :      533.69   536.87   538.66   540.89   541.20   545.67
eigval :      551.44   555.95   571.21   571.74   582.58   588.90
eigval :      593.02   595.17   599.20   604.75   609.81   611.02
eigval :      618.65   621.32   626.76   629.97   637.88   640.50
eigval :      647.25   655.03   656.45   656.88   663.32   664.01
eigval :      664.25   669.72   670.14   672.61   673.53   678.19
eigval :      681.95   695.89   699.94   701.43   707.99   708.84
eigval :      753.34   759.65   770.24   780.13   780.47   781.51
eigval :      784.93   788.04   790.15   793.81   796.93   798.40
eigval :      802.04   804.83   805.31   806.94   808.13   810.58
eigval :      821.00   838.31   842.97   844.32   846.77   855.43
eigval :      857.52   860.41   874.68   877.77   880.12   882.68
eigval :      883.01   883.59   883.69   884.10   885.26   886.96
eigval :      887.90   888.06   892.37   895.91   897.48   900.73
eigval :      902.65   902.85   906.86   912.68   917.18   919.27
eigval :      924.23   924.68   924.91   926.26   926.98   928.82
eigval :      929.08   929.67   929.84   929.98   933.90   934.46
eigval :      955.68   979.24   984.86   985.01   986.02   986.31
eigval :      987.62   989.18   989.78   993.01   996.53   996.88
eigval :      999.51  1000.69  1012.51  1013.22  1016.47  1017.54
eigval :     1024.72  1024.99  1028.86  1029.32  1031.05  1031.78
eigval :     1031.96  1032.02  1032.26  1032.55  1042.24  1042.86
eigval :     1061.88  1070.24  1077.11  1078.74  1085.40  1101.32
eigval :     1106.78  1111.67  1113.07  1113.65  1125.65  1125.75
eigval :     1132.56  1133.34  1133.47  1135.04  1148.44  1156.21
eigval :     1160.72  1161.90  1176.14  1177.69  1178.93  1180.35
eigval :     1183.63  1184.76  1185.15  1186.39  1187.57  1187.66
eigval :     1189.13  1190.68  1191.75  1202.45  1204.04  1204.20
eigval :     1207.05  1208.30  1217.49  1223.27  1224.48  1240.60
eigval :     1245.64  1250.52  1254.69  1258.13  1263.79  1267.46
eigval :     1268.30  1268.99  1271.21  1272.17  1272.21  1272.69
eigval :     1274.16  1274.33  1274.61  1281.24  1287.27  1294.27
eigval :     1295.15  1300.73  1302.84  1303.55  1308.83  1309.29
eigval :     1311.17  1311.52  1320.47  1321.02  1321.64  1325.06
eigval :     1325.50  1328.87  1330.14  1330.19  1334.31  1345.38
eigval :     1352.35  1353.72  1362.01  1367.15  1369.72  1385.82
eigval :     1392.44  1399.32  1399.94  1400.53  1400.82  1400.94
eigval :     1401.66  1401.83  1403.28  1404.60  1405.36  1410.17
eigval :     1416.14  1416.83  1431.48  1431.97  1432.08  1432.26
eigval :     1432.80  1433.39  1443.28  1443.45  1453.46  1454.47
eigval :     1466.73  1468.53  1470.77  1471.47  1472.33  1472.79
eigval :     1474.49  1475.17  1475.40  1476.04  1476.43  1477.39
eigval :     1478.54  1479.43  1479.94  1480.40  1480.57  1482.36
eigval :     1482.55  1482.73  1483.31  1484.23  1484.52  1485.25
eigval :     1485.61  1485.70  1496.99  1498.77  1504.98  1513.04
eigval :     1524.85  1525.01  1562.96  1571.09  1572.54  1573.01
eigval :     1573.97  1574.18  1579.22  1580.58  1581.73  1581.79
eigval :     1589.37  1589.41  1590.95  1592.24  1595.04  1596.34
eigval :     1597.16  1597.37  2989.23  2989.49  2994.21  2994.35
eigval :     2995.38  2996.92  3002.88  3006.06  3006.29  3006.45
eigval :     3021.02  3021.90  3023.26  3024.07  3025.22  3027.41
eigval :     3032.93  3033.03  3039.55  3040.15  3042.54  3042.81
eigval :     3047.39  3047.89  3054.73  3054.97  3066.37  3067.35
eigval :     3067.68  3068.08  3072.59  3072.63  3073.62  3074.27
eigval :     3074.65  3075.38  3076.67  3077.82  3077.96  3078.31
eigval :     3078.44  3078.49  3078.70  3079.09  3079.56  3079.82
eigval :     3081.46  3081.54  3082.58  3083.71  3086.12  3086.50
eigval :     3086.64  3087.15  3088.47  3089.07  3090.31  3091.02
eigval :     3091.63  3093.14  3096.95  3097.56  3097.86  3097.98
eigval :     3099.13  3099.39  3102.31  3103.48  3107.90  3136.88

   temp. (K)  partition function   enthalpy   heat capacity  entropy
                                   cal/mol     cal/K/mol   cal/K/mol   J/K/mol
 298.15  VIB  0.410E+43            50790.508    302.806    325.442
         ROT  0.554E+09              888.752      2.981     42.990
         INT  0.227E+52            51679.260    305.787    368.432
         TR   0.407E+29             1481.254      4.968     47.126
         TOT                       53160.5141   310.7549   415.5580  1738.6947

       T/K    H(0)-H(T)+PV         H(T)/Eh          T*S/Eh         G(T)/Eh
   ------------------------------------------------------------------------
    298.15    0.847167E-01    0.137560E+01    0.197445E+00    0.117815E+01
   ------------------------------------------------------------------------

         :::::::::::::::::::::::::::::::::::::::::::::::::::::
         ::                  THERMODYNAMIC                  ::
         :::::::::::::::::::::::::::::::::::::::::::::::::::::
         :: total free energy        -238.905191758791 Eh   ::
         ::.................................................::
         :: total energy             -240.083345467678 Eh   ::
         :: zero point energy           1.290882060664 Eh   ::
         :: G(RRHO) w/o ZPVE           -0.112728351778 Eh   ::
         :: G(RRHO) contrib.            1.178153708886 Eh   ::
         :::::::::::::::::::::::::::::::::::::::::::::::::::::

           -------------------------------------------------
          | TOTAL ENERGY             -240.083345467678 Eh   |
          | TOTAL ENTHALPY           -238.707746735394 Eh   |
          | TOTAL FREE ENERGY        -238.905191758791 Eh   |
          | GRADIENT NORM               0.000151999385 Eh/α |
          | HOMO-LUMO GAP               0.298688924471 eV   |
           -------------------------------------------------

 * finished run on 2025/08/22 at 04:32:37.682
