   * xtb version 6.7.1 (edcfbbe) compiled by 'albert@albert-system' on 2024-07-22

   ID    Z sym.   atoms
    1    6 C      1-6, 8-20, 22-33, 35-41, 43-49, 51-57, 59-68, 70-86, 88-94
    2    7 N      7, 21, 42, 58, 69, 87
    3    5 B      34, 50
    4    1 H      95-164

          program call               : xtb data2507/toluene/m-ν-DABNA/m-ν-DABNA.xyz --gfn 2 --gbsa toluene --ohess vtight --parallel 40 --molden --ceasefiles --namespace data2507/toluene/m-ν-DABNA/m-ν-DABNA_toluene_S0_preOpt
      * Solvation model:               GBSA
        Solvent                        toluene
        Solvent mass                       9.2140E+01 g/mol
          :  Hamiltonian                  GFN2-xTB          :
 * total energy  :  -240.0136713 Eh     change       -0.3266166E-08 Eh
 * total energy  :  -240.0897252 Eh     change       -0.7605387E-01 Eh
 * total energy  :  -240.1199621 Eh     change       -0.3023688E-01 Eh
 * total energy  :  -240.1313080 Eh     change       -0.1134591E-01 Eh
 * total energy  :  -240.1379614 Eh     change       -0.6653381E-02 Eh
 * total energy  :  -240.1423549 Eh     change       -0.4393554E-02 Eh
 * total energy  :  -240.1457059 Eh     change       -0.3350995E-02 Eh
 * total energy  :  -240.1484257 Eh     change       -0.2719798E-02 Eh
 * total energy  :  -240.1506177 Eh     change       -0.2191944E-02 Eh
 * total energy  :  -240.1524091 Eh     change       -0.1791458E-02 Eh
 * total energy  :  -240.1665617 Eh     change       -0.3232933E-06 Eh
 * total energy  :  -240.1665620 Eh     change       -0.3434577E-06 Eh
 * total energy  :  -240.1665623 Eh     change       -0.2720940E-06 Eh
 * total energy  :  -240.1665625 Eh     change       -0.2165405E-06 Eh
 * total energy  :  -240.1665627 Eh     change       -0.1953267E-06 Eh
 * total energy  :  -240.1665629 Eh     change       -0.2456354E-06 Eh
 * total energy  :  -240.1665631 Eh     change       -0.1740632E-06 Eh
 * total energy  :  -240.1665632 Eh     change       -0.1366087E-06 Eh
 * total energy  :  -240.1665633 Eh     change       -0.6116952E-07 Eh
   *** GEOMETRY OPTIMIZATION CONVERGED AFTER 178 ITERATIONS ***

 final structure:
================
164
 xtb: 6.7.1 (edcfbbe)
C           -8.48275492083165       -6.35085579657525        0.64264804733795
C           -7.82247926572211       -5.23744273670098       -0.11475122958879
C           -7.20411873219253       -5.48995941332835       -1.33556363254866
C           -6.58276988957973       -4.46566114290138       -2.02739427076937
C           -6.56951277964907       -3.18045142901466       -1.52043541555707
C           -7.17540174507182       -2.91050359911767       -0.29419723850885
N           -7.16132306185460       -1.61755778587023        0.23969268884686
C           -8.27637258835854       -1.13295132616388        0.93307763714139
C           -8.11753883803415       -0.33064848500731        2.06173284662514
C           -9.22912786750915        0.15014215680005        2.72696072225039
C          -10.50302736853338       -0.16637675315495        2.29050271740454
C          -10.68091140063796       -0.97290635741644        1.17020664185008
C          -12.06310655612307       -1.31441707305300        0.69891806985974
C           -9.56503958008354       -1.44389519046758        0.49903743435860
C           -6.03112016426425       -0.80433266692486        0.08061454767710
C           -6.18639659309319        0.56335096315795       -0.10880033628040
C           -5.06579020524568        1.37750142819696       -0.25812462237539
C           -3.76775359392342        0.82669109294078       -0.23887414424197
C           -3.63719549800296       -0.56578848376128       -0.05129820672555
C           -4.76117016735780       -1.36986876342368        0.11474886569431
N           -2.37846445257111       -1.13388339328200       -0.02843489433594
C           -2.30157741428866       -2.55838075409135        0.02240349240832
C           -2.30002472614960       -3.28678863565519       -1.15974926743025
C           -2.24733812732243       -4.66897223865511       -1.11808350735308
C           -2.19749991547079       -5.32641896743854        0.09951758484733
C           -2.19309212407692       -4.60000924400017        1.27900957589409
C           -2.24445695843983       -3.21788260575941        1.24418791327503
C           -1.20112867672059       -0.40788510677467       -0.01053620015651
C            0.00492288655781       -1.09044125086379        0.11854118103226
C            1.22059505447930       -0.41876318221635        0.21198599541436
C            1.24347295541036        0.99772429307465        0.25935919744923
C            0.02492624807255        1.63677089192547        0.04428916134764
C           -1.20245629861944        1.00402606244002       -0.13497583025976
B           -2.54507556316823        1.70954831444737       -0.40911102895390
C           -2.85394522198341        3.16747640764501       -0.81480163382016
C           -1.90981785816923        4.10245454088064       -1.25997198181699
C           -2.23248291516824        5.40549348107327       -1.55803472368024
C           -3.54830348939868        5.84909507663874       -1.41920774533083
C           -3.90080136366086        7.27588771322343       -1.71629330451713
C           -4.51168110850482        4.94372420274376       -1.02809740148242
C           -4.19592073610700        3.60563773072173       -0.75192901262233
N           -5.22465300287864        2.73733070864956       -0.43100261052882
C           -6.54650554274574        3.26213063965917       -0.29892881350606
C           -7.00618846795269        3.65411926822825        0.95143293090441
C           -8.29394197763085        4.14274356972212        1.07924813132673
C           -9.11793237607868        4.23882720035969       -0.02902676189349
C           -8.66851575410405        3.85217039390951       -1.28577749291153
C           -9.54529663862809        3.96818702668197       -2.49544063719424
C           -7.37382058101495        3.36253444623145       -1.40828903401355
B            2.59718796883513        1.69775203713093        0.49340858365848
C            2.92791049685390        3.17440664109161        0.80550017458624
C            1.99575738015481        4.15411407890189        1.17321583561135
C            2.33842110628915        5.46768103213773        1.39202353101669
C            3.66496992499133        5.87687796072836        1.25100506038642
C            4.03920137976095        7.31444975494954        1.45443041304292
C            4.61656689358231        4.93002482187479        0.93700157926066
C            4.27880698082684        3.58356757848887        0.73765546920478
N            5.29600195423576        2.67918036418775        0.48755522776753
C            6.63541348242184        3.16773426970101        0.40044532481634
C            7.41901156965105        3.26809567434625        1.54250511210146
C            8.72078131416721        3.72489153014997        1.43498057113307
C            9.23533365008014        4.08107799962164        0.20098174400579
C            8.45842935069789        3.98920749344698       -0.94907724900547
C            9.02706856341745        4.36031018315131       -2.28484880417413
C            7.15423061226186        3.52659720939414       -0.83574804214624
C            5.11399696884406        1.31531387870507        0.38498790527748
C            6.22035327383493        0.47796890312974        0.25643107875652
C            6.04423435545153       -0.89789227055659        0.17969330340839
N            7.16093895073524       -1.73909986923781        0.07795561028572
C            8.33555344360279       -1.42653110312783        0.77059547342812
C            8.28044557680459       -0.86865136332706        2.04706921245354
C            9.44954820321756       -0.55302604356290        2.71195273342318
C           10.68018562181681       -0.79690187789941        2.12825046637239
C           10.75476684907878       -1.36099653105837        0.85853596915487
C           12.08749026460152       -1.64233373579041        0.23096595176281
C            9.58064937218986       -1.66548866378047        0.18961737647127
C            7.09671269174558       -2.89331534401158       -0.70986265515548
C            6.40029223781582       -2.89099098474622       -1.91749766905866
C            6.33584707949853       -4.04300884580672       -2.67772789973494
C            6.96816195415452       -5.19993400121884       -2.25876358089414
C            7.67516832675410       -5.21849839377248       -1.06013776017161
C            8.34860465812314       -6.47740392326922       -0.60085342446769
C            7.72820782554535       -4.06578275389751       -0.29461644634575
C            4.76658552437824       -1.44576798045136        0.20230119850219
C            3.65389445627215       -0.61277069514459        0.27879597134063
C            3.80640739452532        0.78631246595531        0.38597721482889
N            2.38644688641582       -1.16104609421771        0.26973759615165
C            2.28826193537765       -2.58482531958497        0.23238573381657
C            2.26337115622176       -3.30697951181143        1.41829562326078
C            2.19254794880550       -4.68869722812316        1.38191528869304
C            2.14774819398945       -5.35139678588179        0.16667901053393
C            2.16693904376865       -4.63089474656542       -1.01616155488154
C            2.23614999285720       -3.24961728584887       -0.98665937614386
C           -7.79692064158569       -3.95079712508213        0.39677883913828
H           -9.12595243588179       -6.93219008957084       -0.01587490301880
H           -7.72851949822184       -7.02404055375905        1.05086073955198
H           -9.07876382101993       -5.96277958309739        1.46490084835355
H           -7.21273143218031       -6.49079493112873       -1.74224840054620
H           -6.11041821639988       -4.66670786839311       -2.97840946452789
H           -6.09350458147063       -2.38028515850216       -2.06766831745297
H           -7.12364692100366       -0.08997044227964        2.40892761187892
H           -9.09786840894089        0.77238343391858        3.60076189801941
H          -11.36598079192812        0.21124662881095        2.81944789043012
H          -12.59530329070692       -1.87486677525642        1.46714596274698
H          -12.02879448739461       -1.91386753563708       -0.20727035529730
H          -12.63044298530608       -0.40654957690217        0.49755516365343
H           -9.68615846948639       -2.06199299824831       -0.37967801599283
H           -7.18184654339321        0.97672066927439       -0.14245362650774
H           -4.66585687249469       -2.43164528530034        0.27858863856857
H           -2.34288877933734       -2.76253629405516       -2.10328712905202
H           -2.24868036057318       -5.23304786387502       -2.03893831106115
H           -2.15968215693754       -6.40506538512274        0.12965795586231
H           -2.15120432293467       -5.11045045754902        2.22989968682036
H           -2.24341286850743       -2.64085106187511        2.15757024391240
H           -0.00283713472072       -2.16863969904080        0.14778575111900
H            0.03136610362985        2.71221206509945        0.01303908877591
H           -0.88840406735748        3.78164597834804       -1.39429292018104
H           -1.46911581056288        6.09266002639091       -1.89632074151671
H           -4.95406226469616        7.46681005432953       -1.52392675866510
H           -3.30461310579066        7.94878873760088       -1.10046986425192
H           -3.68909888476413        7.50758303534814       -2.76025645699777
H           -5.53579967636733        5.27768935556367       -0.94473507135901
H           -6.35450345474199        3.57092243481683        1.80851775003194
H           -8.65850201942438        4.44711456081253        2.04933864554254
H          -10.12264313110777        4.61967322897480        0.08380955836574
H           -9.50290753295727        3.05576916569041       -3.08736423827668
H           -9.20468783376022        4.79017628331166       -3.12552988255287
H          -10.57725498451404        4.15751917616257       -2.21163699878338
H           -6.99931555030327        3.05298052324582       -2.37394663380654
H            0.96651863301588        3.86245647128297        1.31238699873849
H            1.58296895731206        6.18876798316371        1.67237547063191
H            3.56206831556912        7.93744360883568        0.69761506536987
H            3.69983958287252        7.66023486432185        2.43040985869941
H            5.11606294429255        7.45166366631697        1.38857286340640
H            5.64887556328979        5.23822890959164        0.85547574968487
H            7.00446960800587        2.98884684285563        2.49980114071990
H            9.33631002794403        3.80216864985488        2.31918953375947
H           10.25296101534086        4.43638158397372        0.12660679282779
H            9.65842994173423        5.24260260881188       -2.20321200424052
H            9.64086530181462        3.54321343943663       -2.66546098828654
H            8.23555459125759        4.55512023035029       -3.00406068608240
H            6.52690705927975        3.44141406092725       -1.71183919101114
H            7.22107868659323        0.87876206605336        0.22729241221752
H            7.32071148977554       -0.68662219064733        2.50765365552651
H            9.39846527945592       -0.11957979034980        3.70069979372277
H           11.58865361712799       -0.55002731949492        2.65828637526566
H           12.52821013023959       -2.53394048061929        0.67845422783797
H           12.77304380531195       -0.81323138896095        0.39551705823762
H           11.98641175520953       -1.81188872079952       -0.83818080738699
H            9.62229602680013       -2.09399301198049       -0.80211799434693
H            5.91537185043536       -1.98542992075004       -2.25101051745402
H            5.79383898375309       -4.03354214208035       -3.61271887956747
H            6.91656011335768       -6.09449407977601       -2.86230208123190
H            7.60246786734490       -7.22675886524996       -0.33613024618576
H            8.97314241536009       -6.29018137957041        0.26906816576972
H            8.96699485481625       -6.89091217633365       -1.39603305894834
H            8.26464919826540       -4.06729499796602        0.64402343837193
H            4.65751840915510       -2.51739660963129        0.14859707120725
H            2.30294446765427       -2.77902808260119        2.36000801097370
H            2.17463098837773       -5.24829183055715        2.30549362269282
H            2.09574699792974       -6.42959800469721        0.14138825008470
H            2.13112481006355       -5.14526772920401       -1.96498335795479
H            2.25368510678675       -2.67716934895811       -1.90254598685849
H           -8.26311201488810       -3.74171434060525        1.34951677407095

          :  Hamiltonian                  GFN2-xTB          :
         :: gradient norm              0.000064100115 Eh/a0 ::
         :: HOMO-LUMO gap              2.203182131926 eV    ::
         :: SCC energy              -244.548739442840 Eh    ::
         :: -> dispersion             -0.246541563126 Eh    ::
         :: -> Gsolv                  -0.096629333002 Eh    ::
         :: repulsion energy           4.382176131934 Eh    ::

    * Orbital Energies and Occupations

         #    Occupation            Energy/Eh            Energy/eV
      -------------------------------------------------------------
         1        2.0000           -0.6602579             -17.9665
       ...           ...                  ...                  ...
       213        2.0000           -0.3879150             -10.5557
       214        2.0000           -0.3817596             -10.3882
       215        2.0000           -0.3790095             -10.3134
       216        2.0000           -0.3783726             -10.2960
       217        2.0000           -0.3737206             -10.1695
       218        2.0000           -0.3687061             -10.0330
       219        2.0000           -0.3624025              -9.8615
       220        2.0000           -0.3586453              -9.7592
       221        2.0000           -0.3492208              -9.5028
       222        2.0000           -0.3418762              -9.3029
       223        2.0000           -0.3402815              -9.2595
       224        2.0000           -0.3371732              -9.1750
       225        2.0000           -0.3312656              -9.0142 (HOMO)
       226                         -0.2503002              -6.8110 (LUMO)
       227                         -0.2369710              -6.4483
       228                         -0.2301815              -6.2636
       229                         -0.2300754              -6.2607
       230                         -0.2297681              -6.2523
       231                         -0.2293361              -6.2406
       232                         -0.2264737              -6.1627
       233                         -0.2263640              -6.1597
       234                         -0.2242313              -6.1016
       235                         -0.2241714              -6.1000
       236                         -0.2227037              -6.0601
       ...                                ...                  ...
       446                          0.7393594              20.1190
      -------------------------------------------------------------
                  HL-Gap            0.0809654 Eh            2.2032 eV

     #   Z          covCN         q      C6AA      α(0)
     1   6 C        3.758    -0.109    22.642     6.784
     2   6 C        2.965     0.016    27.658     8.626
     3   6 C        2.924    -0.052    29.294     8.876
     4   6 C        2.918    -0.034    28.853     8.808
     5   6 C        2.922    -0.054    29.346     8.884
     6   6 C        2.922     0.066    26.512     8.444
     7   7 N        2.754    -0.087    22.941     7.114
     8   6 C        2.922     0.067    26.510     8.443
     9   6 C        2.922    -0.054    29.332     8.882
    10   6 C        2.918    -0.034    28.845     8.807
    11   6 C        2.924    -0.052    29.284     8.874
    12   6 C        2.965     0.016    27.654     8.626
    13   6 C        3.758    -0.109    22.643     6.784
    14   6 C        2.928    -0.059    29.470     8.903
    15   6 C        2.923     0.066    26.525     8.446
    16   6 C        2.922    -0.091    30.289     9.025
    17   6 C        2.927     0.062    26.621     8.461
    18   6 C        2.897    -0.113    30.857     9.108
    19   6 C        2.926     0.062    26.616     8.461
    20   6 C        2.922    -0.091    30.289     9.025
    21   7 N        2.756    -0.064    22.488     7.043
    22   6 C        2.932     0.072    26.397     8.426
    23   6 C        2.922    -0.038    28.942     8.822
    24   6 C        2.920    -0.028    28.702     8.785
    25   6 C        2.920    -0.031    28.782     8.798
    26   6 C        2.920    -0.029    28.726     8.789
    27   6 C        2.921    -0.038    28.944     8.823
    28   6 C        2.927     0.061    26.627     8.462
    29   6 C        2.923    -0.089    30.238     9.018
    30   6 C        2.927     0.061    26.626     8.462
    31   6 C        2.883    -0.097    30.437     9.045
    32   6 C        2.929    -0.041    29.008     8.833
    33   6 C        2.884    -0.097    30.439     9.045
    34   5 B        2.724     0.186    18.588     7.224
    35   6 C        2.886    -0.090    30.267     9.020
    36   6 C        2.922    -0.038    28.957     8.824
    37   6 C        2.919    -0.056    29.396     8.891
    38   6 C        2.965     0.012    27.744     8.640
    39   6 C        3.758    -0.107    22.588     6.776
    40   6 C        2.926    -0.069    29.723     8.941
    41   6 C        2.925     0.059    26.672     8.469
    42   7 N        2.756    -0.062    22.431     7.034
    43   6 C        2.931     0.069    26.455     8.435
    44   6 C        2.922    -0.043    29.079     8.843
    45   6 C        2.919    -0.030    28.761     8.794
    46   6 C        2.925    -0.042    29.051     8.839
    47   6 C        2.966     0.020    27.549     8.609
    48   6 C        3.758    -0.112    22.685     6.790
    49   6 C        2.927    -0.049    29.212     8.864
    50   5 B        2.723     0.186    18.590     7.225
    51   6 C        2.886    -0.090    30.266     9.019
    52   6 C        2.922    -0.039    28.960     8.825
    53   6 C        2.919    -0.056    29.397     8.891
    54   6 C        2.965     0.012    27.743     8.640
    55   6 C        3.758    -0.107    22.589     6.776
    56   6 C        2.926    -0.069    29.724     8.941
    57   6 C        2.925     0.059    26.672     8.469
    58   7 N        2.756    -0.061    22.425     7.033
    59   6 C        2.932     0.069    26.453     8.435
    60   6 C        2.921    -0.043    29.066     8.841
    61   6 C        2.918    -0.031    28.772     8.796
    62   6 C        2.925    -0.043    29.062     8.841
    63   6 C        2.966     0.021    27.537     8.607
    64   6 C        3.758    -0.112    22.692     6.792
    65   6 C        2.927    -0.049    29.218     8.864
    66   6 C        2.926     0.062    26.619     8.461
    67   6 C        2.922    -0.091    30.288     9.025
    68   6 C        2.923     0.066    26.523     8.446
    69   7 N        2.754    -0.088    22.950     7.115
    70   6 C        2.922     0.067    26.509     8.443
    71   6 C        2.922    -0.054    29.336     8.882
    72   6 C        2.918    -0.034    28.845     8.807
    73   6 C        2.924    -0.052    29.287     8.875
    74   6 C        2.965     0.016    27.657     8.626
    75   6 C        3.758    -0.109    22.640     6.784
    76   6 C        2.928    -0.059    29.479     8.904
    77   6 C        2.922     0.067    26.511     8.444
    78   6 C        2.922    -0.054    29.343     8.883
    79   6 C        2.917    -0.034    28.850     8.808
    80   6 C        2.924    -0.052    29.293     8.876
    81   6 C        2.965     0.016    27.658     8.626
    82   6 C        3.758    -0.109    22.641     6.784
    83   6 C        2.928    -0.059    29.477     8.904
    84   6 C        2.922    -0.091    30.295     9.026
    85   6 C        2.926     0.062    26.616     8.460
    86   6 C        2.897    -0.113    30.854     9.107
    87   7 N        2.756    -0.064    22.482     7.042
    88   6 C        2.933     0.072    26.395     8.426
    89   6 C        2.922    -0.039    28.960     8.825
    90   6 C        2.920    -0.029    28.719     8.788
    91   6 C        2.920    -0.031    28.784     8.798
    92   6 C        2.920    -0.028    28.711     8.787
    93   6 C        2.922    -0.037    28.926     8.820
    94   6 C        2.928    -0.060    29.481     8.904
    95   1 H        0.925     0.047     2.352     2.398
    96   1 H        0.924     0.049     2.335     2.390
    97   1 H        0.925     0.042     2.416     2.431
    98   1 H        0.926     0.030     2.590     2.517
    99   1 H        0.926     0.028     2.610     2.526
   100   1 H        0.926     0.026     2.644     2.543
   101   1 H        0.926     0.026     2.648     2.545
   102   1 H        0.926     0.028     2.612     2.527
   103   1 H        0.926     0.030     2.586     2.515
   104   1 H        0.925     0.049     2.338     2.391
   105   1 H        0.925     0.042     2.418     2.432
   106   1 H        0.925     0.048     2.341     2.393
   107   1 H        0.926     0.028     2.610     2.526
   108   1 H        0.926     0.018     2.766     2.601
   109   1 H        0.926     0.017     2.786     2.610
   110   1 H        0.926     0.040     2.452     2.449
   111   1 H        0.926     0.042     2.424     2.435
   112   1 H        0.926     0.041     2.431     2.438
   113   1 H        0.926     0.041     2.436     2.441
   114   1 H        0.926     0.040     2.452     2.449
   115   1 H        0.926     0.010     2.885     2.656
   116   1 H        0.926     0.034     2.523     2.484
   117   1 H        0.926     0.029     2.598     2.520
   118   1 H        0.925     0.017     2.781     2.608
   119   1 H        0.925     0.037     2.489     2.467
   120   1 H        0.925     0.043     2.407     2.426
   121   1 H        0.925     0.044     2.399     2.422
   122   1 H        0.926     0.018     2.766     2.601
   123   1 H        0.926     0.036     2.505     2.475
   124   1 H        0.926     0.038     2.475     2.460
   125   1 H        0.926     0.039     2.465     2.455
   126   1 H        0.925     0.051     2.310     2.377
   127   1 H        0.924     0.054     2.268     2.355
   128   1 H        0.925     0.048     2.345     2.395
   129   1 H        0.926     0.040     2.449     2.447
   130   1 H        0.926     0.029     2.595     2.519
   131   1 H        0.925     0.017     2.783     2.609
   132   1 H        0.925     0.044     2.395     2.420
   133   1 H        0.925     0.043     2.409     2.427
   134   1 H        0.925     0.037     2.487     2.466
   135   1 H        0.926     0.018     2.766     2.601
   136   1 H        0.926     0.036     2.503     2.474
   137   1 H        0.926     0.038     2.479     2.462
   138   1 H        0.926     0.040     2.452     2.449
   139   1 H        0.925     0.051     2.304     2.374
   140   1 H        0.924     0.055     2.264     2.353
   141   1 H        0.925     0.048     2.345     2.395
   142   1 H        0.926     0.039     2.463     2.454
   143   1 H        0.926     0.018     2.768     2.602
   144   1 H        0.926     0.026     2.648     2.545
   145   1 H        0.926     0.028     2.614     2.528
   146   1 H        0.926     0.030     2.592     2.518
   147   1 H        0.924     0.049     2.328     2.386
   148   1 H        0.925     0.047     2.362     2.403
   149   1 H        0.925     0.043     2.413     2.429
   150   1 H        0.926     0.028     2.611     2.527
   151   1 H        0.926     0.026     2.642     2.542
   152   1 H        0.926     0.028     2.609     2.526
   153   1 H        0.926     0.030     2.588     2.516
   154   1 H        0.925     0.049     2.337     2.390
   155   1 H        0.925     0.042     2.420     2.433
   156   1 H        0.925     0.048     2.347     2.396
   157   1 H        0.926     0.028     2.617     2.530
   158   1 H        0.926     0.016     2.787     2.611
   159   1 H        0.926     0.040     2.450     2.448
   160   1 H        0.926     0.042     2.429     2.437
   161   1 H        0.926     0.041     2.431     2.438
   162   1 H        0.926     0.041     2.430     2.437
   163   1 H        0.926     0.040     2.452     2.449
   164   1 H        0.926     0.028     2.614     2.528

molecular dipole:
                 x           y           z       tot (Debye)
 q only:       -0.070      -0.988      -0.478
   full:       -0.049      -1.072      -0.421       2.930

 projected vibrational frequencies (cm⁻¹)
eigval :       -0.00    -0.00    -0.00     0.00     0.00     0.00
eigval :        5.38     7.48     7.70    12.06    14.05    14.65
eigval :       15.63    15.79    16.94    20.97    21.48    24.11
eigval :       26.60    29.41    34.56    38.89    40.32    43.17
eigval :       46.01    47.43    51.38    54.04    55.53    56.45
eigval :       58.57    60.23    60.66    61.68    62.87    63.18
eigval :       65.63    69.08    72.04    72.81    76.71    77.31
eigval :       78.25    79.08    85.43    89.17    92.32   107.12
eigval :      123.31   133.53   148.25   160.49   165.96   168.97
eigval :      175.29   179.26   180.32   185.03   189.30   197.25
eigval :      200.04   200.85   202.74   204.17   206.35   208.37
eigval :      211.05   212.63   214.24   217.14   218.09   224.54
eigval :      229.55   231.17   234.69   238.41   239.83   256.23
eigval :      270.20   284.36   287.71   292.95   294.44   295.30
eigval :      298.04   312.86   313.71   324.53   325.42   332.82
eigval :      344.33   355.81   373.55   373.83   376.60   378.51
eigval :      387.33   396.46   402.85   404.36   407.84   411.87
eigval :      412.60   415.17   416.20   417.75   419.62   420.61
eigval :      425.57   426.49   431.67   444.08   446.52   450.76
eigval :      459.42   460.76   478.27   482.82   488.73   500.69
eigval :      503.29   503.72   505.09   505.68   506.99   510.72
eigval :      518.82   521.85   524.73   530.10   533.83   535.05
eigval :      539.99   541.15   544.27   550.10   551.96   553.09
eigval :      570.96   573.49   578.75   580.39   585.02   590.33
eigval :      594.24   596.56   601.55   608.27   616.77   618.77
eigval :      621.96   624.13   630.16   635.78   641.24   644.79
eigval :      648.89   657.52   660.18   661.71   663.33   664.20
eigval :      671.48   674.19   675.09   677.62   679.65   681.52
eigval :      688.32   699.92   705.37   708.28   709.82   711.20
eigval :      752.49   757.74   770.81   781.59   785.05   785.85
eigval :      786.75   789.61   791.31   800.72   803.12   808.24
eigval :      808.63   810.72   812.20   817.75   818.29   819.14
eigval :      820.12   839.09   839.79   847.82   862.23   864.36
eigval :      867.23   873.76   875.93   879.80   881.68   882.04
eigval :      883.75   885.26   886.44   887.28   888.49   889.62
eigval :      890.17   891.32   893.28   898.22   898.36   899.96
eigval :      906.52   907.40   910.81   919.02   922.87   924.86
eigval :      925.26   925.73   926.02   926.46   927.08   927.33
eigval :      928.76   929.12   929.86   930.61   931.56   937.50
eigval :      958.91   981.95   984.70   984.76   987.24   988.16
eigval :      988.54   990.20   993.32   993.85   995.20   996.62
eigval :     1001.51  1001.78  1013.18  1013.36  1018.36  1021.28
eigval :     1027.40  1028.92  1029.23  1029.68  1031.21  1031.57
eigval :     1032.06  1032.16  1032.25  1032.43  1036.99  1037.03
eigval :     1073.38  1077.21  1078.03  1084.22  1095.53  1104.80
eigval :     1110.87  1112.03  1112.22  1117.35  1126.71  1129.29
eigval :     1132.70  1132.88  1134.43  1134.74  1154.53  1161.22
eigval :     1166.02  1166.46  1177.45  1178.80  1179.05  1180.51
eigval :     1183.98  1185.33  1186.40  1186.88  1187.54  1188.68
eigval :     1189.45  1190.74  1195.26  1203.78  1204.92  1208.11
eigval :     1209.38  1209.98  1226.72  1226.89  1241.06  1249.81
eigval :     1250.56  1255.47  1257.98  1263.59  1266.93  1267.87
eigval :     1271.85  1272.16  1272.72  1272.92  1273.87  1274.34
eigval :     1277.13  1278.41  1281.66  1287.85  1291.53  1296.74
eigval :     1298.58  1306.67  1307.74  1308.58  1308.77  1309.38
eigval :     1310.98  1313.35  1320.45  1320.50  1328.64  1328.98
eigval :     1329.02  1330.80  1331.41  1333.63  1342.56  1342.94
eigval :     1354.64  1355.07  1371.90  1385.08  1399.91  1400.04
eigval :     1400.10  1400.29  1401.10  1401.19  1401.40  1401.98
eigval :     1408.33  1414.49  1420.08  1420.25  1429.34  1431.86
eigval :     1432.16  1433.40  1433.71  1433.84  1434.68  1438.22
eigval :     1442.75  1448.77  1463.75  1464.94  1470.20  1470.50
eigval :     1470.61  1471.74  1474.65  1475.16  1475.72  1475.87
eigval :     1476.35  1476.82  1477.33  1478.21  1478.97  1479.10
eigval :     1479.30  1479.56  1479.99  1480.19  1481.90  1483.80
eigval :     1484.41  1484.77  1484.80  1485.13  1485.42  1485.81
eigval :     1501.56  1535.64  1538.41  1544.72  1546.18  1555.18
eigval :     1563.02  1574.53  1576.90  1577.16  1582.58  1582.79
eigval :     1583.04  1583.09  1583.35  1584.67  1594.90  1595.12
eigval :     1595.41  1595.51  1596.52  1597.34  1601.56  1601.62
eigval :     1601.86  1601.97  2994.15  2996.12  2996.60  2997.20
eigval :     2997.67  2999.65  2999.83  3002.51  3011.56  3011.65
eigval :     3016.41  3019.53  3021.31  3026.05  3026.24  3031.79
eigval :     3035.52  3035.52  3040.44  3041.45  3041.75  3042.35
eigval :     3042.94  3045.83  3060.68  3061.94  3066.16  3066.65
eigval :     3067.61  3067.96  3071.05  3071.86  3073.06  3073.60
eigval :     3073.81  3073.93  3075.51  3075.96  3076.93  3077.17
eigval :     3077.42  3078.12  3078.48  3078.60  3078.82  3079.73
eigval :     3079.74  3080.47  3082.50  3082.53  3083.89  3084.42
eigval :     3087.62  3088.06  3088.46  3089.32  3089.46  3090.43
eigval :     3092.64  3092.85  3095.27  3095.97  3096.72  3098.77
eigval :     3101.08  3101.29  3103.12  3103.71  3104.46  3136.38

   temp. (K)  partition function   enthalpy   heat capacity  entropy
                                   cal/mol     cal/K/mol   cal/K/mol   J/K/mol
 298.15  VIB  0.314E+45            50932.253    299.278    329.103
         ROT  0.569E+09              888.752      2.981     43.042
         INT  0.179E+54            51821.005    302.259    372.146
         TR   0.407E+29             1481.254      4.968     47.126
         TOT                       53302.2588   307.2275   419.2717  1754.2329

       T/K    H(0)-H(T)+PV         H(T)/Eh          T*S/Eh         G(T)/Eh
   ------------------------------------------------------------------------
    298.15    0.849426E-01    0.137893E+01    0.199210E+00    0.117972E+01
   ------------------------------------------------------------------------

         :::::::::::::::::::::::::::::::::::::::::::::::::::::
         ::                  THERMODYNAMIC                  ::
         :::::::::::::::::::::::::::::::::::::::::::::::::::::
         :: total free energy        -238.986841370685 Eh   ::
         ::.................................................::
         :: total energy             -240.166563306813 Eh   ::
         :: zero point energy           1.293988905159 Eh   ::
         :: G(RRHO) w/o ZPVE           -0.114266969031 Eh   ::
         :: G(RRHO) contrib.            1.179721936129 Eh   ::
         :::::::::::::::::::::::::::::::::::::::::::::::::::::

           -------------------------------------------------
          | TOTAL ENERGY             -240.166563306813 Eh   |
          | TOTAL ENTHALPY           -238.787631845466 Eh   |
          | TOTAL FREE ENERGY        -238.986841370685 Eh   |
          | GRADIENT NORM               0.000064022648 Eh/α |
          | HOMO-LUMO GAP               2.203179454959 eV   |
           -------------------------------------------------

 * finished run on 2025/08/22 at 03:00:08.962
