   * xtb version 6.7.1 (edcfbbe) compiled by 'albert@albert-system' on 2024-07-22

   ID    Z sym.   atoms
    1    6 C      1-9, 11-14, 18-20, 22-35, 37-57
    2    7 N      10, 21, 36
    3   16 S      15
    4    8 O      16, 17
    5    1 H      58-94

          program call               : xtb data2507/gas/CZ-DPS-DMAC/CZ-DPS-DMAC_gas_T1_crest.xyz --gfn 2 --spinpol --tblite --uhf 2 --ohess vtight --parallel 40 --molden --ceasefiles --namespace data2507/gas/CZ-DPS-DMAC/CZ-DPS-DMAC_gas_T1_finalOpt
 * total energy  :  -148.2156372 Eh     change       -0.6849916E-08 Eh
 * total energy  :  -148.2156471 Eh     change       -0.9914380E-05 Eh
 * total energy  :  -148.2156508 Eh     change       -0.3674502E-05 Eh
 * total energy  :  -148.2156523 Eh     change       -0.1528085E-05 Eh
 * total energy  :  -148.2156542 Eh     change       -0.1939806E-05 Eh
 * total energy  :  -148.2156566 Eh     change       -0.2388696E-05 Eh
 * total energy  :  -148.2156600 Eh     change       -0.3401096E-05 Eh
 * total energy  :  -148.2156634 Eh     change       -0.3322238E-05 Eh
 * total energy  :  -148.2156653 Eh     change       -0.1991629E-05 Eh
 * total energy  :  -148.2156669 Eh     change       -0.1539425E-05 Eh
 * total energy  :  -148.2156847 Eh     change       -0.3427878E-06 Eh
 * total energy  :  -148.2156850 Eh     change       -0.3216483E-06 Eh
 * total energy  :  -148.2156853 Eh     change       -0.3347840E-06 Eh
 * total energy  :  -148.2156856 Eh     change       -0.3028250E-06 Eh
 * total energy  :  -148.2156859 Eh     change       -0.2380160E-06 Eh
 * total energy  :  -148.2156860 Eh     change       -0.1030130E-06 Eh
 * total energy  :  -148.2156861 Eh     change       -0.1220506E-06 Eh
 * total energy  :  -148.2156863 Eh     change       -0.1922260E-06 Eh
 * total energy  :  -148.2156864 Eh     change       -0.7126383E-07 Eh
   *** GEOMETRY OPTIMIZATION CONVERGED AFTER 42 ITERATIONS ***

 final structure:
================
94
 xtb: 6.7.1 (edcfbbe)
C            5.07301230321995        0.47743857441429       -2.80325234568060
C            4.94132016208043       -0.54799926899478       -1.66059657505981
C            5.92243651060372       -1.71603825513775       -1.87777950105774
C            5.28515202684387        0.13754486271512       -0.35631483150477
C            6.55534349318854        0.66396455210476       -0.16811719817930
C            6.92412832875189        1.27916911349953        1.01438305035625
C            6.01047837948747        1.36445483861713        2.05443814908607
C            4.74131018614153        0.85888141511304        1.89398133778074
C            4.35309737466374        0.25900857877775        0.68609982715202
N            3.06795847390744       -0.22258114832847        0.55546784095199
C            2.12251421365768        0.04299576008818        1.58145484989474
C            1.64111338389618        1.34993596218307        1.75918246127251
C            0.65642162199742        1.59714647899099        2.67821386918729
C            0.12248867591021        0.54176604420722        3.44272555577531
S           -1.54670538273164        0.69831578064994        4.00424097641509
O           -1.81432140983391        2.03411577896031        4.47295719430756
O           -1.90345369544139       -0.41225506911773        4.85035821445672
C           -2.23382473521061        0.48495071025323        2.37741232563683
C           -2.10882956197852        1.58172661293119        1.51002137043429
C           -2.05425251805954        1.37549023347768        0.14531590829845
N           -1.83546266195159        2.46646107175440       -0.70796794762240
C           -0.80517063499768        2.57066011993607       -1.61616235604605
C            0.19486332631271        1.65840175446860       -1.92009928982468
C            1.13351763490955        2.02093160823173       -2.86812694177069
C            1.08752420394465        3.26413536873031       -3.49437811078706
C            0.10434148993112        4.18613601408144       -3.18030631351078
C           -0.84885257722819        3.84531014291998       -2.23215429958736
C           -1.96668276560678        4.53786238175779       -1.64975307810405
C           -2.52301191556795        5.79357467605033       -1.84317062739661
C           -3.63561622327295        6.14546174172942       -1.09981886874660
C           -4.19889821846020        5.26062736393945       -0.18279107095812
C           -3.66455333907928        4.00276375208125        0.02648637239606
C           -2.53732947539537        3.65145504330421       -0.70390118156720
C           -2.14423556585172        0.08343739483309       -0.38667902167542
C           -2.31221314462997       -1.00569084019368        0.48797198616024
N           -2.45315264504476       -2.29214253098713       -0.05150951924807
C           -1.74253786012832       -3.41237066009666        0.32724143089732
C           -0.75556340627692       -3.54746889690891        1.29379835304477
C           -0.16684159411357       -4.78879536292786        1.44490950039737
C           -0.54259643384612       -5.87307471815800        0.65589168890165
C           -1.51571202161965       -5.74167601958438       -0.31806317507532
C           -2.12006011286418       -4.50529274847914       -0.48944280295675
C           -3.12483963762056       -4.01117196543415       -1.39160940983830
C           -3.87901596259400       -4.59879886507276       -2.39607188180229
C           -4.80129805315011       -3.82063591351851       -3.07201265605418
C           -4.98320712681999       -2.47850781569234       -2.74717193048521
C           -4.24224951500687       -1.87039904813647       -1.75110027742370
C           -3.29882360137218       -2.64039229367286       -1.08377582918542
C           -2.34538227952928       -0.81111405795129        1.85581312866777
C            0.65311770484035       -0.75094187306723        3.30892325066290
C            1.64865598168990       -0.99830649043576        2.40032870267537
C            2.65858340442247       -0.90463695911071       -0.57226437857827
C            1.34594540013008       -1.39766000778707       -0.65006046569268
C            0.91335237555455       -2.08956546720144       -1.75873345019089
C            1.77371183268305       -2.28829247571348       -2.82673227496896
C            3.05989599931882       -1.78322662569437       -2.76716750777025
C            3.52921720205004       -1.09352700948681       -1.65759467385811
H            4.40701848089158        1.31968533802034       -2.62442654597621
H            4.81469635358498        0.02844248777095       -3.75833457043637
H            6.09017701977101        0.85346597059580       -2.86661745569186
H            5.72557049101046       -2.21779788795181       -2.82055006686145
H            6.94929106815255       -1.36304520867716       -1.89038629847944
H            5.81805959246218       -2.44144366889273       -1.07337296051954
H            7.28303952302846        0.59483298738615       -0.96199530305356
H            7.91984665189343        1.67909818028406        1.12715275561148
H            6.29026164137116        1.82247413691867        2.99048931278093
H            4.03281994924318        0.91269670384665        2.70502745608741
H            2.04141570800865        2.14387380724433        1.14461841619895
H            0.26740096676068        2.59009049118577        2.83179499881232
H           -2.01253480323529        2.56759621042326        1.93324512082883
H            0.24733899747781        0.70108779300598       -1.42669638456126
H            1.91467436289344        1.32064284284959       -3.12536920148351
H            1.83667091637516        3.51270058903263       -4.23145645761672
H            0.08034244043790        5.15347755745550       -3.65860110087718
H           -2.09641455133789        6.47819801506964       -2.56049107287396
H           -4.08113815679613        7.11968628419036       -1.23423805419926
H           -5.07222181729273        5.56293046545138        0.37491532295884
H           -4.10710747378398        3.31649291886928        0.73165446282697
H           -2.08596337185234       -0.07475100505371       -1.45079566102301
H           -0.45675522769041       -2.71168698734190        1.90570510850810
H            0.60023605460682       -4.92086595194817        2.19317963818182
H           -0.06244895090365       -6.82828617316046        0.80673549959751
H           -1.79954636214492       -6.58042381596022       -0.93540894357939
H           -3.75091140942168       -5.64292938923913       -2.63795623860754
H           -5.39895337377783       -4.25955418198699       -3.85674575393165
H           -5.72333278855697       -1.90151257000269       -3.28104223728558
H           -4.40340241006466       -0.83597499288786       -1.49007812961723
H           -2.48362955919404       -1.63283607918118        2.53966880895101
H            0.25378254157608       -1.52815830683841        3.94206594295887
H            2.07867267588903       -1.98418353750378        2.29357779909698
H            0.66703467645820       -1.22788411558539        0.16971461393642
H           -0.09598747660984       -2.46913982846244       -1.79475097623622
H            1.44289305247308       -2.82474443908937       -3.70232243508035
H            3.71106083584195       -1.93174699483239       -3.61491179234408

 projected vibrational frequencies (cm⁻¹)
eigval :       -0.00    -0.00    -0.00    -0.00     0.00     0.00
eigval :       12.57    14.76    17.54    22.27    22.93    26.32
eigval :       36.34    45.30    46.58    50.24    60.13    71.28
eigval :       84.43    90.18    98.45    99.40   107.64   112.29
eigval :      113.82   132.25   134.75   139.94   143.15   145.16
eigval :      164.48   181.89   185.96   200.21   201.83   209.85
eigval :      218.48   228.56   235.78   245.94   251.87   265.30
eigval :      270.17   271.90   292.52   301.54   305.85   311.16
eigval :      317.72   328.97   336.47   346.21   366.78   372.81
eigval :      377.55   381.07   390.99   395.15   402.17   405.23
eigval :      409.07   420.10   422.58   428.21   434.77   435.67
eigval :      448.18   453.92   463.70   493.33   503.82   505.53
eigval :      511.65   516.36   517.27   520.21   536.19   537.13
eigval :      543.27   543.92   549.06   555.20   573.55   577.04
eigval :      585.48   585.74   589.72   599.87   620.45   622.71
eigval :      628.23   642.65   647.40   652.00   672.99   673.68
eigval :      682.84   687.67   701.25   708.43   709.00   739.33
eigval :      746.69   747.82   757.99   759.36   766.14   769.17
eigval :      771.35   775.20   776.89   778.48   780.60   784.58
eigval :      818.80   825.60   835.03   856.36   868.62   871.31
eigval :      872.42   872.94   873.66   877.92   893.55   894.79
eigval :      896.80   897.78   902.76   902.85   903.86   904.41
eigval :      907.09   909.64   915.39   915.85   918.53   920.30
eigval :      921.27   921.33   922.77   923.70   927.14   937.12
eigval :      958.13   967.77   981.24  1010.45  1010.80  1013.46
eigval :     1024.09  1037.12  1064.38  1067.12  1067.95  1069.02
eigval :     1072.75  1074.18  1082.23  1105.34  1107.55  1109.94
eigval :     1113.52  1114.62  1117.87  1137.48  1142.00  1144.38
eigval :     1150.31  1155.29  1160.01  1171.79  1175.20  1178.09
eigval :     1178.67  1179.90  1182.95  1183.99  1193.57  1201.06
eigval :     1204.80  1219.69  1227.42  1230.94  1232.08  1232.18
eigval :     1237.10  1241.20  1242.82  1255.13  1260.66  1284.64
eigval :     1288.50  1291.57  1292.28  1294.06  1299.61  1305.71
eigval :     1325.36  1328.36  1332.44  1335.62  1336.01  1344.29
eigval :     1347.16  1357.70  1361.78  1369.20  1384.29  1388.93
eigval :     1401.44  1410.27  1411.12  1413.77  1414.05  1418.23
eigval :     1419.27  1428.13  1430.84  1432.71  1448.95  1455.77
eigval :     1462.53  1464.15  1472.90  1476.83  1481.95  1483.14
eigval :     1487.62  1488.04  1497.95  1502.20  1530.13  1548.49
eigval :     1560.65  1561.47  1564.62  1572.23  1576.17  1578.18
eigval :     1580.74  1581.91  1585.95  1586.33  1597.68  3028.01
eigval :     3032.56  3043.14  3048.38  3051.78  3058.43  3070.04
eigval :     3071.20  3077.84  3081.19  3081.77  3082.55  3085.83
eigval :     3086.94  3087.50  3087.86  3088.50  3089.22  3093.60
eigval :     3094.87  3095.00  3095.34  3095.58  3096.30  3097.28
eigval :     3100.55  3102.54  3102.82  3104.76  3107.45  3109.10
eigval :     3109.77  3110.52  3112.25  3112.50  3117.94  3118.92

   temp. (K)  partition function   enthalpy   heat capacity  entropy
                                   cal/mol     cal/K/mol   cal/K/mol   J/K/mol
 298.15  VIB  0.484E+21            27680.833    176.215    170.110
         ROT  0.917E+08              888.752      2.981     39.416
         INT  0.444E+29            28569.585    179.196    209.526
         TR   0.201E+29             1481.254      4.968     45.727
         TOT                       30050.8390   184.1640   255.2531  1067.9788

       T/K    H(0)-H(T)+PV         H(T)/Eh          T*S/Eh         G(T)/Eh
   ------------------------------------------------------------------------
    298.15    0.478891E-01    0.766371E+00    0.121279E+00    0.645092E+00
   ------------------------------------------------------------------------

         :::::::::::::::::::::::::::::::::::::::::::::::::::::
         ::                  THERMODYNAMIC                  ::
         :::::::::::::::::::::::::::::::::::::::::::::::::::::
         :: total free energy        -147.570594303132 Eh   ::
         ::.................................................::
         :: total energy             -148.215686378956 Eh   ::
         :: zero point energy           0.718481978571 Eh   ::
         :: G(RRHO) w/o ZPVE           -0.073389902747 Eh   ::
         :: G(RRHO) contrib.            0.645092075824 Eh   ::
         :::::::::::::::::::::::::::::::::::::::::::::::::::::

           -------------------------------------------------
          | TOTAL ENERGY             -148.215686378956 Eh   |
          | TOTAL ENTHALPY           -147.449315340110 Eh   |
          | TOTAL FREE ENERGY        -147.570594303132 Eh   |
          | GRADIENT NORM               0.000084500762 Eh/α |
           -------------------------------------------------

 * finished run on 2025/07/19 at 11:49:08.065
