   * xtb version 6.7.1 (edcfbbe) compiled by 'albert@albert-system' on 2024-07-22

   ID    Z sym.   atoms
    1    6 C      1-9, 11-14, 18-20, 22-35, 37-57
    2    7 N      10, 21, 36
    3   16 S      15
    4    8 O      16, 17
    5    1 H      58-94

          program call               : xtb data2507/gas/CZ-DPS-DMAC/CZ-DPS-DMAC.xyz --gfn 2 --ohess vtight --parallel 40 --molden --ceasefiles --namespace data2507/gas/CZ-DPS-DMAC/CZ-DPS-DMAC_gas_S0_preOpt
          :  Hamiltonian                  GFN2-xTB          :
 * total energy  :  -148.2794793 Eh     change       -0.3026571E-08 Eh
 * total energy  :  -148.2998727 Eh     change       -0.2039332E-01 Eh
 * total energy  :  -148.3057451 Eh     change       -0.5872479E-02 Eh
 * total energy  :  -148.3066953 Eh     change       -0.9501244E-03 Eh
 * total energy  :  -148.3071699 Eh     change       -0.4746470E-03 Eh
 * total energy  :  -148.3073215 Eh     change       -0.1515597E-03 Eh
 * total energy  :  -148.3073844 Eh     change       -0.6290310E-04 Eh
 * total energy  :  -148.3074147 Eh     change       -0.3029402E-04 Eh
 * total energy  :  -148.3074415 Eh     change       -0.2680583E-04 Eh
 * total energy  :  -148.3074613 Eh     change       -0.1981898E-04 Eh
 * total energy  :  -148.3078843 Eh     change       -0.2373263E-06 Eh
 * total energy  :  -148.3078845 Eh     change       -0.1973589E-06 Eh
 * total energy  :  -148.3078848 Eh     change       -0.2895682E-06 Eh
 * total energy  :  -148.3078852 Eh     change       -0.4091443E-06 Eh
 * total energy  :  -148.3078857 Eh     change       -0.5166389E-06 Eh
 * total energy  :  -148.3078863 Eh     change       -0.5396827E-06 Eh
 * total energy  :  -148.3078867 Eh     change       -0.4673669E-06 Eh
 * total energy  :  -148.3078871 Eh     change       -0.4192751E-06 Eh
 * total energy  :  -148.3078871 Eh     change       -0.4076867E-08 Eh
   *** GEOMETRY OPTIMIZATION CONVERGED AFTER 122 ITERATIONS ***

 final structure:
================
94
 xtb: 6.7.1 (edcfbbe)
C            7.30098213680144       -1.03030717386985        2.36097020734146
C            6.86482703754791       -0.04002824133713        1.26572249127718
C            7.88958515979959        1.10198348914893        1.13963947702371
C            6.79754849213157       -0.77575548394243       -0.05890786309271
C            7.94494322920913       -1.36959564319952       -0.56787176019229
C            7.95409240417410       -2.02734571335987       -1.78344320869948
C            6.79078264734021       -2.08508616757055       -2.52914916096811
C            5.63626666789442       -1.50565794885578       -2.04643393173885
C            5.61859300944778       -0.86424968270555       -0.80485599474399
N            4.43844965446166       -0.29654154244779       -0.34011267186021
C            3.26229652495798       -0.41463797464020       -1.11985421997740
C            2.59425426600237       -1.63511619643088       -1.19095694374165
C            1.43835255524400       -1.74388428865233       -1.94202010393527
C            0.96285022030728       -0.63606369467402       -2.61754023581739
S           -0.58912028698208       -0.75743426356595       -3.50861992540541
O           -0.77425080900216       -2.11228545056471       -3.95282394574807
O           -0.65657524098630        0.30380874448360       -4.47658689863705
C           -1.77902726592398       -0.41581821766789       -2.20466206885800
C           -2.36545118561690       -1.46983372184584       -1.53927617154723
C           -3.27464545783647       -1.20260219914887       -0.51446647391243
N           -3.92123972762122       -2.25163795304999        0.13728876224217
C           -4.08436847801886       -2.39234778096949        1.50472582917424
C           -3.59054657922253       -1.61446496696474        2.54055836673347
C           -3.87875218843392       -2.00006676396494        3.83616269472990
C           -4.63073324098636       -3.14084880239568        4.10356488242647
C           -5.09815332549509       -3.93807264576629        3.07757883561676
C           -4.82109752743123       -3.56855447077554        1.76836091153581
C           -5.11928373838334       -4.16031846860502        0.49325804110868
C           -5.82109319493888       -5.29703296533174        0.11428559409466
C           -5.94649834799359       -5.57733951914091       -1.23155807684726
C           -5.39690186614265       -4.73187342836569       -2.19208717604760
C           -4.69482836171666       -3.59464458824011       -1.83875433435562
C           -4.54303824538860       -3.32284023727587       -0.48721041985484
C           -3.55515515878706        0.11926939243565       -0.17566057101609
C           -2.94050505669598        1.17262711046735       -0.84922773219314
N           -3.25183142120135        2.49353029981006       -0.52796474074011
C           -3.29784132017752        3.03883031179229        0.74306597187529
C           -2.96851958960167        2.46860824707505        1.96300704881380
C           -3.07378099079431        3.25393250169734        3.09545426605882
C           -3.48525546090391        4.58206800862923        3.02167249775628
C           -3.78380580962937        5.16545881111596        1.80623314939972
C           -3.68541902935173        4.39457427759662        0.65577108382459
C           -3.88646342035586        4.67441333488954       -0.73936505758980
C           -4.28530148180116        5.80898525261200       -1.43368177883588
C           -4.40339486401007        5.73502158905108       -2.80709284871532
C           -4.14415130338122        4.54595529164659       -3.48432478298108
C           -3.74662855595241        3.40370057655671       -2.81480818613799
C           -3.60266489229370        3.47977796781922       -1.43746640406229
C           -2.03564805982556        0.89745855360608       -1.87471988800598
C            1.61809061694467        0.57925677175067       -2.56151060807806
C            2.77521568182409        0.69125940009801       -1.81289482911966
C            4.38021259073669        0.39119550312209        0.86487650740723
C            3.15974894695837        0.90677100025505        1.31095280917490
C            3.07369582086603        1.60215500664060        2.49878878084939
C            4.20561287657917        1.78779595199726        3.27118380752700
C            5.40764617169069        1.25369590136634        2.84630927443918
C            5.52267104008381        0.54876362094582        1.65566395508983
H            7.38128410614866       -0.53403688186770        3.32404934761314
H            8.26536114734629       -1.47073190114820        2.12399327418193
H            6.56945895907289       -1.83157878824604        2.44774247602176
H            7.97637660460256        1.65075795365493        2.07322391489715
H            8.87126697795681        0.71610145138461        0.87991463886568
H            7.57663316656929        1.79544634512829        0.36130856890743
H            8.86358937969204       -1.31798244795111       -0.00347738822803
H            8.86320890618327       -2.48027646690404       -2.14798533159902
H            6.77866885959983       -2.57744961598548       -3.48980473189438
H            4.73733305432968       -1.54391653767125       -2.64218095519104
H            2.98935092216419       -2.48650504499749       -0.65745050169590
H            0.90414321478016       -2.67707279803973       -2.02457677966319
H           -2.11999390774350       -2.47889485889863       -1.82701725970874
H           -2.98428898272850       -0.74318768466826        2.34785960969526
H           -3.50821824952917       -1.40551874074868        4.65796198763079
H           -4.83819234628243       -3.40819927287508        5.12877827653604
H           -5.66316953387575       -4.83421573532413        3.28396000298382
H           -6.26099215379624       -5.94129407254631        0.86028596106320
H           -6.48503115384612       -6.45768762148462       -1.54872006195546
H           -5.52303435261153       -4.96722981034126       -3.23812872881129
H           -4.28925097471196       -2.94195305365752       -2.59627383305581
H           -4.29225338283589        0.33077543430492        0.58415402599363
H           -2.62322617697025        1.44853522295941        2.02955666026133
H           -2.82715332585560        2.82876962201119        4.05702558953649
H           -3.55868922624471        5.16307440973409        3.92866626507443
H           -4.08251328989478        6.20086404521937        1.74582554864237
H           -4.50168395886269        6.72491620257879       -0.90512368897137
H           -4.70929683474285        6.60585790763785       -3.36719738183199
H           -4.25816822845276        4.51284035860207       -4.55737208232533
H           -3.56439412308147        2.48615375706737       -3.35280191007180
H           -1.54472678681108        1.68866844278010       -2.41682449602006
H            1.22442227788532        1.41202188486366       -3.12246420559951
H            3.30767527718321        1.62861799689685       -1.75460875827057
H            2.26758876217520        0.75531824009181        0.72241315928191
H            2.12013235713108        1.99500231786983        2.81882861881846
H            4.15305994579382        2.33386583716420        4.20047280064139
H            6.27997980255538        1.39152918215507        3.46680213619898

          :  Hamiltonian                  GFN2-xTB          :
         :: gradient norm              0.000047212589 Eh/a0 ::
         :: HOMO-LUMO gap              2.061590953134 eV    ::
         :: SCC energy              -150.925383205473 Eh    ::
         :: -> dispersion             -0.136922115750 Eh    ::
         :: repulsion energy           2.617496064311 Eh    ::

    * Orbital Energies and Occupations

         #    Occupation            Energy/Eh            Energy/eV
      -------------------------------------------------------------
         1        2.0000           -0.7750929             -21.0914
       ...           ...                  ...                  ...
       125        2.0000           -0.4141236             -11.2689
       126        2.0000           -0.4130879             -11.2407
       127        2.0000           -0.4115514             -11.1989
       128        2.0000           -0.4112780             -11.1914
       129        2.0000           -0.4099339             -11.1549
       130        2.0000           -0.4080628             -11.1040
       131        2.0000           -0.4025096             -10.9528
       132        2.0000           -0.3970113             -10.8032
       133        2.0000           -0.3849951             -10.4763
       134        2.0000           -0.3847088             -10.4685
       135        2.0000           -0.3729775             -10.1492
       136        2.0000           -0.3712903             -10.1033
       137        2.0000           -0.3527943              -9.6000 (HOMO)
       138                         -0.2770323              -7.5384 (LUMO)
       139                         -0.2618054              -7.1241
       140                         -0.2584817              -7.0336
       141                         -0.2573385              -7.0025
       142                         -0.2501880              -6.8080
       143                         -0.2481588              -6.7527
       144                         -0.2288123              -6.2263
       145                         -0.2281255              -6.2076
       146                         -0.2278464              -6.2000
       147                         -0.2241272              -6.0988
       148                         -0.2222276              -6.0471
       ...                                ...                  ...
       270                          1.2037169              32.7548
      -------------------------------------------------------------
                  HL-Gap            0.0757621 Eh            2.0616 eV

     #   Z          covCN         q      C6AA      α(0)
     1   6 C        3.761    -0.104    22.532     6.767
     2   6 C        3.909     0.021    20.159     6.382
     3   6 C        3.761    -0.104    22.533     6.767
     4   6 C        2.979    -0.013    28.327     8.730
     5   6 C        2.928    -0.036    28.889     8.815
     6   6 C        2.917    -0.043    29.077     8.842
     7   6 C        2.920    -0.032    28.798     8.800
     8   6 C        2.924    -0.059    29.468     8.902
     9   6 C        2.927     0.057    26.725     8.478
    10   7 N        2.754    -0.070    22.590     7.059
    11   6 C        2.928     0.079    26.247     8.402
    12   6 C        2.923    -0.034    28.849     8.808
    13   6 C        2.958    -0.027    28.677     8.784
    14   6 C        2.972    -0.080    29.992     8.983
    15  16 S        3.825     0.954   107.994    17.490
    16   8 O        0.860    -0.537    24.622     6.653
    17   8 O        0.860    -0.538    24.633     6.654
    18   6 C        2.970    -0.077    29.925     8.973
    19   6 C        2.960    -0.051    29.267     8.873
    20   6 C        2.913     0.073    26.357     8.419
    21   7 N        2.802    -0.041    22.037     6.972
    22   6 C        3.069     0.045    26.912     8.506
    23   6 C        2.911    -0.050    29.251     8.868
    24   6 C        2.924    -0.033    28.811     8.802
    25   6 C        2.920    -0.039    28.978     8.828
    26   6 C        2.913    -0.032    28.793     8.799
    27   6 C        3.067    -0.014    28.300     8.723
    28   6 C        3.067    -0.015    28.307     8.724
    29   6 C        2.913    -0.032    28.800     8.800
    30   6 C        2.920    -0.039    28.958     8.825
    31   6 C        2.925    -0.031    28.763     8.795
    32   6 C        2.910    -0.050    29.232     8.866
    33   6 C        3.069     0.046    26.904     8.505
    34   6 C        2.925    -0.058    29.443     8.898
    35   6 C        2.913     0.073    26.360     8.419
    36   7 N        2.802    -0.042    22.052     6.975
    37   6 C        3.069     0.045    26.911     8.506
    38   6 C        2.910    -0.050    29.250     8.868
    39   6 C        2.924    -0.033    28.811     8.802
    40   6 C        2.920    -0.039    28.980     8.828
    41   6 C        2.913    -0.032    28.793     8.799
    42   6 C        3.066    -0.014    28.303     8.724
    43   6 C        3.067    -0.015    28.311     8.725
    44   6 C        2.913    -0.032    28.802     8.800
    45   6 C        2.920    -0.039    28.962     8.825
    46   6 C        2.925    -0.031    28.767     8.796
    47   6 C        2.910    -0.050    29.241     8.867
    48   6 C        3.070     0.046    26.905     8.505
    49   6 C        2.963    -0.052    29.287     8.877
    50   6 C        2.956    -0.027    28.663     8.781
    51   6 C        2.924    -0.034    28.842     8.807
    52   6 C        2.928     0.057    26.721     8.477
    53   6 C        2.924    -0.060    29.485     8.905
    54   6 C        2.920    -0.033    28.814     8.803
    55   6 C        2.917    -0.044    29.087     8.844
    56   6 C        2.928    -0.036    28.886     8.814
    57   6 C        2.980    -0.012    28.317     8.729
    58   1 H        0.925     0.040     2.445     2.445
    59   1 H        0.925     0.041     2.438     2.442
    60   1 H        0.925     0.032     2.562     2.503
    61   1 H        0.925     0.040     2.444     2.445
    62   1 H        0.925     0.041     2.439     2.442
    63   1 H        0.925     0.032     2.558     2.501
    64   1 H        0.926     0.032     2.555     2.500
    65   1 H        0.926     0.029     2.599     2.521
    66   1 H        0.926     0.031     2.574     2.509
    67   1 H        0.926     0.024     2.676     2.558
    68   1 H        0.926     0.059     2.205     2.322
    69   1 H        0.926     0.063     2.162     2.299
    70   1 H        0.926     0.070     2.090     2.261
    71   1 H        0.926     0.024     2.676     2.558
    72   1 H        0.926     0.032     2.558     2.501
    73   1 H        0.926     0.032     2.562     2.503
    74   1 H        0.926     0.035     2.519     2.482
    75   1 H        0.926     0.034     2.525     2.485
    76   1 H        0.926     0.033     2.547     2.496
    77   1 H        0.926     0.036     2.497     2.471
    78   1 H        0.926     0.034     2.527     2.486
    79   1 H        0.926     0.064     2.154     2.295
    80   1 H        0.926     0.023     2.684     2.562
    81   1 H        0.926     0.032     2.559     2.502
    82   1 H        0.926     0.032     2.563     2.503
    83   1 H        0.926     0.035     2.520     2.482
    84   1 H        0.926     0.034     2.527     2.486
    85   1 H        0.926     0.033     2.550     2.497
    86   1 H        0.926     0.036     2.498     2.472
    87   1 H        0.926     0.035     2.523     2.484
    88   1 H        0.926     0.065     2.146     2.291
    89   1 H        0.926     0.065     2.136     2.285
    90   1 H        0.926     0.060     2.202     2.321
    91   1 H        0.926     0.018     2.761     2.598
    92   1 H        0.926     0.028     2.615     2.529
    93   1 H        0.926     0.029     2.604     2.523
    94   1 H        0.926     0.033     2.548     2.496

molecular dipole:
                 x           y           z       tot (Debye)
 q only:        0.480       0.387       2.001
   full:        0.498       0.358       1.858       4.973

 projected vibrational frequencies (cm⁻¹)
eigval :       -0.00    -0.00    -0.00    -0.00     0.00     0.00
eigval :       -2.06     4.11     7.03    17.03    20.07    21.75
eigval :       24.46    32.79    36.08    41.89    47.90    52.81
eigval :       62.20    83.21    99.06    99.50    99.54   111.43
eigval :      122.37   127.77   128.88   139.45   140.14   142.86
eigval :      155.12   170.23   185.54   189.60   206.50   208.37
eigval :      218.92   234.94   242.06   248.89   249.45   267.11
eigval :      271.77   274.86   294.49   297.34   305.25   323.37
eigval :      331.53   332.98   337.95   346.54   365.15   368.54
eigval :      377.27   379.59   393.25   396.42   404.64   407.09
eigval :      411.64   421.40   422.78   436.33   438.41   451.37
eigval :      453.25   470.99   490.12   495.91   512.38   515.28
eigval :      518.20   520.11   524.67   528.20   540.65   541.28
eigval :      547.61   548.36   562.53   566.81   580.45   585.87
eigval :      588.00   592.30   598.80   604.78   619.09   643.38
eigval :      645.00   652.16   668.88   673.29   674.82   682.62
eigval :      688.09   693.24   693.71   708.22   708.99   748.94
eigval :      749.65   755.13   766.81   769.16   770.38   775.56
eigval :      777.29   778.66   780.05   781.88   810.60   827.17
eigval :      837.15   861.85   866.82   868.43   868.72   869.45
eigval :      876.76   879.43   892.50   894.67   898.70   899.25
eigval :      900.06   906.89   908.55   911.85   912.38   913.72
eigval :      914.59   916.06   919.72   920.33   921.70   922.42
eigval :      924.76   925.88   926.73   927.38   934.37   939.10
eigval :      957.45   993.75  1005.65  1011.27  1013.07  1014.49
eigval :     1031.28  1067.72  1071.75  1074.53  1075.50  1077.08
eigval :     1083.45  1093.73  1107.06  1110.56  1114.65  1114.95
eigval :     1120.11  1123.85  1131.24  1141.27  1149.13  1154.13
eigval :     1160.77  1164.07  1166.77  1175.46  1177.87  1178.99
eigval :     1180.91  1181.27  1187.52  1188.51  1203.89  1205.51
eigval :     1207.88  1231.67  1234.89  1235.82  1239.83  1245.06
eigval :     1249.77  1251.75  1251.82  1269.74  1294.36  1294.81
eigval :     1296.35  1298.87  1300.99  1312.13  1313.16  1315.94
eigval :     1325.39  1334.27  1335.41  1341.08  1356.55  1356.69
eigval :     1358.06  1361.49  1375.24  1393.67  1403.13  1414.02
eigval :     1417.89  1421.11  1426.13  1427.21  1436.00  1442.83
eigval :     1457.94  1461.19  1462.03  1475.92  1476.14  1480.39
eigval :     1486.80  1487.13  1489.61  1490.52  1495.77  1500.10
eigval :     1505.05  1545.07  1573.15  1575.27  1575.69  1576.49
eigval :     1578.55  1584.19  1589.85  1590.27  1591.54  1593.28
eigval :     1599.82  1600.11  1602.24  1613.62  1614.42  3027.40
eigval :     3029.64  3041.14  3043.81  3049.87  3053.73  3078.66
eigval :     3079.45  3080.31  3081.36  3081.63  3081.81  3084.52
eigval :     3085.40  3085.69  3086.32  3087.41  3087.84  3092.52
eigval :     3092.62  3093.47  3093.91  3094.28  3094.47  3095.52
eigval :     3095.97  3099.09  3099.63  3099.86  3101.12  3101.51
eigval :     3102.36  3102.43  3107.51  3108.04  3118.97  3120.09

   temp. (K)  partition function   enthalpy   heat capacity  entropy
                                   cal/mol     cal/K/mol   cal/K/mol   J/K/mol
 298.15  VIB  0.256E+24            27660.052    172.695    174.676
         ROT  0.146E+09              888.752      2.981     40.334
         INT  0.373E+32            28548.804    175.676    215.010
         TR   0.201E+29             1481.254      4.968     45.727
         TOT                       30030.0579   180.6439   260.7369  1090.9232

       T/K    H(0)-H(T)+PV         H(T)/Eh          T*S/Eh         G(T)/Eh
   ------------------------------------------------------------------------
    298.15    0.478559E-01    0.771020E+00    0.123885E+00    0.647136E+00
   ------------------------------------------------------------------------

         :::::::::::::::::::::::::::::::::::::::::::::::::::::
         ::                  THERMODYNAMIC                  ::
         :::::::::::::::::::::::::::::::::::::::::::::::::::::
         :: total free energy        -147.660751472953 Eh   ::
         ::.................................................::
         :: total energy             -148.307887141160 Eh   ::
         :: zero point energy           0.723164236336 Eh   ::
         :: G(RRHO) w/o ZPVE           -0.076028568129 Eh   ::
         :: G(RRHO) contrib.            0.647135668207 Eh   ::
         :::::::::::::::::::::::::::::::::::::::::::::::::::::

           -------------------------------------------------
          | TOTAL ENERGY             -148.307887141160 Eh   |
          | TOTAL ENTHALPY           -147.536866961478 Eh   |
          | TOTAL FREE ENERGY        -147.660751472953 Eh   |
          | GRADIENT NORM               0.000047213573 Eh/α |
          | HOMO-LUMO GAP               2.061590776003 eV   |
           -------------------------------------------------

 * finished run on 2025/07/19 at 11:27:55.584
