   * xtb version 6.7.1 (edcfbbe) compiled by 'albert@albert-system' on 2024-07-22

   ID    Z sym.   atoms
    1    6 C      1-9, 11-14, 18-20, 22-35, 37-57
    2    7 N      10, 21, 36
    3   16 S      15
    4    8 O      16, 17
    5    1 H      58-94

          program call               : xtb data2507/gas/CZ-DPS-DMAC/CZ-DPS-DMAC_gas_S0_finalOpt.xtbopt.xyz --gfn 2 --spinpol --tblite --uhf 2 --ohess vtight --parallel 40 --molden --ceasefiles --namespace data2507/gas/CZ-DPS-DMAC/CZ-DPS-DMAC_gas_T1_preOpt
 * total energy  :  -148.2090345 Eh     change       -0.4207868E-07 Eh
 * total energy  :  -148.2106524 Eh     change       -0.1617910E-02 Eh
 * total energy  :  -148.2111668 Eh     change       -0.5143774E-03 Eh
 * total energy  :  -148.2112544 Eh     change       -0.8759616E-04 Eh
 * total energy  :  -148.2113059 Eh     change       -0.5151440E-04 Eh
 * total energy  :  -148.2113239 Eh     change       -0.1802256E-04 Eh
 * total energy  :  -148.2113440 Eh     change       -0.2001618E-04 Eh
 * total energy  :  -148.2113632 Eh     change       -0.1924941E-04 Eh
 * total energy  :  -148.2113814 Eh     change       -0.1818779E-04 Eh
 * total energy  :  -148.2113938 Eh     change       -0.1245027E-04 Eh
 * total energy  :  -148.2115695 Eh     change       -0.7258523E-06 Eh
 * total energy  :  -148.2115700 Eh     change       -0.4976765E-06 Eh
 * total energy  :  -148.2115711 Eh     change       -0.1140526E-05 Eh
 * total energy  :  -148.2115715 Eh     change       -0.3802794E-06 Eh
 * total energy  :  -148.2115719 Eh     change       -0.4111390E-06 Eh
 * total energy  :  -148.2115723 Eh     change       -0.3480510E-06 Eh
 * total energy  :  -148.2115727 Eh     change       -0.3743637E-06 Eh
 * total energy  :  -148.2115730 Eh     change       -0.3192199E-06 Eh
 * total energy  :  -148.2115730 Eh     change       -0.3844093E-08 Eh
   *** GEOMETRY OPTIMIZATION CONVERGED AFTER 94 ITERATIONS ***

 final structure:
================
94
 xtb: 6.7.1 (edcfbbe)
C            6.70328411162014        1.34346316802342        1.85942600620339
C            6.65644261493924        0.52442533982943        0.55516183291954
C            7.97542267624992        0.68838440838392       -0.22445929806600
C            6.48415852982850       -0.93663326311567        0.90457178384837
C            7.45836893421488       -1.59024983459236        1.64408371749157
C            7.36180322878945       -2.93575576843389        1.95551715549487
C            6.27296792473543       -3.66623008720497        1.49948804193062
C            5.28513448687036       -3.04289161874143        0.77488716739682
C            5.35840105477571       -1.66822324910324        0.48976378018725
N            4.33058830565403       -1.06880792334965       -0.20721402566576
C            3.13727544376881       -1.79810188394260       -0.42936138075515
C            2.33392263161811       -2.17438668471133        0.66788706638701
C            1.11140843531757       -2.75271611492547        0.45463166925351
C            0.67064123930766       -2.99023047992631       -0.85634385871442
S           -1.04470612530063       -3.27519341331272       -1.14600318434488
O           -1.59962048532605       -4.18981698399411       -0.17864256739763
O           -1.25054705502493       -3.57334961088962       -2.54227002563469
C           -1.77969760371165       -1.66343499882859       -0.79389264863054
C           -3.09037250726997       -1.63047717109323       -0.34731752364964
C           -3.66786029358814       -0.41497514997987        0.00787776290070
N           -5.00555434964117       -0.37003893965264        0.40511374886121
C           -5.50436965762552        0.26491005769011        1.52547104772696
C           -4.83385332779143        0.95725198979667        2.52281785320394
C           -5.58311024132670        1.48263725996304        3.56222109157971
C           -6.96499254957869        1.31687017596484        3.61503295003075
C           -7.63693681856206        0.60501257046898        2.63790878335198
C           -6.90686127068217        0.06689047769754        1.58662390636547
C           -7.25782037559550       -0.72891150696897        0.44513246177154
C           -8.45884968821482       -1.23040168877129       -0.03878883896064
C           -8.44510436384348       -1.96112102383240       -1.21336071384125
C           -7.25964409120639       -2.18135413355100       -1.91087143420720
C           -6.04946364336397       -1.69273777047410       -1.44805383721456
C           -6.05318670513021       -0.98194123629214       -0.25671641321462
C           -2.90367105971586        0.75772597166767       -0.02225250291716
C           -1.56613821803215        0.69951897339520       -0.42150730081783
N           -0.77469695135886        1.85440453009496       -0.39911450805709
C            0.44193574763332        1.96956861995543        0.24721235934266
C            1.13190154030969        1.03213487995466        0.99643506720125
C            2.32563598622695        1.42685220154910        1.58607543015217
C            2.81069122341618        2.72221583015968        1.44162964466880
C            2.12055616381735        3.66507895522971        0.70288389268492
C            0.92098950280514        3.29567263054371        0.10246714866464
C           -0.05252868013234        3.99927461491571       -0.67622161065990
C           -0.13988602158521        5.30191944810377       -1.15721945826057
C           -1.24189226678973        5.65610050972600       -1.91164812740728
C           -2.24726623881382        4.73458743577662       -2.19959433009759
C           -2.18523192938557        3.43230830197199       -1.73084348008420
C           -1.09073275070524        3.07480587916808       -0.95946762191075
C           -1.01136698196864       -0.50739785828485       -0.83380921570305
C            1.49674766263504       -2.68379042738123       -1.94860260259698
C            2.72063084688889       -2.10644608681789       -1.74062910038604
C            4.40532669043280        0.24697273825321       -0.62175740802240
C            3.34987511931064        0.81512420648293       -1.35352934413481
C            3.40533772462121        2.11887200568867       -1.78724166343998
C            4.50825006793663        2.90044489277180       -1.47997110974799
C            5.53734767226816        2.35934162994238       -0.73232872403408
C            5.51598880556697        1.04223000713807       -0.29387680271676
H            6.84357118491373        2.39952611640780        1.64714254553418
H            7.51919735087541        1.01014354690665        2.49453798710286
H            5.77001651171168        1.22250091781929        2.40575527055434
H            8.14641959968605        1.72890248568982       -0.48360325092187
H            8.81972185391038        0.34338192320295        0.36487689727971
H            7.93667943187434        0.10672444551686       -1.14329713115865
H            8.32220608214221       -1.04276759069781        1.98853954336979
H            8.13655086522558       -3.41290231326066        2.53510352789965
H            6.19914078380787       -4.72229465920933        1.70827894234923
H            4.44690343661920       -3.61182992567798        0.40573103472165
H            2.68478917280143       -1.96706654889842        1.66817425813401
H            0.45950375988084       -3.02316400776371        1.27039880866147
H           -3.63494017639725       -2.55685942896870       -0.26428168382431
H           -3.76083260568656        1.07036904209651        2.50407213825043
H           -5.08416264085198        2.02722686149874        4.34952997234250
H           -7.51591543976844        1.74326255306540        4.44003625018521
H           -8.70557006218481        0.46359132968709        2.69075738629069
H           -9.38134986300313       -1.04895939254504        0.49131269360241
H           -9.36871458742774       -2.36170484539771       -1.60376972796426
H           -7.28322674452795       -2.74254101139154       -2.83237965413242
H           -5.13831045279030       -1.85722199219872       -2.00205802251911
H           -3.34259291820868        1.70048912401783        0.26230096802775
H            0.75319953400070        0.03001844386828        1.12761660944486
H            2.87892681271828        0.71504365539943        2.18070232436267
H            3.74001591267418        2.99558366458862        1.91887002048481
H            2.49433491677042        4.67242363449439        0.60272253380720
H            0.64101356741838        6.01609539349646       -0.94458757406936
H           -1.32703564866662        6.66290623722642       -2.29299762129954
H           -3.08929019122098        5.03995912259515       -2.80193678581023
H           -2.95842783512921        2.71827662526886       -1.96998267166534
H            0.00449022221721       -0.54111580048464       -1.19249671818987
H            1.13153302145245       -2.91030546622301       -2.93733985080026
H            3.37609355421833       -1.87479024531448       -2.56746998922678
H            2.47948480326621        0.22287733598607       -1.57757746705669
H            2.58518968478599        2.53013332335270       -2.35482740194659
H            4.56046316107266        3.92604481768015       -1.81036249012622
H            6.37752940376181        2.98839632672421       -0.48162311939363

 projected vibrational frequencies (cm⁻¹)
eigval :       -0.00    -0.00     0.00     0.00     0.00     0.00
eigval :        5.90    16.02    17.96    22.65    24.89    30.95
eigval :       34.11    35.45    46.90    63.41    64.38    71.77
eigval :       77.62    85.94    97.51   100.83   105.89   116.23
eigval :      123.29   126.54   131.23   138.61   145.52   148.75
eigval :      159.81   162.24   179.87   196.79   211.34   213.37
eigval :      219.02   227.44   235.22   236.07   257.75   261.25
eigval :      267.41   268.30   290.94   303.10   303.91   311.75
eigval :      316.91   329.99   338.09   350.27   360.41   364.89
eigval :      371.89   375.28   385.67   388.47   396.45   404.99
eigval :      411.74   418.23   419.85   429.98   433.45   434.83
eigval :      443.90   450.79   481.13   497.39   502.24   505.12
eigval :      512.01   513.91   514.21   520.83   529.44   531.07
eigval :      541.71   542.54   549.85   555.62   571.76   578.58
eigval :      582.49   584.23   594.73   601.02   617.58   623.49
eigval :      623.70   639.77   646.99   654.53   664.78   668.79
eigval :      680.72   684.25   697.92   699.64   703.53   734.62
eigval :      734.93   747.31   757.05   760.72   761.62   764.79
eigval :      767.97   769.43   772.18   772.36   781.33   806.88
eigval :      824.32   833.31   839.72   855.17   859.94   861.61
eigval :      865.80   867.54   868.40   872.71   889.10   892.37
eigval :      893.31   894.63   895.85   898.62   899.79   901.01
eigval :      902.99   904.68   908.11   911.95   912.53   913.66
eigval :      914.11   916.14   920.60   921.14   922.72   934.91
eigval :      958.03   959.20   975.33  1006.91  1008.07  1012.81
eigval :     1014.20  1022.60  1024.86  1061.22  1064.86  1066.69
eigval :     1069.57  1073.07  1078.19  1083.64  1086.61  1096.25
eigval :     1110.73  1113.12  1115.05  1117.64  1136.98  1139.41
eigval :     1140.60  1144.62  1149.33  1170.59  1174.85  1175.53
eigval :     1176.83  1177.65  1179.93  1182.04  1188.20  1191.50
eigval :     1199.27  1208.70  1210.05  1222.60  1225.45  1227.40
eigval :     1229.76  1233.48  1237.04  1239.75  1248.15  1251.76
eigval :     1270.91  1282.71  1286.47  1288.36  1292.30  1293.98
eigval :     1297.00  1308.37  1314.71  1330.88  1331.06  1337.26
eigval :     1340.31  1346.36  1349.89  1353.17  1361.62  1365.53
eigval :     1392.28  1399.20  1400.47  1402.79  1404.85  1406.13
eigval :     1410.08  1415.92  1419.22  1427.17  1432.38  1435.89
eigval :     1451.56  1454.49  1458.31  1458.67  1476.85  1478.53
eigval :     1485.26  1486.43  1487.28  1496.62  1497.57  1501.65
eigval :     1516.90  1519.50  1531.09  1539.88  1546.18  1554.46
eigval :     1565.85  1566.42  1569.46  1572.27  1579.31  3031.54
eigval :     3033.40  3044.08  3048.96  3052.11  3058.89  3073.84
eigval :     3076.94  3078.15  3078.90  3080.71  3081.99  3082.83
eigval :     3085.37  3086.70  3087.51  3087.99  3089.96  3091.03
eigval :     3092.38  3092.96  3093.69  3094.24  3095.55  3095.81
eigval :     3098.32  3099.16  3099.80  3102.50  3102.91  3104.44
eigval :     3108.05  3109.07  3109.75  3111.68  3114.76  3128.93

   temp. (K)  partition function   enthalpy   heat capacity  entropy
                                   cal/mol     cal/K/mol   cal/K/mol   J/K/mol
 298.15  VIB  0.926E+21            27806.379    177.267    171.353
         ROT  0.114E+09              888.752      2.981     39.851
         INT  0.106E+30            28695.131    180.248    211.204
         TR   0.201E+29             1481.254      4.968     45.727
         TOT                       30176.3850   185.2165   256.9308  1074.9987

       T/K    H(0)-H(T)+PV         H(T)/Eh          T*S/Eh         G(T)/Eh
   ------------------------------------------------------------------------
    298.15    0.480891E-01    0.763170E+00    0.122076E+00    0.641094E+00
   ------------------------------------------------------------------------

         :::::::::::::::::::::::::::::::::::::::::::::::::::::
         ::                  THERMODYNAMIC                  ::
         :::::::::::::::::::::::::::::::::::::::::::::::::::::
         :: total free energy        -147.570478756394 Eh   ::
         ::.................................................::
         :: total energy             -148.211572973815 Eh   ::
         :: zero point energy           0.715081221811 Eh   ::
         :: G(RRHO) w/o ZPVE           -0.073987004391 Eh   ::
         :: G(RRHO) contrib.            0.641094217421 Eh   ::
         :::::::::::::::::::::::::::::::::::::::::::::::::::::

           -------------------------------------------------
          | TOTAL ENERGY             -148.211572973815 Eh   |
          | TOTAL ENTHALPY           -147.448402621500 Eh   |
          | TOTAL FREE ENERGY        -147.570478756394 Eh   |
          | GRADIENT NORM               0.000063403127 Eh/α |
           -------------------------------------------------

 * finished run on 2025/07/19 at 11:36:19.495
