   * xtb version 6.7.1 (edcfbbe) compiled by 'albert@albert-system' on 2024-07-22

   ID    Z sym.   atoms
    1    6 C      1-9, 11-14, 18-20, 22-35, 37-57
    2    7 N      10, 21, 36
    3   16 S      15
    4    8 O      16, 17
    5    1 H      58-94

          program call               : xtb data2507/gas/CZ-DPS-DMAC/CZ-DPS-DMAC_gas_S0_crest.xyz --gfn 2 --ohess vtight --parallel 40 --molden --ceasefiles --namespace data2507/gas/CZ-DPS-DMAC/CZ-DPS-DMAC_gas_S0_finalOpt
          :  Hamiltonian                  GFN2-xTB          :
 * total energy  :  -148.3140650 Eh     change       -0.3533671E-08 Eh
 * total energy  :  -148.3140659 Eh     change       -0.8951425E-06 Eh
 * total energy  :  -148.3140668 Eh     change       -0.9198031E-06 Eh
 * total energy  :  -148.3140694 Eh     change       -0.2561510E-05 Eh
 * total energy  :  -148.3140714 Eh     change       -0.2081612E-05 Eh
 * total energy  :  -148.3140729 Eh     change       -0.1442381E-05 Eh
 * total energy  :  -148.3140745 Eh     change       -0.1588110E-05 Eh
 * total energy  :  -148.3140760 Eh     change       -0.1554009E-05 Eh
 * total energy  :  -148.3140770 Eh     change       -0.9213562E-06 Eh
 * total energy  :  -148.3140777 Eh     change       -0.7354641E-06 Eh
 * total energy  :  -148.3140811 Eh     change       -0.6382460E-06 Eh
 * total energy  :  -148.3140816 Eh     change       -0.4984657E-06 Eh
 * total energy  :  -148.3140820 Eh     change       -0.4244239E-06 Eh
 * total energy  :  -148.3140824 Eh     change       -0.3554901E-06 Eh
 * total energy  :  -148.3140827 Eh     change       -0.3102573E-06 Eh
 * total energy  :  -148.3140830 Eh     change       -0.2920136E-06 Eh
 * total energy  :  -148.3140832 Eh     change       -0.2037651E-06 Eh
 * total energy  :  -148.3140834 Eh     change       -0.1759022E-06 Eh
 * total energy  :  -148.3140834 Eh     change       -0.3178513E-08 Eh
   *** GEOMETRY OPTIMIZATION CONVERGED AFTER 22 ITERATIONS ***

 final structure:
================
94
 xtb: 6.7.1 (edcfbbe)
C            6.82805262439260        1.35832897612470        1.75190123553959
C            6.73869022584827        0.53222412032028        0.45581975452488
C            8.02861088865548        0.69007071697379       -0.36985985714206
C            6.57798326446345       -0.92971203247301        0.82140711874771
C            7.58656613741380       -1.57466110194147        1.52574459127972
C            7.51203562386153       -2.91552709583228        1.85167243069361
C            6.41200610727267       -3.64956054609502        1.44563820931078
C            5.39327791437639       -3.03128541588184        0.75229230537717
C            5.44702081308748       -1.66536214987831        0.45930137713673
N            4.39307650349064       -1.07342192449754       -0.22867329651136
C            3.18736003355230       -1.79059471418192       -0.37989514855681
C            2.44525128758257       -2.14115608940933        0.74850383052234
C            1.19732696539905       -2.71463548895862        0.60142771696977
C            0.70119434179400       -2.94290981627367       -0.66995299390140
S           -1.04377114470305       -3.30838154885621       -0.84414422650787
O           -1.47338170466930       -4.21497327497358        0.18529929668293
O           -1.33153472304151       -3.65155403170266       -2.21085656038440
C           -1.78128008168756       -1.69335498895609       -0.49644338638303
C           -3.12035775469657       -1.65732072707023       -0.17398146917917
C           -3.72863073091994       -0.42834914147100        0.08970312882909
N           -5.08896645026359       -0.37028078722733        0.38165799391873
C           -5.67541396891458        0.33046033028295        1.42260192481194
C           -5.08636981732497        1.07149915262596        2.43624329977769
C           -5.91530259625001        1.64808870704334        3.38063879757624
C           -7.29741005272201        1.48780881905983        3.33083289685292
C           -7.88715458550533        0.72674884374422        2.34116870706464
C           -7.07444883654915        0.13788095065076        1.38200577463687
C           -7.33988915119387       -0.71783848413918        0.25822342777907
C           -8.50703289195310       -1.23198192748057       -0.29091564945864
C           -8.41314392554329       -2.02511641627020       -1.41699952730209
C           -7.17827320325971       -2.29250032171834       -2.00275738555875
C           -6.00324767392900       -1.79107637807982       -1.47448611476051
C           -6.09006601990054       -1.01616819070401       -0.32751836902303
C           -2.96338826408186        0.73632112133128        0.07094840742765
C           -1.60698789291917        0.68060865663651       -0.23206559890697
N           -0.81819162334951        1.83248330400813       -0.21769578513003
C            0.41189345026732        1.94824780288401        0.40912420763798
C            1.09573439157786        1.03164889152169        1.19329287302448
C            2.30683720127349        1.42125795654274        1.73388662038911
C            2.82437471484639        2.69496949292989        1.51897836020158
C            2.13567362035832        3.61961668701988        0.76063467950158
C            0.91969613308193        3.24991040086577        0.20224818345764
C           -0.04847510418954        3.94427188621027       -0.60113218571259
C           -0.09672288346678        5.22260304284852       -1.14097650327548
C           -1.19009171050473        5.57640654531409       -1.90625389780960
C           -2.21832784039010        4.66875213673915       -2.14804261832845
C           -2.19172378737644        3.39029246544324       -1.62279101473113
C           -1.10730626189927        3.03780925007498       -0.83357156847269
C           -1.02034355904519       -0.54476716330343       -0.54864317302589
C            1.45558024850730       -2.67239521223760       -1.79600101180058
C            2.71069677924801       -2.10930564507643       -1.65107914966496
C            4.45058330865908        0.25403955810741       -0.65168825649385
C            3.37989762775873        0.82400318426755       -1.34642974309265
C            3.42302399097223        2.12966519934114       -1.78550013933652
C            4.53678636482392        2.90565805413332       -1.52517689432335
C            5.58270502044231        2.35882001610602       -0.80821709993153
C            5.56669285350368        1.04423385181272       -0.35973570384501
H            6.95838471524488        2.41411691837838        1.53052746753896
H            7.66533431310491        1.03090623496077        2.36229497485636
H            5.91373447229469        1.23809921917054        2.33013113279214
H            8.19453143623082        1.72871267619113       -0.64054947230557
H            8.89385055372391        0.34517368017775        0.18881280912675
H            7.95488803955835        0.10444443893813       -1.28421764347198
H            8.45908675610930       -1.01791458481349        1.83199843988615
H            8.31160486896856       -3.38467474975718        2.40401351329687
H            6.34559685953822       -4.70472522237453        1.66376665273379
H            4.54662771087184       -3.61470349570870        0.42406326550674
H            2.84206523567220       -1.92875778424589        1.72966616752389
H            0.58397150074273       -2.96424632433196        1.45330527769258
H           -3.67162634501316       -2.58102472696218       -0.10717079059624
H           -4.01495122095649        1.18443003332331        2.50329315213289
H           -5.47900528259342        2.23211645140054        4.17736301186372
H           -7.91095170783754        1.95664820387193        4.08542416267367
H           -8.95660265632111        0.58388194957243        2.31302859209572
H           -9.46466821336126       -1.00957389843661        0.15467874133547
H           -9.30752727523726       -2.43862229088556       -1.85832243261316
H           -7.13586363810094       -2.90372353193382       -2.89169591145102
H           -5.05546275873115       -1.99381308568661       -1.94932786590543
H           -3.42517963687979        1.68570271989215        0.29345372009340
H            0.69399736549996        0.04855447898174        1.38757653634584
H            2.85996307315188        0.72325065495625        2.34493172906343
H            3.77439605021897        2.96123858182471        1.95616307262403
H            2.52826448340033        4.61269172185378        0.60603139774117
H            0.70912802489833        5.91914619652711       -0.96658589214799
H           -1.24900210535494        6.56622475543493       -2.33331639754068
H           -3.05383768604925        4.96809715244997       -2.76304467804821
H           -2.98441095199975        2.68931916754449       -1.83568906966263
H            0.01738278133673       -0.57742790960473       -0.83555821122561
H            1.03594336221731       -2.88853294920088       -2.76597974645488
H            3.31395900236554       -1.87879091605213       -2.51622417637762
H            2.49211905866579        0.24435221764975       -1.54097930597259
H            2.58178910925294        2.53876635969804       -2.32446538167059
H            4.58590213741248        3.92860930043449       -1.86475458631687
H            6.43669165210157        2.98142136299287       -0.58890637398562

          :  Hamiltonian                  GFN2-xTB          :
         :: gradient norm              0.000061645104 Eh/a0 ::
         :: HOMO-LUMO gap              2.298763948441 eV    ::
         :: SCC energy              -150.930781134919 Eh    ::
         :: -> dispersion             -0.151162332598 Eh    ::
         :: repulsion energy           2.616697753397 Eh    ::

    * Orbital Energies and Occupations

         #    Occupation            Energy/Eh            Energy/eV
      -------------------------------------------------------------
         1        2.0000           -0.7739377             -21.0599
       ...           ...                  ...                  ...
       125        2.0000           -0.4152531             -11.2996
       126        2.0000           -0.4145674             -11.2810
       127        2.0000           -0.4139341             -11.2637
       128        2.0000           -0.4107174             -11.1762
       129        2.0000           -0.4094339             -11.1413
       130        2.0000           -0.4088051             -11.1242
       131        2.0000           -0.4035326             -10.9807
       132        2.0000           -0.3983186             -10.8388
       133        2.0000           -0.3873551             -10.5405
       134        2.0000           -0.3829725             -10.4212
       135        2.0000           -0.3741417             -10.1809
       136        2.0000           -0.3703324             -10.0773
       137        2.0000           -0.3548735              -9.6566 (HOMO)
       138                         -0.2703955              -7.3578 (LUMO)
       139                         -0.2634418              -7.1686
       140                         -0.2617156              -7.1216
       141                         -0.2570495              -6.9947
       142                         -0.2516735              -6.8484
       143                         -0.2471946              -6.7265
       144                         -0.2306147              -6.2753
       145                         -0.2303458              -6.2680
       146                         -0.2261067              -6.1527
       147                         -0.2250787              -6.1247
       148                         -0.2239546              -6.0941
       ...                                ...                  ...
       270                          1.2119516              32.9789
      -------------------------------------------------------------
                  HL-Gap            0.0844781 Eh            2.2988 eV

     #   Z          covCN         q      C6AA      α(0)
     1   6 C        3.761    -0.102    22.491     6.761
     2   6 C        3.909     0.022    20.153     6.381
     3   6 C        3.761    -0.105    22.550     6.769
     4   6 C        2.980    -0.012    28.310     8.728
     5   6 C        2.928    -0.036    28.890     8.815
     6   6 C        2.917    -0.043    29.061     8.840
     7   6 C        2.920    -0.032    28.802     8.801
     8   6 C        2.925    -0.058    29.440     8.898
     9   6 C        2.928     0.057    26.733     8.479
    10   7 N        2.753    -0.067    22.537     7.051
    11   6 C        2.928     0.077    26.276     8.406
    12   6 C        2.924    -0.033    28.829     8.805
    13   6 C        2.963    -0.028    28.689     8.786
    14   6 C        2.972    -0.078    29.936     8.975
    15  16 S        3.819     0.957   107.889    17.482
    16   8 O        0.860    -0.538    24.643     6.656
    17   8 O        0.860    -0.540    24.680     6.661
    18   6 C        2.966    -0.073    29.826     8.958
    19   6 C        2.965    -0.043    29.058     8.842
    20   6 C        2.913     0.075    26.322     8.413
    21   7 N        2.802    -0.039    22.000     6.966
    22   6 C        3.067     0.046    26.904     8.505
    23   6 C        2.910    -0.051    29.264     8.870
    24   6 C        2.924    -0.032    28.808     8.802
    25   6 C        2.920    -0.039    28.973     8.827
    26   6 C        2.913    -0.032    28.792     8.799
    27   6 C        3.067    -0.014    28.287     8.721
    28   6 C        3.067    -0.014    28.297     8.723
    29   6 C        2.913    -0.032    28.796     8.799
    30   6 C        2.920    -0.038    28.957     8.824
    31   6 C        2.925    -0.031    28.764     8.795
    32   6 C        2.910    -0.050    29.233     8.866
    33   6 C        3.069     0.046    26.899     8.504
    34   6 C        2.924    -0.060    29.488     8.905
    35   6 C        2.912     0.073    26.368     8.420
    36   7 N        2.802    -0.042    22.059     6.976
    37   6 C        3.072     0.046    26.897     8.504
    38   6 C        2.910    -0.052    29.293     8.875
    39   6 C        2.925    -0.031    28.763     8.795
    40   6 C        2.920    -0.038    28.934     8.821
    41   6 C        2.913    -0.030    28.748     8.792
    42   6 C        3.066    -0.013    28.276     8.719
    43   6 C        3.068    -0.014    28.301     8.723
    44   6 C        2.913    -0.032    28.791     8.799
    45   6 C        2.920    -0.039    28.972     8.827
    46   6 C        2.924    -0.032    28.793     8.800
    47   6 C        2.910    -0.051    29.256     8.869
    48   6 C        3.069     0.046    26.888     8.503
    49   6 C        2.951    -0.056    29.380     8.890
    50   6 C        2.956    -0.027    28.675     8.783
    51   6 C        2.923    -0.036    28.890     8.814
    52   6 C        2.925     0.057    26.715     8.476
    53   6 C        2.925    -0.057    29.425     8.896
    54   6 C        2.920    -0.030    28.753     8.793
    55   6 C        2.918    -0.042    29.041     8.837
    56   6 C        2.929    -0.035    28.883     8.814
    57   6 C        2.980    -0.012    28.296     8.726
    58   1 H        0.925     0.040     2.454     2.450
    59   1 H        0.925     0.041     2.442     2.444
    60   1 H        0.925     0.031     2.573     2.508
    61   1 H        0.925     0.041     2.439     2.442
    62   1 H        0.925     0.041     2.435     2.440
    63   1 H        0.925     0.033     2.546     2.495
    64   1 H        0.926     0.033     2.549     2.497
    65   1 H        0.926     0.030     2.590     2.517
    66   1 H        0.926     0.031     2.568     2.506
    67   1 H        0.926     0.025     2.654     2.548
    68   1 H        0.926     0.058     2.228     2.334
    69   1 H        0.926     0.059     2.215     2.328
    70   1 H        0.926     0.070     2.084     2.258
    71   1 H        0.926     0.027     2.631     2.537
    72   1 H        0.926     0.032     2.558     2.501
    73   1 H        0.926     0.032     2.562     2.503
    74   1 H        0.926     0.035     2.517     2.481
    75   1 H        0.926     0.034     2.523     2.484
    76   1 H        0.926     0.033     2.548     2.496
    77   1 H        0.926     0.036     2.501     2.473
    78   1 H        0.926     0.033     2.543     2.494
    79   1 H        0.926     0.065     2.145     2.290
    80   1 H        0.926     0.021     2.715     2.577
    81   1 H        0.926     0.026     2.638     2.540
    82   1 H        0.926     0.032     2.556     2.500
    83   1 H        0.926     0.036     2.502     2.474
    84   1 H        0.926     0.035     2.520     2.483
    85   1 H        0.926     0.033     2.551     2.498
    86   1 H        0.926     0.034     2.534     2.489
    87   1 H        0.926     0.029     2.599     2.521
    88   1 H        0.926     0.043     2.404     2.425
    89   1 H        0.926     0.069     2.101     2.267
    90   1 H        0.926     0.060     2.194     2.317
    91   1 H        0.926     0.018     2.767     2.601
    92   1 H        0.926     0.028     2.615     2.529
    93   1 H        0.926     0.030     2.592     2.518
    94   1 H        0.926     0.034     2.534     2.489

molecular dipole:
                 x           y           z       tot (Debye)
 q only:        1.126       2.007       0.484
   full:        1.142       1.826       0.459       5.596

 projected vibrational frequencies (cm⁻¹)
eigval :       -0.00    -0.00     0.00     0.00     0.00     0.00
eigval :        7.42    15.06    18.80    23.95    24.15    29.43
eigval :       33.89    38.40    48.56    61.50    65.20    72.78
eigval :       78.31    86.96    99.50   101.58   109.20   117.33
eigval :      121.67   125.85   128.85   140.49   146.22   150.67
eigval :      160.91   168.81   187.02   193.51   212.01   216.87
eigval :      222.63   237.74   238.89   244.15   258.36   268.96
eigval :      273.41   276.54   297.93   301.78   303.99   316.34
eigval :      326.25   336.01   341.53   353.37   365.22   373.26
eigval :      373.57   379.79   395.52   396.94   398.31   411.19
eigval :      413.33   422.79   423.83   436.98   438.52   440.25
eigval :      455.81   481.64   496.03   511.83   512.71   515.42
eigval :      517.28   520.35   525.06   535.06   541.17   541.48
eigval :      546.68   548.12   559.31   564.55   581.64   586.16
eigval :      588.37   592.89   605.04   607.78   620.18   639.24
eigval :      641.81   651.15   671.15   673.72   677.56   681.87
eigval :      684.86   694.69   697.81   708.45   709.26   747.98
eigval :      749.76   754.33   768.66   769.27   770.98   773.54
eigval :      776.84   780.44   780.92   782.30   816.07   827.61
eigval :      833.70   864.50   866.47   869.19   872.66   874.12
eigval :      878.43   882.49   888.90   896.31   897.52   899.18
eigval :      903.30   904.60   908.11   911.90   912.35   914.08
eigval :      914.55   915.48   920.64   922.14   922.84   923.41
eigval :      925.23   925.65   927.31   932.82   934.68   938.94
eigval :      957.34   995.24  1004.57  1011.73  1012.89  1014.27
eigval :     1032.31  1071.39  1072.25  1075.33  1076.33  1076.91
eigval :     1082.68  1093.66  1111.17  1111.56  1115.52  1121.96
eigval :     1122.76  1124.63  1130.00  1141.33  1153.20  1153.71
eigval :     1160.67  1165.36  1167.25  1175.41  1179.05  1180.69
eigval :     1181.46  1183.45  1187.21  1190.03  1203.37  1205.26
eigval :     1215.58  1234.94  1236.37  1236.63  1239.82  1245.43
eigval :     1248.23  1252.10  1252.19  1269.00  1294.95  1295.15
eigval :     1296.64  1300.27  1301.24  1312.00  1312.70  1314.09
eigval :     1326.54  1333.84  1334.21  1336.21  1356.69  1357.16
eigval :     1359.22  1362.80  1376.93  1393.96  1402.40  1416.67
eigval :     1418.30  1420.80  1426.99  1428.40  1435.60  1441.13
eigval :     1456.57  1460.00  1462.59  1475.79  1476.74  1478.86
eigval :     1486.66  1487.60  1489.57  1490.63  1494.77  1500.49
eigval :     1505.28  1546.50  1569.39  1572.01  1575.39  1576.67
eigval :     1577.73  1582.03  1589.63  1590.77  1592.02  1593.88
eigval :     1599.33  1600.50  1602.80  1613.45  1614.66  3026.47
eigval :     3030.45  3039.41  3044.88  3047.78  3055.49  3076.36
eigval :     3078.96  3080.53  3081.30  3081.35  3081.67  3084.45
eigval :     3085.22  3085.56  3085.81  3086.46  3086.90  3090.45
eigval :     3091.33  3092.65  3093.22  3093.61  3094.11  3094.94
eigval :     3098.23  3098.57  3099.26  3100.49  3101.38  3101.88
eigval :     3103.33  3107.20  3107.55  3108.66  3117.94  3122.33

   temp. (K)  partition function   enthalpy   heat capacity  entropy
                                   cal/mol     cal/K/mol   cal/K/mol   J/K/mol
 298.15  VIB  0.415E+21            27358.174    174.137    168.627
         ROT  0.115E+09              888.752      2.981     39.866
         INT  0.477E+29            28246.926    177.118    208.493
         TR   0.201E+29             1481.254      4.968     45.727
         TOT                       29728.1802   182.0858   254.2197  1063.6553

       T/K    H(0)-H(T)+PV         H(T)/Eh          T*S/Eh         G(T)/Eh
   ------------------------------------------------------------------------
    298.15    0.473749E-01    0.771295E+00    0.120788E+00    0.650507E+00
   ------------------------------------------------------------------------

         :::::::::::::::::::::::::::::::::::::::::::::::::::::
         ::                  THERMODYNAMIC                  ::
         :::::::::::::::::::::::::::::::::::::::::::::::::::::
         :: total free energy        -147.663576386413 Eh   ::
         ::.................................................::
         :: total energy             -148.314083381494 Eh   ::
         :: zero point energy           0.723920119822 Eh   ::
         :: G(RRHO) w/o ZPVE           -0.073413124741 Eh   ::
         :: G(RRHO) contrib.            0.650506995081 Eh   ::
         :::::::::::::::::::::::::::::::::::::::::::::::::::::

           -------------------------------------------------
          | TOTAL ENERGY             -148.314083381494 Eh   |
          | TOTAL ENTHALPY           -147.542788390930 Eh   |
          | TOTAL FREE ENERGY        -147.663576386413 Eh   |
          | GRADIENT NORM               0.000040016506 Eh/α |
          | HOMO-LUMO GAP               2.298764794461 eV   |
           -------------------------------------------------

 * finished run on 2025/07/19 at 11:35:46.166
