   * xtb version 6.7.1 (edcfbbe) compiled by 'albert@albert-system' on 2024-07-22

   ID    Z sym.   atoms
    1    6 C      1-12, 14-16, 18-31, 33-45
    2    7 N      13, 17, 32
    3    1 H      46-72

          program call               : xtb data2507/toluene/TCP/TCP.xyz --gfn 2 --gbsa toluene --ohess vtight --parallel 40 --molden --ceasefiles --namespace data2507/toluene/TCP/TCP_toluene_S0_preOpt
      * Solvation model:               GBSA
        Solvent                        toluene
        Solvent mass                       9.2140E+01 g/mol
          :  Hamiltonian                  GFN2-xTB          :
 * total energy  :  -112.6105412 Eh     change       -0.3157766E-08 Eh
 * total energy  :  -112.6253942 Eh     change       -0.1485303E-01 Eh
 * total energy  :  -112.6283817 Eh     change       -0.2987495E-02 Eh
 * total energy  :  -112.6288877 Eh     change       -0.5059268E-03 Eh
 * total energy  :  -112.6292057 Eh     change       -0.3180466E-03 Eh
 * total energy  :  -112.6293177 Eh     change       -0.1119735E-03 Eh
 * total energy  :  -112.6293925 Eh     change       -0.7478379E-04 Eh
 * total energy  :  -112.6294286 Eh     change       -0.3616386E-04 Eh
 * total energy  :  -112.6294138 Eh     change        0.1486384E-04 Eh
 * total energy  :  -112.6294457 Eh     change       -0.3194501E-04 Eh
 * total energy  :  -112.6297370 Eh     change       -0.3673975E-06 Eh
 * total energy  :  -112.6297374 Eh     change       -0.3606576E-06 Eh
 * total energy  :  -112.6297378 Eh     change       -0.3959461E-06 Eh
 * total energy  :  -112.6297383 Eh     change       -0.5228478E-06 Eh
 * total energy  :  -112.6297391 Eh     change       -0.7962620E-06 Eh
 * total energy  :  -112.6297402 Eh     change       -0.1101769E-05 Eh
 * total energy  :  -112.6297414 Eh     change       -0.1186149E-05 Eh
 * total energy  :  -112.6297423 Eh     change       -0.9183616E-06 Eh
 * total energy  :  -112.6297423 Eh     change       -0.4010445E-08 Eh
   *** GEOMETRY OPTIMIZATION CONVERGED AFTER 44 ITERATIONS ***

 final structure:
================
72
 xtb: 6.7.1 (edcfbbe)
C           -6.21011249533173        1.23178551761735        0.84565014282334
C           -5.28406049968592        0.36737687666974        1.42549727432668
C           -3.96458621090475        0.34544174439693        1.01539915006720
C           -3.58522584430394        1.20550134129141       -0.00450120006763
C           -4.51238428469353        2.10333680532023       -0.58124761159082
C           -5.83335727851616        2.10960145584919       -0.15170500072175
C           -3.78617271718787        2.87121495709402       -1.55465358827218
C           -4.15038702327419        3.87680875690723       -2.44109003190515
C           -3.18697308830867        4.39982032267664       -3.28075833571819
C           -1.87896887694187        3.92064178407657       -3.25500183719628
C           -1.49308247398761        2.92092121986812       -2.38188120179131
C           -2.45065629664307        2.40907027621447       -1.51782416594975
N           -2.34195762801241        1.40136444407711       -0.57619145618187
C           -1.17254235790626        0.69346228002826       -0.27241683829303
C           -1.17652454127854       -0.69774299200663       -0.26995971710124
C           -0.00219071289120       -1.39200696048070        0.00110141386387
N           -0.00451091570797       -2.79418259222457        0.00145012340371
C            0.84155814107603       -3.60506343216143       -0.73044957598796
C            1.82471121274157       -3.25804379490039       -1.64502623623360
C            2.51943116965219       -4.27741663551394       -2.26759746459886
C            2.23963720239158       -5.61570993134957       -1.99879157566322
C            1.24402510689883       -5.96828323885903       -1.10909534831131
C            0.53308806459859       -4.96002558786929       -0.47047698818735
C           -0.55274995637776       -4.95798886095974        0.47046810576717
C           -1.26876317254408       -5.96357245701046        1.10762666930977
C           -2.26269305971642       -5.60727119572304        1.99771638684603
C           -2.53583468104409       -4.26797678128954        2.26838714672437
C           -1.83597602027915       -3.25121523401345        1.64729941158914
C           -0.85459780680357       -3.60187596082692        0.73219164904959
C            1.17435081236923       -0.70129299054078        0.27150523461497
C            1.17481520238043        0.68995035712062        0.27271109368455
N            2.34676739793635        1.39413057563850        0.57545677085795
C            3.58910767064848        1.19269850412934        0.00374255093676
C            3.96418356768566        0.33174800566806       -1.01698117974274
C            5.28375332752544        0.34748115750257       -1.42701810761827
C            6.21405241446634        1.20674635621161       -0.84630828505166
C            5.84160244194446        2.08561244216556        0.15173823338368
C            4.52057828910126        2.08558754627052        0.58117680201905
C            3.79793203782888        2.85643383712810        1.55489131215217
C            4.16690115581821        3.85978650186708        2.44189277172389
C            3.20584829717940        4.38727239209363        3.28146174320634
C            1.89543812928344        3.91475743849160        3.25499396827615
C            1.50484198283466        2.91727025965050        2.38140400667583
C            2.46015749222828        2.40084871531807        1.51757943734148
C            0.00225415586802        1.38678158975894       -0.00007669423924
H           -7.23334321472276        1.21880118931972        1.19129345271129
H           -5.60252671749086       -0.29729161920588        2.21530268493756
H           -3.25163794909076       -0.31371205125700        1.48524773401723
H           -6.54718119060324        2.79172046477986       -0.58876953198448
H           -5.16819209755726        4.23581161661307       -2.47262898048473
H           -3.44852757261020        5.18456465847501       -3.97532266262744
H           -1.14995127063185        4.33732087447785       -3.93466942531061
H           -0.48067038458199        2.54636526157546       -2.38520475374778
H           -2.07956766322460       -1.23791844524940       -0.50840441744367
H            2.03241291929925       -2.22450015805683       -1.87495398335214
H            3.29277787509516       -4.03153261481360       -2.98072550019233
H            2.80515364526744       -6.38504340731326       -2.50375758875499
H            1.01601536958578       -7.00567167935666       -0.91466104673117
H           -1.04596146084731       -7.00180695265958        0.91170153978397
H           -2.83214459391625       -6.37448606428590        2.50148561232004
H           -3.30790712116169       -4.01928054931502        2.98192148840289
H           -2.03838330989250       -2.21695419249988        1.87876591210892
H            2.07574925169762       -1.24408653973634        0.51024269188710
H            3.24786580191611       -0.32325756141004       -1.48751571478429
H            5.59892323698475       -0.31792306053587       -2.21752300685736
H            7.23723692694508        1.18889645235756       -1.19186042544994
H            6.55878564165025        2.76381960973213        0.58938669997726
H            5.18649104579391        4.21364874816216        2.47387934367452
H            3.47108049330227        5.17045399311937        3.97639654974161
H            1.16825366809041        4.33496948934944        3.93445076253546
H            0.49053876427981        2.54786881417386        2.38416217751677
H            0.00398357630934        2.46543490818159       -0.00052857011416

          :  Hamiltonian                  GFN2-xTB          :
         :: gradient norm              0.000046553322 Eh/a0 ::
         :: HOMO-LUMO gap              3.064896685363 eV    ::
         :: SCC energy              -114.760952056802 Eh    ::
         :: -> dispersion             -0.103492991419 Eh    ::
         :: -> Gsolv                  -0.044417637268 Eh    ::
         :: repulsion energy           2.131209772459 Eh    ::

    * Orbital Energies and Occupations

         #    Occupation            Energy/Eh            Energy/eV
      -------------------------------------------------------------
         1        2.0000           -0.6823902             -18.5688
       ...           ...                  ...                  ...
        93        2.0000           -0.4208192             -11.4511
        94        2.0000           -0.4190291             -11.4024
        95        2.0000           -0.4181085             -11.3773
        96        2.0000           -0.4171825             -11.3521
        97        2.0000           -0.4077235             -11.0947
        98        2.0000           -0.4077015             -11.0941
        99        2.0000           -0.4076341             -11.0923
       100        2.0000           -0.3810944             -10.3701
       101        2.0000           -0.3810897             -10.3700
       102        2.0000           -0.3809887             -10.3672
       103        2.0000           -0.3689743             -10.0403
       104        2.0000           -0.3669929              -9.9864
       105        2.0000           -0.3651488              -9.9362 (HOMO)
       106                         -0.2525159              -6.8713 (LUMO)
       107                         -0.2521579              -6.8616
       108                         -0.2473638              -6.7311
       109                         -0.2431428              -6.6163
       110                         -0.2430378              -6.6134
       111                         -0.2244115              -6.1065
       112                         -0.2244056              -6.1064
       113                         -0.2242638              -6.1025
       114                         -0.2010103              -5.4698
       115                         -0.1920595              -5.2262
       116                         -0.1909042              -5.1948
       ...                                ...                  ...
       207                          0.7431768              20.2229
      -------------------------------------------------------------
                  HL-Gap            0.1126329 Eh            3.0649 eV

     #   Z          covCN         q      C6AA      α(0)
     1   6 C        2.920    -0.042    29.033     8.836
     2   6 C        2.923    -0.034    28.849     8.808
     3   6 C        2.910    -0.051    29.264     8.870
     4   6 C        3.072     0.047    26.882     8.501
     5   6 C        3.066    -0.017    28.371     8.734
     6   6 C        2.912    -0.034    28.845     8.807
     7   6 C        3.067    -0.017    28.366     8.733
     8   6 C        2.912    -0.034    28.847     8.807
     9   6 C        2.920    -0.041    29.030     8.835
    10   6 C        2.924    -0.034    28.849     8.808
    11   6 C        2.910    -0.052    29.281     8.873
    12   6 C        3.072     0.046    26.884     8.501
    13   7 N        2.802    -0.043    22.069     6.977
    14   6 C        2.910     0.069    26.459     8.435
    15   6 C        2.924    -0.062    29.541     8.913
    16   6 C        2.911     0.069    26.460     8.435
    17   7 N        2.802    -0.044    22.091     6.981
    18   6 C        3.075     0.047    26.875     8.500
    19   6 C        2.910    -0.051    29.256     8.869
    20   6 C        2.924    -0.034    28.848     8.808
    21   6 C        2.920    -0.042    29.038     8.837
    22   6 C        2.912    -0.034    28.847     8.807
    23   6 C        3.067    -0.018    28.377     8.735
    24   6 C        3.067    -0.018    28.377     8.735
    25   6 C        2.912    -0.034    28.847     8.807
    26   6 C        2.920    -0.042    29.038     8.837
    27   6 C        2.924    -0.034    28.848     8.808
    28   6 C        2.910    -0.051    29.256     8.869
    29   6 C        3.075     0.047    26.875     8.500
    30   6 C        2.924    -0.062    29.541     8.913
    31   6 C        2.910     0.069    26.459     8.435
    32   7 N        2.802    -0.043    22.069     6.977
    33   6 C        3.072     0.047    26.882     8.501
    34   6 C        2.910    -0.051    29.263     8.870
    35   6 C        2.923    -0.034    28.849     8.808
    36   6 C        2.920    -0.042    29.033     8.836
    37   6 C        2.912    -0.034    28.845     8.807
    38   6 C        3.066    -0.017    28.371     8.734
    39   6 C        3.067    -0.017    28.366     8.733
    40   6 C        2.912    -0.034    28.847     8.807
    41   6 C        2.920    -0.041    29.030     8.835
    42   6 C        2.924    -0.034    28.849     8.808
    43   6 C        2.910    -0.052    29.281     8.873
    44   6 C        3.072     0.046    26.884     8.501
    45   6 C        2.925    -0.063    29.572     8.918
    46   1 H        0.926     0.030     2.592     2.518
    47   1 H        0.926     0.032     2.561     2.503
    48   1 H        0.926     0.028     2.609     2.526
    49   1 H        0.926     0.032     2.555     2.500
    50   1 H        0.926     0.032     2.552     2.498
    51   1 H        0.926     0.030     2.590     2.517
    52   1 H        0.926     0.032     2.563     2.504
    53   1 H        0.926     0.030     2.583     2.513
    54   1 H        0.926     0.055     2.255     2.348
    55   1 H        0.926     0.027     2.629     2.535
    56   1 H        0.926     0.032     2.563     2.504
    57   1 H        0.926     0.029     2.594     2.519
    58   1 H        0.926     0.032     2.558     2.501
    59   1 H        0.926     0.032     2.558     2.501
    60   1 H        0.926     0.029     2.594     2.519
    61   1 H        0.926     0.032     2.563     2.504
    62   1 H        0.926     0.027     2.629     2.536
    63   1 H        0.926     0.055     2.255     2.348
    64   1 H        0.926     0.028     2.610     2.526
    65   1 H        0.926     0.032     2.561     2.503
    66   1 H        0.926     0.030     2.592     2.518
    67   1 H        0.926     0.032     2.555     2.500
    68   1 H        0.926     0.032     2.552     2.498
    69   1 H        0.926     0.030     2.590     2.517
    70   1 H        0.926     0.032     2.563     2.504
    71   1 H        0.926     0.030     2.583     2.513
    72   1 H        0.926     0.056     2.240     2.341

molecular dipole:
                 x           y           z       tot (Debye)
 q only:       -0.000       0.051      -0.000
   full:       -0.000       0.044      -0.000       0.111

 projected vibrational frequencies (cm⁻¹)
eigval :       -0.00    -0.00     0.00     0.00     0.00     0.00
eigval :       16.75    18.59    20.71    23.18    25.61    31.85
eigval :       58.18    68.17    72.08    96.53   100.48   105.70
eigval :      133.98   140.69   140.79   146.70   150.14   152.00
eigval :      205.54   213.61   233.77   250.51   256.96   270.52
eigval :      270.93   272.44   282.69   285.65   323.46   330.29
eigval :      369.67   371.67   392.76   394.86   396.74   421.22
eigval :      421.86   422.99   434.15   435.49   437.21   458.61
eigval :      511.39   512.29   518.54   520.24   520.27   530.22
eigval :      540.57   540.65   541.73   543.10   560.96   577.56
eigval :      587.78   587.93   594.28   620.66   620.72   640.50
eigval :      648.87   665.46   670.23   672.57   673.03   676.28
eigval :      706.60   706.79   707.68   748.84   749.57   755.96
eigval :      764.82   767.12   768.06   770.03   770.47   777.34
eigval :      779.04   780.14   841.70   862.53   863.38   867.10
eigval :      867.88   872.71   877.73   891.39   895.04   896.45
eigval :      896.91   898.22   899.37   900.00   900.20   902.67
eigval :      904.35   906.68   909.68   919.05   919.69   922.42
eigval :      923.10   923.13   926.20   992.35  1009.67  1010.64
eigval :     1011.88  1034.14  1034.49  1065.77  1066.99  1069.82
eigval :     1071.06  1072.86  1073.52  1116.39  1118.42  1122.20
eigval :     1146.83  1149.56  1151.89  1164.39  1164.55  1174.63
eigval :     1177.63  1177.80  1180.55  1180.78  1181.43  1204.21
eigval :     1223.81  1230.16  1231.06  1233.84  1234.14  1235.58
eigval :     1254.13  1293.66  1294.15  1298.67  1299.62  1300.78
eigval :     1301.20  1314.61  1332.03  1332.89  1355.46  1355.78
eigval :     1356.43  1359.99  1360.56  1361.32  1395.82  1415.72
eigval :     1416.08  1425.63  1425.82  1426.75  1452.94  1454.63
eigval :     1460.30  1473.75  1475.99  1476.01  1486.15  1486.23
eigval :     1486.62  1562.44  1563.35  1573.06  1574.42  1574.42
eigval :     1587.83  1588.01  1589.14  1597.68  1598.05  1598.83
eigval :     1612.42  1612.63  1614.07  3072.38  3072.64  3072.85
eigval :     3072.88  3073.52  3073.53  3078.21  3078.43  3078.48
eigval :     3079.01  3079.82  3079.84  3086.24  3086.32  3086.96
eigval :     3087.90  3089.06  3089.14  3093.25  3093.43  3093.50
eigval :     3095.55  3098.22  3098.38  3106.13  3106.84  3109.11

   temp. (K)  partition function   enthalpy   heat capacity  entropy
                                   cal/mol     cal/K/mol   cal/K/mol   J/K/mol
 298.15  VIB  0.180E+15            19383.356    127.893    117.479
         ROT  0.306E+08              888.752      2.981     37.236
         INT  0.551E+22            20272.108    130.874    154.716
         TR   0.133E+29             1481.254      4.968     44.905
         TOT                       21753.3621   135.8417   199.6207   835.2131

       T/K    H(0)-H(T)+PV         H(T)/Eh          T*S/Eh         G(T)/Eh
   ------------------------------------------------------------------------
    298.15    0.346662E-01    0.587104E+00    0.948462E-01    0.492258E+00
   ------------------------------------------------------------------------

         :::::::::::::::::::::::::::::::::::::::::::::::::::::
         ::                  THERMODYNAMIC                  ::
         :::::::::::::::::::::::::::::::::::::::::::::::::::::
         :: total free energy        -112.137484264600 Eh   ::
         ::.................................................::
         :: total energy             -112.629742286215 Eh   ::
         :: zero point energy           0.552438079652 Eh   ::
         :: G(RRHO) w/o ZPVE           -0.060180058037 Eh   ::
         :: G(RRHO) contrib.            0.492258021615 Eh   ::
         :::::::::::::::::::::::::::::::::::::::::::::::::::::

           -------------------------------------------------
          | TOTAL ENERGY             -112.629742286215 Eh   |
          | TOTAL ENTHALPY           -112.042638017447 Eh   |
          | TOTAL FREE ENERGY        -112.137484264600 Eh   |
          | GRADIENT NORM               0.000046553530 Eh/α |
          | HOMO-LUMO GAP               3.064896558145 eV   |
           -------------------------------------------------

 * finished run on 2025/09/09 at 06:09:34.914
