   * xtb version 6.7.1 (edcfbbe) compiled by 'albert@albert-system' on 2024-07-22

   ID    Z sym.   atoms
    1    6 C      1-12, 14-16, 18-31, 33-45
    2    7 N      13, 17, 32
    3    1 H      46-72

          program call               : xtb data2507/toluene/TCP/TCP_toluene_T1_crest.xyz --gfn 2 --uhf 2 --gbsa toluene --ohess vtight --parallel 40 --molden --ceasefiles --namespace data2507/toluene/TCP/TCP_toluene_T1_finalOpt
      * Solvation model:               GBSA
        Solvent                        toluene
        Solvent mass                       9.2140E+01 g/mol
          :  Hamiltonian                  GFN2-xTB          :
 * total energy  :  -112.5174003 Eh     change       -0.1266926E-08 Eh
 * total energy  :  -112.5174344 Eh     change       -0.3404611E-04 Eh
 * total energy  :  -112.5174519 Eh     change       -0.1750178E-04 Eh
 * total energy  :  -112.5174587 Eh     change       -0.6814699E-05 Eh
 * total energy  :  -112.5174661 Eh     change       -0.7394092E-05 Eh
 * total energy  :  -112.5174716 Eh     change       -0.5474523E-05 Eh
 * total energy  :  -112.5174770 Eh     change       -0.5459898E-05 Eh
 * total energy  :  -112.5174827 Eh     change       -0.5693480E-05 Eh
 * total energy  :  -112.5174878 Eh     change       -0.5102637E-05 Eh
 * total energy  :  -112.5174919 Eh     change       -0.4081662E-05 Eh
 * total energy  :  -112.5175327 Eh     change       -0.6531035E-06 Eh
 * total energy  :  -112.5175332 Eh     change       -0.4685933E-06 Eh
 * total energy  :  -112.5175338 Eh     change       -0.5671348E-06 Eh
 * total energy  :  -112.5175342 Eh     change       -0.4073948E-06 Eh
 * total energy  :  -112.5175346 Eh     change       -0.3820904E-06 Eh
 * total energy  :  -112.5175350 Eh     change       -0.4258378E-06 Eh
 * total energy  :  -112.5175354 Eh     change       -0.3655941E-06 Eh
 * total energy  :  -112.5175357 Eh     change       -0.3837168E-06 Eh
 * total energy  :  -112.5175358 Eh     change       -0.4319899E-07 Eh
   *** GEOMETRY OPTIMIZATION CONVERGED AFTER 44 ITERATIONS ***

 final structure:
================
72
 xtb: 6.7.1 (edcfbbe)
C            1.12337906829136        5.93337268147964        2.02987589704545
C            1.63921920381796        4.67012345642246        2.31409257619197
C            1.14976520344540        3.53811175105885        1.67549083208635
C            0.14035695467786        3.70066270300730        0.74289761067169
C           -0.41747203213909        4.98034456656242        0.47317352003226
C            0.09393906549415        6.10240528684933        1.12111758277585
C           -1.46906118337571        4.77769756367100       -0.47319187411113
C           -2.36429178091122        5.62880748707398       -1.11710636008406
C           -3.25555409711906        5.09002427936099       -2.02791372005637
C           -3.26060162683195        3.72659046730785       -2.31720678211114
C           -2.38271670478894        2.85793472623541       -1.68192399729399
C           -1.50686073632961        3.38326641462826       -0.74810550888960
N           -0.52885653889321        2.74771975297402       -0.00410997530288
C           -0.26470567680674        1.37894792319382       -0.00411996606479
C           -1.31248535746690        0.46636693056156        0.17069191317950
C           -1.04396396673141       -0.90042031100993        0.19135606387775
N           -2.07026319165479       -1.81771998097614        0.42519347050905
C           -3.29815979548929       -1.84926678760304       -0.20994280559718
C           -3.77618437281787       -1.06348284068111       -1.24471747308615
C           -5.05130301595162       -1.32346159072073       -1.72729736905396
C           -5.82689111451282       -2.35017460724948       -1.19227657616427
C           -5.34612156589032       -3.15946888940279       -0.17860899876605
C           -4.06743504899872       -2.92050405656279        0.31769414752772
C           -3.25846502379718       -3.55471515459003        1.31257558861642
C           -3.45636109544745       -4.63562536354403        2.16728217326663
C           -2.44895989691902       -4.97416464611720        3.05308545753168
C           -1.26023219748841       -4.24924446163503        3.10795961648772
C           -1.03713424880552       -3.17099645079034        2.26211066599425
C           -2.03005714624973       -2.84247782845410        1.35375551939256
C            0.26378909327074       -1.36365467032755       -0.00079559943288
C            1.30552381471177       -0.44822291179585       -0.19442947606408
N            2.59954540476429       -0.91967774685471       -0.42502937693752
C            2.94449731907380       -1.88604632129741       -1.35290977905307
C            2.14624778727670       -2.55876710393528       -2.26351249975203
C            2.75574813833651       -3.47516746870553       -3.10997136320201
C            4.12854349554609       -3.70671323947303       -3.05275933727095
C            4.93635647649385       -3.01999366963037       -2.16392662802495
C            4.34928553391138       -2.09189270921844       -1.30834253213270
C            4.86269354707902       -1.20429568786893       -0.31072336424630
C            6.13686306927032       -0.95492906554296        0.19220291866455
C            6.27989688481044       -0.02785971990891        1.20897546759742
C            5.17759594268619        0.63979193759432        1.73912853174449
C            3.89896730232234        0.41138698049047        1.24993971539354
C            3.74973865605172       -0.49446463430024        0.21371684749931
C            1.04755941021097        0.92062291166984       -0.17766016234654
H            1.53041416477773        6.79446810497740        2.53994054549227
H            2.42801402545308        4.56780093405844        3.04379399741259
H            1.53655642206027        2.56042339471353        1.91561899862796
H           -0.31078131862799        7.08246172536216        0.91891787709838
H           -2.35663709104866        6.68824222068286       -0.91032372389208
H           -3.95571188982149        5.73773816122998       -2.53540479457190
H           -3.95342165850069        3.33894983224555       -3.04856847809373
H           -2.37547116537075        1.80740516069834       -1.92592441901459
H           -2.31209799762193        0.82553299863619        0.35660397357835
H           -3.17429277499456       -0.27965315880486       -1.67640932951562
H           -5.44594327545809       -0.72124823430089       -2.53167303147381
H           -6.81810085329308       -2.52112871317992       -1.58661591059554
H           -5.94542139519020       -3.96436990048645        0.21910768819890
H           -4.38026332395448       -5.19315291476391        2.13936302386329
H           -2.58742839729591       -5.80962817320648        3.72393314496523
H           -0.50009313048496       -4.52623689116170        3.82281368134643
H           -0.12179704025385       -2.60252213957035        2.32557948556381
H            0.46774604902700       -2.42184636579585        0.00036136936610
H            1.08536761398856       -2.37083982814560       -2.32908166152216
H            2.15456394765603       -4.01304316335192       -3.82737394878722
H            4.56865420956785       -4.42976567325743       -3.72414944740605
H            6.00118529776893       -3.19454932697711       -2.13401005134891
H            6.99307737156176       -1.48062516411897       -0.20247455403910
H            7.26210665217746        0.17761650445420        1.60929405336978
H            5.31790817462308        1.34389218770695        2.54532993945311
H            3.04804190228289        0.91706219868433        1.67798456874152
H            1.84261311894712        1.62476903342603       -0.36420322795877

          :  Hamiltonian                  GFN2-xTB          :
         :: gradient norm              0.000073692285 Eh/a0 ::
         :: HOMO-LUMO gap              0.014816771734 eV    ::
         :: SCC energy              -114.624726353342 Eh    ::
         :: -> dispersion             -0.103622431725 Eh    ::
         :: -> Gsolv                  -0.044369645740 Eh    ::
         :: repulsion energy           2.107190572057 Eh    ::

    * Orbital Energies and Occupations

         #    Occupation            Energy/Eh            Energy/eV
      -------------------------------------------------------------
         1        2.0000           -0.6819099             -18.5557
       ...           ...                  ...                  ...
        94        2.0000           -0.4193635             -11.4115
        95        2.0000           -0.4158848             -11.3168
        96        2.0000           -0.4145867             -11.2815
        97        2.0000           -0.4084934             -11.1157
        98        2.0000           -0.4084606             -11.1148
        99        2.0000           -0.4084113             -11.1134
       100        2.0000           -0.3795207             -10.3273
       101        2.0000           -0.3794795             -10.3262
       102        2.0000           -0.3789596             -10.3120
       103        1.9824           -0.3712002             -10.1009
       104        1.6960           -0.3681666             -10.0183
       105        1.3217           -0.3666710              -9.9776
       106        0.5566           -0.2519760              -6.8566 (HOMO)
       107        0.4144           -0.2514317              -6.8418 (LUMO)
       108        0.0289           -0.2484224              -6.7599
       109        0.0000           -0.2420639              -6.5869
       110        0.0000           -0.2410009              -6.5580
       111                         -0.2253445              -6.1319
       112                         -0.2253289              -6.1315
       113                         -0.2252238              -6.1287
       114                         -0.2025649              -5.5121
       115                         -0.1926739              -5.2429
       116                         -0.1914127              -5.2086
       117                         -0.1885626              -5.1311
       ...                                ...                  ...
       207                          0.7424165              20.2022
      -------------------------------------------------------------
                  HL-Gap            0.0005443 Eh            0.0148 eV

     #   Z          covCN         q      C6AA      α(0)
     1   6 C        2.918    -0.034    28.837     8.806
     2   6 C        2.921    -0.044    29.084     8.844
     3   6 C        2.909    -0.045    29.113     8.848
     4   6 C        3.067     0.043    26.978     8.517
     5   6 C        3.061    -0.020    28.433     8.744
     6   6 C        2.910    -0.037    28.926     8.819
     7   6 C        3.061    -0.020    28.433     8.744
     8   6 C        2.910    -0.037    28.925     8.819
     9   6 C        2.918    -0.034    28.837     8.806
    10   6 C        2.921    -0.044    29.084     8.844
    11   6 C        2.909    -0.045    29.113     8.847
    12   6 C        3.067     0.043    26.978     8.517
    13   7 N        2.799    -0.014    21.527     6.891
    14   6 C        2.908     0.053    26.814     8.491
    15   6 C        2.919    -0.066    29.641     8.928
    16   6 C        2.907     0.057    26.725     8.477
    17   7 N        2.800    -0.019    21.619     6.906
    18   6 C        3.066     0.044    26.956     8.513
    19   6 C        2.909    -0.046    29.146     8.852
    20   6 C        2.921    -0.042    29.046     8.838
    21   6 C        2.918    -0.035    28.864     8.810
    22   6 C        2.911    -0.037    28.913     8.817
    23   6 C        3.062    -0.019    28.423     8.743
    24   6 C        3.062    -0.019    28.414     8.741
    25   6 C        2.911    -0.037    28.911     8.817
    26   6 C        2.918    -0.034    28.855     8.809
    27   6 C        2.921    -0.042    29.043     8.838
    28   6 C        2.908    -0.047    29.158     8.854
    29   6 C        3.067     0.044    26.952     8.513
    30   6 C        2.921    -0.066    29.648     8.929
    31   6 C        2.907     0.057    26.719     8.476
    32   7 N        2.800    -0.019    21.624     6.907
    33   6 C        3.067     0.044    26.950     8.513
    34   6 C        2.908    -0.047    29.159     8.854
    35   6 C        2.921    -0.042    29.041     8.837
    36   6 C        2.918    -0.034    28.856     8.809
    37   6 C        2.911    -0.037    28.911     8.817
    38   6 C        3.062    -0.019    28.413     8.741
    39   6 C        3.062    -0.019    28.422     8.742
    40   6 C        2.911    -0.037    28.913     8.817
    41   6 C        2.918    -0.035    28.864     8.810
    42   6 C        2.921    -0.042    29.044     8.838
    43   6 C        2.909    -0.046    29.147     8.853
    44   6 C        3.067     0.044    26.953     8.513
    45   6 C        2.919    -0.066    29.645     8.929
    46   1 H        0.926     0.031     2.572     2.508
    47   1 H        0.926     0.030     2.585     2.514
    48   1 H        0.926     0.031     2.576     2.510
    49   1 H        0.926     0.031     2.567     2.505
    50   1 H        0.926     0.031     2.567     2.505
    51   1 H        0.926     0.031     2.572     2.508
    52   1 H        0.926     0.030     2.585     2.514
    53   1 H        0.926     0.031     2.577     2.510
    54   1 H        0.926     0.049     2.332     2.388
    55   1 H        0.926     0.031     2.576     2.510
    56   1 H        0.926     0.030     2.580     2.512
    57   1 H        0.926     0.031     2.574     2.509
    58   1 H        0.926     0.032     2.563     2.504
    59   1 H        0.926     0.032     2.557     2.501
    60   1 H        0.926     0.031     2.568     2.506
    61   1 H        0.926     0.030     2.580     2.512
    62   1 H        0.926     0.033     2.546     2.495
    63   1 H        0.926     0.051     2.304     2.374
    64   1 H        0.926     0.033     2.547     2.496
    65   1 H        0.926     0.030     2.579     2.512
    66   1 H        0.926     0.031     2.568     2.506
    67   1 H        0.926     0.032     2.557     2.500
    68   1 H        0.926     0.032     2.563     2.503
    69   1 H        0.926     0.031     2.573     2.509
    70   1 H        0.926     0.030     2.579     2.511
    71   1 H        0.926     0.031     2.577     2.510
    72   1 H        0.926     0.049     2.332     2.388

molecular dipole:
                 x           y           z       tot (Debye)
 q only:        0.013      -0.061      -0.001
   full:        0.012      -0.054      -0.001       0.141

 projected vibrational frequencies (cm⁻¹)
eigval :       -0.00    -0.00     0.00     0.00     0.00     0.00
eigval :       16.61    18.48    22.38    25.13    27.46    33.60
eigval :       58.11    69.07    74.40    95.95    99.67   106.31
eigval :      131.88   135.42   137.57   144.78   147.22   148.32
eigval :      202.82   207.74   228.47   243.90   248.60   260.79
eigval :      262.44   265.34   280.74   289.03   322.16   329.11
eigval :      367.67   370.71   377.68   380.60   383.25   411.91
eigval :      414.63   415.15   431.25   432.54   433.86   449.71
eigval :      489.57   494.89   508.53   510.03   510.16   519.93
eigval :      522.37   522.93   530.50   539.65   556.61   568.63
eigval :      577.60   577.69   584.30   603.55   609.04   614.00
eigval :      625.46   642.32   657.64   660.06   660.58   663.11
eigval :      691.96   693.76   695.21   704.80   717.35   750.11
eigval :      750.98   752.57   752.98   754.20   754.96   757.50
eigval :      760.95   761.95   787.15   834.54   835.98   843.06
eigval :      845.38   850.79   852.40   853.43   858.31   862.45
eigval :      872.68   878.84   880.43   887.50   888.78   890.72
eigval :      892.94   893.43   895.48   901.85   902.40   904.12
eigval :      905.63   906.18   906.57   908.59   910.92   971.95
eigval :     1001.56  1002.29  1004.76  1018.82  1021.78  1054.89
eigval :     1056.43  1062.34  1063.04  1063.71  1067.96  1108.12
eigval :     1112.52  1112.83  1120.66  1127.75  1128.51  1151.79
eigval :     1158.94  1168.38  1169.93  1170.46  1172.28  1174.43
eigval :     1175.17  1197.89  1212.45  1214.39  1217.87  1219.52
eigval :     1220.63  1222.03  1243.96  1261.46  1265.82  1268.26
eigval :     1271.05  1271.30  1297.81  1304.88  1310.94  1311.10
eigval :     1312.44  1313.60  1349.88  1366.35  1368.17  1370.87
eigval :     1374.92  1387.35  1388.44  1391.56  1396.91  1404.41
eigval :     1425.10  1429.07  1432.71  1446.47  1448.75  1449.31
eigval :     1470.77  1471.96  1472.07  1503.58  1505.97  1507.38
eigval :     1512.16  1512.45  1552.88  1554.45  1556.29  1556.40
eigval :     1557.52  1558.98  1581.99  3072.94  3073.29  3073.43
eigval :     3073.48  3073.52  3073.83  3081.25  3081.82  3083.55
eigval :     3083.76  3084.04  3084.97  3087.39  3087.63  3089.82
eigval :     3090.16  3090.34  3091.11  3094.13  3095.25  3098.30
eigval :     3098.78  3099.48  3100.82  3107.66  3109.00  3114.36

   temp. (K)  partition function   enthalpy   heat capacity  entropy
                                   cal/mol     cal/K/mol   cal/K/mol   J/K/mol
 298.15  VIB  0.223E+15            19849.430    131.780    119.877
         ROT  0.306E+08              888.752      2.981     37.235
         INT  0.683E+22            20738.182    134.761    157.112
         TR   0.133E+29             1481.254      4.968     44.905
         TOT                       22219.4358   139.7290   202.0172   845.2402

       T/K    H(0)-H(T)+PV         H(T)/Eh          T*S/Eh         G(T)/Eh
   ------------------------------------------------------------------------
    298.15    0.354089E-01    0.578249E+00    0.959849E-01    0.482264E+00
   ------------------------------------------------------------------------

         :::::::::::::::::::::::::::::::::::::::::::::::::::::
         ::                  THERMODYNAMIC                  ::
         :::::::::::::::::::::::::::::::::::::::::::::::::::::
         :: total free energy        -112.035271384850 Eh   ::
         ::.................................................::
         :: total energy             -112.517535778077 Eh   ::
         :: zero point energy           0.542840380752 Eh   ::
         :: G(RRHO) w/o ZPVE           -0.060575987525 Eh   ::
         :: G(RRHO) contrib.            0.482264393227 Eh   ::
         :::::::::::::::::::::::::::::::::::::::::::::::::::::

           -------------------------------------------------
          | TOTAL ENERGY             -112.517535778077 Eh   |
          | TOTAL ENTHALPY           -111.939286472458 Eh   |
          | TOTAL FREE ENERGY        -112.035271384850 Eh   |
          | GRADIENT NORM               0.000071710043 Eh/α |
          | HOMO-LUMO GAP               0.014811396224 eV   |
           -------------------------------------------------

 * finished run on 2025/09/09 at 06:18:14.085
