   * xtb version 6.7.1 (edcfbbe) compiled by 'albert@albert-system' on 2024-07-22

   ID    Z sym.   atoms
    1    6 C      1-12, 14-16, 18-31, 33-45
    2    7 N      13, 17, 32
    3    1 H      46-72

          program call               : xtb data2507/toluene/TCP/TCP_toluene_S0_crest.xyz --gfn 2 --gbsa toluene --ohess vtight --parallel 40 --molden --ceasefiles --namespace data2507/toluene/TCP/TCP_toluene_S0_finalOpt
      * Solvation model:               GBSA
        Solvent                        toluene
        Solvent mass                       9.2140E+01 g/mol
          :  Hamiltonian                  GFN2-xTB          :
 * total energy  :  -112.6296513 Eh     change       -0.2857121E-08 Eh
 * total energy  :  -112.6296831 Eh     change       -0.3180999E-04 Eh
 * total energy  :  -112.6296984 Eh     change       -0.1534342E-04 Eh
 * total energy  :  -112.6297041 Eh     change       -0.5625473E-05 Eh
 * total energy  :  -112.6297095 Eh     change       -0.5469038E-05 Eh
 * total energy  :  -112.6297139 Eh     change       -0.4414925E-05 Eh
 * total energy  :  -112.6297187 Eh     change       -0.4754702E-05 Eh
 * total energy  :  -112.6297241 Eh     change       -0.5379986E-05 Eh
 * total energy  :  -112.6297295 Eh     change       -0.5422980E-05 Eh
 * total energy  :  -112.6297344 Eh     change       -0.4908287E-05 Eh
 * total energy  :  -112.6297499 Eh     change       -0.2378771E-05 Eh
 * total energy  :  -112.6297509 Eh     change       -0.1038523E-05 Eh
 * total energy  :  -112.6297514 Eh     change       -0.5223276E-06 Eh
 * total energy  :  -112.6297519 Eh     change       -0.4701374E-06 Eh
 * total energy  :  -112.6297525 Eh     change       -0.6260604E-06 Eh
 * total energy  :  -112.6297533 Eh     change       -0.7520059E-06 Eh
 * total energy  :  -112.6297541 Eh     change       -0.8140596E-06 Eh
 * total energy  :  -112.6297550 Eh     change       -0.9087354E-06 Eh
 * total energy  :  -112.6297550 Eh     change       -0.7719308E-08 Eh
   *** GEOMETRY OPTIMIZATION CONVERGED AFTER 22 ITERATIONS ***

 final structure:
================
72
 xtb: 6.7.1 (edcfbbe)
C           -5.64272788162526        2.74155614701657        1.22314242530265
C           -4.93402771334920        1.66233941805300        1.74665079046831
C           -3.68943241272641        1.31314462293354        1.25809526185148
C           -3.16458261538841        2.06399541803053        0.21669104559765
C           -3.86407765692474        3.17809959130416       -0.30111686724987
C           -5.11370575461750        3.51124120875592        0.20583133501022
C           -3.02331789056312        3.75337146347927       -1.31443511643478
C           -3.16646977833106        4.83769732279681       -2.17091735687486
C           -2.15035845156540        5.11432473828713       -3.06411691598867
C           -1.01026623327644        4.31543684494481       -3.12076177240095
C           -0.84521565843396        3.23188009567326       -2.27861438966946
C           -1.85080792310325        2.96503757452042       -1.36040482403278
N           -1.94880267857824        1.94585395342563       -0.43017446157693
C           -0.97947981064224        0.96211044843475       -0.19783956503156
C           -1.33095610726606       -0.38395269957965       -0.19881481423981
C           -0.35421267787732       -1.35437487224402        0.00078258543629
N           -0.70646805194775       -2.71124612058633       -0.00116866647808
C           -0.11334692226486       -3.70047675602371       -0.76299082339320
C            0.89205622403812       -3.60154269107746       -1.71327314100132
C            1.29028114689294       -4.75632264715284       -2.35928149611427
C            0.69678227510523       -5.98557631452368       -2.08012739836284
C           -0.32388029097612       -6.08687072299876       -1.15548459652847
C           -0.73858953548256       -4.93905565194401       -0.49198836394739
C           -1.75597592592474       -4.67702894957010        0.48797220043550
C           -2.67367681643916       -5.48187209970923        1.15113303771371
C           -3.51820168331238       -4.90029625430496        2.07608327224152
C           -3.44409295172296       -3.53730091899717        2.35532320938698
C           -2.53775536264647       -2.71828984924846        1.70936201511833
C           -1.70440180676542       -3.29064960075711        0.75984807560411
C            0.97129808287926       -0.98270769779011        0.20190756202355
C            1.31938463013674        0.36412319417504        0.20454647012413
N            2.64569351873225        0.75022313209265        0.43537636722492
C            3.76195120415714        0.26634502431676       -0.22042660441249
C            3.84915793799603       -0.63743821712111       -1.26885025942489
C            5.10336623534330       -0.93305058795373       -1.76803260991251
C            6.25024502952454       -0.33669618356726       -1.24834427143381
C            6.16846117333117        0.58452377009306       -0.22270656198228
C            4.91775893746084        0.89603786121288        0.29541333123771
C            4.46816480130072        1.80075937709893        1.31717947010696
C            5.12520407412239        2.67166326165090        2.17713174333365
C            4.37644561195552        3.40255569727468        3.07819884597614
C            2.99171384108407        3.26079738113760        3.13929862974607
C            2.31595684925983        2.40060350056594        2.29429877920618
C            3.06039307866135        1.68270437423379        1.36909128302801
C            0.34477322898766        1.33603297397093        0.00496047977830
H           -6.61453451649784        2.98186805616627        1.62869762223924
H           -5.36453316617795        1.08814506797678        2.55410290090627
H           -3.14063179711623        0.48820830118693        1.68455024441629
H           -5.65529935224186        4.35844755611884       -0.18752113095397
H           -4.05766687753200        5.44640956818713       -2.13836353233815
H           -2.23997820538740        5.95485136976647       -3.73653621749908
H           -0.23874615297666        4.54560447582287       -3.84101553308731
H            0.03526958258263        2.61077950413278       -2.34449924618151
H           -2.35245235835284       -0.67669928563308       -0.38551820406622
H            1.34218768789838       -2.65087649855296       -1.95285215906482
H            2.07555966797637       -4.70366374001316       -3.09928167877416
H            1.03602863686906       -6.86705463374713       -2.60410669793675
H           -0.79601177798703       -7.03650405888053       -0.95249832776737
H           -2.71923179973053       -6.54135512793078        0.94790247198730
H           -4.24077093431057       -5.50832458008412        2.60028025897306
H           -4.10617665942760       -3.11224094351317        3.09558117590133
H           -2.47325263942759       -1.66835778942697        1.94873895688858
H            1.72141817325077       -1.73599461604650        0.38616078673811
H            2.96571206501759       -1.08852682533819       -1.69262228772130
H            5.19540175817764       -1.63800776161418       -2.58139609168046
H            7.21365040840349       -0.59436219309738       -1.66311613183170
H            7.05609175174298        1.05923627746994        0.16799299601328
H            6.19990777530961        2.76905685307368        2.14054653895867
H            4.86749790180763        4.08781546977942        3.75348952799989
H            2.43324626698321        3.83392453350462        3.86497729398578
H            1.24460060827058        2.28725127617656        2.36366400744005
H            0.61609811096025        2.37997027388578        0.00720752959568

          :  Hamiltonian                  GFN2-xTB          :
         :: gradient norm              0.000067827499 Eh/a0 ::
         :: HOMO-LUMO gap              3.067321664269 eV    ::
         :: SCC energy              -114.760952646645 Eh    ::
         :: -> dispersion             -0.103546351760 Eh    ::
         :: -> Gsolv                  -0.044409262452 Eh    ::
         :: repulsion energy           2.131197619613 Eh    ::

    * Orbital Energies and Occupations

         #    Occupation            Energy/Eh            Energy/eV
      -------------------------------------------------------------
         1        2.0000           -0.6822793             -18.5658
       ...           ...                  ...                  ...
        93        2.0000           -0.4207783             -11.4500
        94        2.0000           -0.4190241             -11.4022
        95        2.0000           -0.4179478             -11.3729
        96        2.0000           -0.4171881             -11.3523
        97        2.0000           -0.4077383             -11.0951
        98        2.0000           -0.4076850             -11.0937
        99        2.0000           -0.4076378             -11.0924
       100        2.0000           -0.3810728             -10.3695
       101        2.0000           -0.3810614             -10.3692
       102        2.0000           -0.3810441             -10.3687
       103        2.0000           -0.3689639             -10.0400
       104        2.0000           -0.3669662              -9.9857
       105        2.0000           -0.3651507              -9.9363 (HOMO)
       106                         -0.2524287              -6.8689 (LUMO)
       107                         -0.2522035              -6.8628
       108                         -0.2473712              -6.7313
       109                         -0.2430611              -6.6140
       110                         -0.2429791              -6.6118
       111                         -0.2243985              -6.1062
       112                         -0.2243692              -6.1054
       113                         -0.2243395              -6.1046
       114                         -0.2010482              -5.4708
       115                         -0.1920603              -5.2262
       116                         -0.1907569              -5.1908
       ...                                ...                  ...
       207                          0.7431465              20.2220
      -------------------------------------------------------------
                  HL-Gap            0.1127220 Eh            3.0673 eV

     #   Z          covCN         q      C6AA      α(0)
     1   6 C        2.920    -0.042    29.034     8.836
     2   6 C        2.923    -0.034    28.849     8.808
     3   6 C        2.910    -0.051    29.262     8.870
     4   6 C        3.072     0.047    26.881     8.501
     5   6 C        3.067    -0.017    28.371     8.734
     6   6 C        2.912    -0.034    28.845     8.807
     7   6 C        3.067    -0.017    28.367     8.733
     8   6 C        2.912    -0.034    28.848     8.807
     9   6 C        2.920    -0.041    29.030     8.836
    10   6 C        2.924    -0.034    28.849     8.808
    11   6 C        2.910    -0.052    29.282     8.873
    12   6 C        3.073     0.046    26.884     8.501
    13   7 N        2.802    -0.043    22.070     6.977
    14   6 C        2.910     0.069    26.460     8.435
    15   6 C        2.924    -0.062    29.547     8.914
    16   6 C        2.911     0.069    26.461     8.435
    17   7 N        2.802    -0.044    22.082     6.979
    18   6 C        3.074     0.047    26.878     8.500
    19   6 C        2.910    -0.051    29.257     8.869
    20   6 C        2.923    -0.034    28.848     8.808
    21   6 C        2.920    -0.042    29.035     8.836
    22   6 C        2.912    -0.034    28.847     8.807
    23   6 C        3.067    -0.017    28.374     8.734
    24   6 C        3.067    -0.017    28.374     8.734
    25   6 C        2.912    -0.034    28.847     8.807
    26   6 C        2.920    -0.042    29.036     8.836
    27   6 C        2.923    -0.034    28.848     8.808
    28   6 C        2.910    -0.051    29.257     8.869
    29   6 C        3.074     0.047    26.877     8.500
    30   6 C        2.924    -0.062    29.546     8.914
    31   6 C        2.910     0.069    26.460     8.435
    32   7 N        2.802    -0.043    22.072     6.978
    33   6 C        3.073     0.047    26.880     8.501
    34   6 C        2.910    -0.051    29.263     8.870
    35   6 C        2.923    -0.034    28.849     8.808
    36   6 C        2.920    -0.042    29.034     8.836
    37   6 C        2.912    -0.034    28.845     8.807
    38   6 C        3.066    -0.017    28.372     8.734
    39   6 C        3.067    -0.017    28.368     8.734
    40   6 C        2.912    -0.034    28.848     8.807
    41   6 C        2.920    -0.041    29.031     8.836
    42   6 C        2.924    -0.034    28.849     8.808
    43   6 C        2.910    -0.052    29.281     8.873
    44   6 C        3.073     0.046    26.883     8.501
    45   6 C        2.925    -0.063    29.573     8.918
    46   1 H        0.926     0.030     2.593     2.518
    47   1 H        0.926     0.032     2.562     2.503
    48   1 H        0.926     0.028     2.612     2.527
    49   1 H        0.926     0.032     2.556     2.500
    50   1 H        0.926     0.032     2.553     2.498
    51   1 H        0.926     0.030     2.590     2.517
    52   1 H        0.926     0.032     2.564     2.504
    53   1 H        0.926     0.030     2.584     2.514
    54   1 H        0.926     0.055     2.254     2.348
    55   1 H        0.926     0.028     2.622     2.532
    56   1 H        0.926     0.032     2.562     2.503
    57   1 H        0.926     0.030     2.593     2.518
    58   1 H        0.926     0.032     2.557     2.500
    59   1 H        0.926     0.032     2.556     2.500
    60   1 H        0.926     0.030     2.593     2.518
    61   1 H        0.926     0.032     2.562     2.503
    62   1 H        0.926     0.028     2.622     2.532
    63   1 H        0.926     0.055     2.255     2.348
    64   1 H        0.926     0.028     2.613     2.528
    65   1 H        0.926     0.032     2.562     2.503
    66   1 H        0.926     0.030     2.593     2.518
    67   1 H        0.926     0.032     2.556     2.500
    68   1 H        0.926     0.032     2.553     2.499
    69   1 H        0.926     0.030     2.591     2.517
    70   1 H        0.926     0.032     2.564     2.504
    71   1 H        0.926     0.030     2.585     2.514
    72   1 H        0.926     0.056     2.243     2.342

molecular dipole:
                 x           y           z       tot (Debye)
 q only:        0.003       0.026       0.000
   full:        0.001       0.020       0.001       0.051

 projected vibrational frequencies (cm⁻¹)
eigval :       -0.00    -0.00    -0.00     0.00     0.00     0.00
eigval :       19.56    20.39    23.37    24.80    26.24    33.38
eigval :       56.48    68.85    72.10    97.79   101.27   106.55
eigval :      134.62   140.80   141.77   148.10   150.81   152.06
eigval :      206.86   213.51   233.32   251.28   257.55   271.36
eigval :      272.06   273.11   282.70   285.85   324.12   330.65
eigval :      369.27   371.67   393.32   395.92   398.12   421.97
eigval :      422.83   424.17   434.56   435.65   437.62   458.78
eigval :      511.58   512.46   518.58   520.22   520.51   530.28
eigval :      540.69   541.02   541.52   543.21   561.78   577.33
eigval :      587.90   587.99   594.21   620.62   620.86   641.23
eigval :      648.43   665.49   670.85   672.95   673.19   676.41
eigval :      707.57   707.73   708.63   748.89   749.57   756.13
eigval :      764.39   766.22   769.17   770.14   770.88   776.59
eigval :      779.00   781.83   840.99   861.55   863.47   866.95
eigval :      867.98   873.36   878.35   891.26   894.93   896.24
eigval :      897.01   898.11   899.45   900.05   901.18   902.31
eigval :      904.85   906.90   909.53   918.76   920.36   920.98
eigval :      924.37   925.60   926.25   992.50  1009.73  1010.68
eigval :     1011.89  1033.86  1034.75  1065.50  1067.05  1070.30
eigval :     1071.98  1073.23  1074.33  1116.04  1118.74  1122.09
eigval :     1146.56  1149.33  1151.95  1163.90  1165.20  1175.27
eigval :     1177.49  1178.12  1179.74  1180.97  1181.52  1204.80
eigval :     1223.89  1229.96  1230.91  1234.20  1234.48  1235.82
eigval :     1254.10  1293.71  1293.91  1298.69  1299.40  1300.45
eigval :     1301.36  1314.85  1332.36  1332.53  1355.43  1355.78
eigval :     1356.57  1360.01  1360.56  1361.25  1396.03  1415.76
eigval :     1416.34  1425.67  1425.88  1426.67  1452.82  1454.73
eigval :     1460.13  1473.70  1475.85  1475.99  1486.03  1486.12
eigval :     1486.74  1562.39  1563.49  1573.12  1574.35  1574.57
eigval :     1587.85  1588.00  1589.13  1597.70  1598.12  1598.69
eigval :     1612.49  1612.68  1614.10  3072.83  3073.01  3073.34
eigval :     3073.45  3073.70  3074.03  3078.34  3078.85  3079.19
eigval :     3079.80  3079.99  3080.42  3086.05  3086.29  3088.24
eigval :     3088.94  3089.38  3089.64  3093.21  3093.62  3095.36
eigval :     3097.14  3097.47  3098.18  3106.10  3106.85  3109.72

   temp. (K)  partition function   enthalpy   heat capacity  entropy
                                   cal/mol     cal/K/mol   cal/K/mol   J/K/mol
 298.15  VIB  0.107E+15            19349.961    127.905    116.939
         ROT  0.306E+08              888.752      2.981     37.236
         INT  0.326E+22            20238.713    130.886    154.174
         TR   0.133E+29             1481.254      4.968     44.905
         TOT                       21719.9672   135.8541   199.0792   832.9474

       T/K    H(0)-H(T)+PV         H(T)/Eh          T*S/Eh         G(T)/Eh
   ------------------------------------------------------------------------
    298.15    0.346130E-01    0.587178E+00    0.945889E-01    0.492589E+00
   ------------------------------------------------------------------------

         :::::::::::::::::::::::::::::::::::::::::::::::::::::
         ::                  THERMODYNAMIC                  ::
         :::::::::::::::::::::::::::::::::::::::::::::::::::::
         :: total free energy        -112.137165928330 Eh   ::
         ::.................................................::
         :: total energy             -112.629755023607 Eh   ::
         :: zero point energy           0.552565073938 Eh   ::
         :: G(RRHO) w/o ZPVE           -0.059975978661 Eh   ::
         :: G(RRHO) contrib.            0.492589095277 Eh   ::
         :::::::::::::::::::::::::::::::::::::::::::::::::::::

           -------------------------------------------------
          | TOTAL ENERGY             -112.629755023607 Eh   |
          | TOTAL ENTHALPY           -112.042576978714 Eh   |
          | TOTAL FREE ENERGY        -112.137165928330 Eh   |
          | GRADIENT NORM               0.000067825283 Eh/α |
          | HOMO-LUMO GAP               3.067321751729 eV   |
           -------------------------------------------------

 * finished run on 2025/09/09 at 06:12:27.330
