   * xtb version 6.7.1 (edcfbbe) compiled by 'albert@albert-system' on 2024-07-22

   ID    Z sym.   atoms
    1    6 C      1-12, 14-16, 18-31, 33-45
    2    7 N      13, 17, 32
    3    1 H      46-72

          program call               : xtb data2507/toluene/TCP/TCP_toluene_S0_finalOpt.xtbopt.xyz --gfn 2 --uhf 2 --gbsa toluene --ohess vtight --parallel 40 --molden --ceasefiles --namespace data2507/toluene/TCP/TCP_toluene_T1_preOpt
      * Solvation model:               GBSA
        Solvent                        toluene
        Solvent mass                       9.2140E+01 g/mol
          :  Hamiltonian                  GFN2-xTB          :
 * total energy  :  -112.5164121 Eh     change       -0.2505132E-08 Eh
 * total energy  :  -112.5172974 Eh     change       -0.8853612E-03 Eh
 * total energy  :  -112.5174673 Eh     change       -0.1698122E-03 Eh
 * total energy  :  -112.5174913 Eh     change       -0.2405812E-04 Eh
 * total energy  :  -112.5175085 Eh     change       -0.1720545E-04 Eh
 * total energy  :  -112.5175171 Eh     change       -0.8598123E-05 Eh
 * total energy  :  -112.5175231 Eh     change       -0.5930996E-05 Eh
 * total energy  :  -112.5175263 Eh     change       -0.3278649E-05 Eh
 * total energy  :  -112.5175279 Eh     change       -0.1566682E-05 Eh
 * total energy  :  -112.5175288 Eh     change       -0.9333007E-06 Eh
 * total energy  :  -112.5175394 Eh     change       -0.3357346E-06 Eh
 * total energy  :  -112.5175396 Eh     change       -0.2529508E-06 Eh
 * total energy  :  -112.5175399 Eh     change       -0.2687774E-06 Eh
 * total energy  :  -112.5175401 Eh     change       -0.2377766E-06 Eh
 * total energy  :  -112.5175404 Eh     change       -0.2111503E-06 Eh
 * total energy  :  -112.5175406 Eh     change       -0.1939374E-06 Eh
 * total energy  :  -112.5175407 Eh     change       -0.1773365E-06 Eh
 * total energy  :  -112.5175409 Eh     change       -0.1594281E-06 Eh
 * total energy  :  -112.5175410 Eh     change       -0.9766748E-07 Eh
   *** GEOMETRY OPTIMIZATION CONVERGED AFTER 42 ITERATIONS ***

 final structure:
================
72
 xtb: 6.7.1 (edcfbbe)
C           -5.65364165135522        2.73284125607237        1.23285904857551
C           -4.94444958790571        1.65787183006950        1.76523781941374
C           -3.69350100614955        1.31160907271576        1.27372701383145
C           -3.17189061877191        2.06133827729470        0.23325578967926
C           -3.87200329166233        3.17988416150979       -0.29258135529431
C           -5.12811575714457        3.50492315999362        0.21236535002036
C           -3.03009938914572        3.75551455345181       -1.29592082092234
C           -3.16196724158926        4.84367135853445       -2.15420249450496
C           -2.14071094841669        5.11073401338162       -3.04865577226869
C           -1.00287958801594        4.30868770020435       -3.10794126509472
C           -0.84542405392005        3.22186530290360       -2.25839454999540
C           -1.85191737314965        2.96343723305485       -1.34239582121887
N           -1.95340282064501        1.94671543545315       -0.40988465356736
C           -0.98756648437144        0.96439692569568       -0.18164127596846
C           -1.34224536142358       -0.38170472303113       -0.16269490114278
C           -0.35390642850247       -1.36026850935842        0.00381193973040
N           -0.70398353291868       -2.70917244806320        0.00272871049555
C           -0.09651057604352       -3.70195662004866       -0.74548244459221
C            0.92001579916106       -3.60295801875599       -1.67922322947285
C            1.33657595911284       -4.76309807700587       -2.31918413868371
C            0.74255964690095       -5.99160685943578       -2.03499698078328
C           -0.29405278377909       -6.09604921597218       -1.12471754615943
C           -0.73335810752838       -4.94436185187376       -0.47568162899823
C           -1.76900743778596       -4.67680890085118        0.47174589802825
C           -2.71515575757918       -5.47072316532006        1.11606182184138
C           -3.56993645185857       -4.87787359892642        2.02814661108753
C           -3.48966043327980       -3.51684715186129        2.31816276535232
C           -2.55979758710202       -2.70432535046403        1.68241821243990
C           -1.71928588347084       -3.28269656751316        0.74749458588988
C            0.98651482670029       -0.98603891017981        0.17057953767463
C            1.33021470139356        0.36275198320821        0.19090028353930
N            2.65312868256646        0.75078936279924        0.41580461275856
C            3.76947980235446        0.26490794856601       -0.23889303742970
C            3.85344896859051       -0.63391022969900       -1.28855083804588
C            5.11123977278738       -0.93277238029579       -1.79338154801183
C            6.25680573951047       -0.34074463205872       -1.26530346159017
C            6.18005746854084        0.57838272075706       -0.23418677287310
C            4.92812668165340        0.89792485362965        0.28448557846029
C            4.47818676254063        1.80140455583751        1.29878391080680
C            5.12758128551824        2.68047084863276        2.16095958854926
C            4.37013722397203        3.40396392212065        3.06492776934730
C            2.98611545735524        3.25703989916787        3.13005863600589
C            2.31507403230919        2.39077506435583        2.27750731704364
C            3.06400056629192        1.68147385640461        1.35281332338287
C            0.34831601848577        1.34373712009471        0.00597101994879
H           -6.62784028016600        2.97112894688830        1.63456898919120
H           -5.37222113323390        1.08562645494908        2.57454795621406
H           -3.14232050587328        0.48988991080227        1.70275475738828
H           -5.67570473678961        4.34655277527672       -0.18386825110481
H           -4.04673671569761        5.46125671230070       -2.12270424026457
H           -2.22796007905774        5.95044432134020       -3.72283063471557
H           -0.23164904772479        4.53125813003873       -3.82979752705243
H            0.03020150664761        2.59415258082786       -2.32448529997372
H           -2.36399015745766       -0.67563714881665       -0.34308727432302
H            1.36776729231502       -2.65167327525933       -1.91941956864128
H            2.12938339071689       -4.70985765248172       -3.04977480539199
H            1.09378701246998       -6.87627742942074       -2.54620934336028
H           -0.75916802022376       -7.04888723190177       -0.92215275944289
H           -2.77377468445938       -6.52845044413231        0.90870212707431
H           -4.30848362751458       -5.48103930230894        2.53614971771648
H           -4.15624185120484       -3.08718723069899        3.05040775196887
H           -2.48721185648129       -1.65640391337631        1.92699031665823
H            1.73681270747017       -1.73963053341634        0.34934219953080
H            2.96903760514194       -1.08079592058089       -1.71425960423088
H            5.20120202412370       -1.63280516556681       -2.61026287997937
H            7.22095823447853       -0.59965051906890       -1.67825754818374
H            7.07049531477486        1.04515072838293        0.15892154729207
H            6.20085868335326        2.78972496494945        2.12440699692789
H            4.85895184384739        4.08959561365233        3.74187572495248
H            2.42455673796049        3.82226202467472        3.85847903717801
H            1.24489213995045        2.26851374848875        2.34776111491515
H            0.61893056121649        2.38685380892982        0.00832130044916

          :  Hamiltonian                  GFN2-xTB          :
         :: gradient norm              0.000048524348 Eh/a0 ::
         :: HOMO-LUMO gap              0.017862138006 eV    ::
         :: SCC energy              -114.624747391573 Eh    ::
         :: -> dispersion             -0.103592913739 Eh    ::
         :: -> Gsolv                  -0.044387330952 Eh    ::
         :: repulsion energy           2.107206357745 Eh    ::

    * Orbital Energies and Occupations

         #    Occupation            Energy/Eh            Energy/eV
      -------------------------------------------------------------
         1        2.0000           -0.6819467             -18.5567
       ...           ...                  ...                  ...
        94        2.0000           -0.4193937             -11.4123
        95        2.0000           -0.4159573             -11.3188
        96        2.0000           -0.4145080             -11.2793
        97        2.0000           -0.4085123             -11.1162
        98        2.0000           -0.4084752             -11.1152
        99        2.0000           -0.4084009             -11.1132
       100        2.0000           -0.3796426             -10.3306
       101        2.0000           -0.3795264             -10.3274
       102        2.0000           -0.3788370             -10.3087
       103        1.9817           -0.3711756             -10.1002
       104        1.7080           -0.3682342             -10.0202
       105        1.3103           -0.3666336              -9.9766
       106        0.5707           -0.2520173              -6.8577 (HOMO)
       107        0.3998           -0.2513607              -6.8399 (LUMO)
       108        0.0294           -0.2484258              -6.7600
       109        0.0000           -0.2421165              -6.5883
       110        0.0000           -0.2409617              -6.5569
       111                         -0.2253892              -6.1332
       112                         -0.2253496              -6.1321
       113                         -0.2251702              -6.1272
       114                         -0.2025216              -5.5109
       115                         -0.1928099              -5.2466
       116                         -0.1913961              -5.2082
       117                         -0.1886320              -5.1329
       ...                                ...                  ...
       207                          0.7424122              20.2021
      -------------------------------------------------------------
                  HL-Gap            0.0006566 Eh            0.0179 eV

     #   Z          covCN         q      C6AA      α(0)
     1   6 C        2.918    -0.035    28.864     8.810
     2   6 C        2.921    -0.042    29.044     8.838
     3   6 C        2.909    -0.046    29.146     8.853
     4   6 C        3.067     0.044    26.954     8.513
     5   6 C        3.062    -0.019    28.422     8.742
     6   6 C        2.911    -0.037    28.913     8.817
     7   6 C        3.062    -0.019    28.413     8.741
     8   6 C        2.911    -0.037    28.911     8.817
     9   6 C        2.918    -0.034    28.856     8.809
    10   6 C        2.921    -0.042    29.041     8.837
    11   6 C        2.908    -0.047    29.158     8.854
    12   6 C        3.068     0.044    26.950     8.512
    13   7 N        2.800    -0.019    21.622     6.906
    14   6 C        2.907     0.057    26.724     8.477
    15   6 C        2.919    -0.066    29.632     8.927
    16   6 C        2.908     0.052    26.828     8.493
    17   7 N        2.798    -0.014    21.516     6.889
    18   6 C        3.067     0.042    26.983     8.518
    19   6 C        2.909    -0.045    29.111     8.847
    20   6 C        2.921    -0.044    29.089     8.845
    21   6 C        2.918    -0.034    28.835     8.806
    22   6 C        2.910    -0.037    28.927     8.819
    23   6 C        3.061    -0.020    28.435     8.745
    24   6 C        3.061    -0.020    28.435     8.745
    25   6 C        2.910    -0.037    28.927     8.819
    26   6 C        2.918    -0.034    28.835     8.806
    27   6 C        2.921    -0.044    29.090     8.845
    28   6 C        2.909    -0.045    29.110     8.847
    29   6 C        3.067     0.042    26.983     8.518
    30   6 C        2.919    -0.066    29.643     8.928
    31   6 C        2.907     0.057    26.711     8.474
    32   7 N        2.800    -0.020    21.634     6.908
    33   6 C        3.067     0.044    26.948     8.512
    34   6 C        2.909    -0.046    29.148     8.853
    35   6 C        2.921    -0.042    29.039     8.837
    36   6 C        2.918    -0.035    28.866     8.810
    37   6 C        2.911    -0.037    28.912     8.817
    38   6 C        3.062    -0.019    28.420     8.742
    39   6 C        3.062    -0.019    28.411     8.741
    40   6 C        2.911    -0.037    28.910     8.817
    41   6 C        2.918    -0.034    28.858     8.809
    42   6 C        2.921    -0.042    29.036     8.836
    43   6 C        2.908    -0.047    29.161     8.855
    44   6 C        3.068     0.044    26.945     8.512
    45   6 C        2.921    -0.066    29.655     8.930
    46   1 H        0.926     0.031     2.573     2.509
    47   1 H        0.926     0.030     2.579     2.512
    48   1 H        0.926     0.031     2.578     2.511
    49   1 H        0.926     0.032     2.563     2.503
    50   1 H        0.926     0.032     2.557     2.500
    51   1 H        0.926     0.031     2.567     2.506
    52   1 H        0.926     0.030     2.579     2.512
    53   1 H        0.926     0.033     2.547     2.496
    54   1 H        0.926     0.049     2.331     2.388
    55   1 H        0.926     0.031     2.575     2.509
    56   1 H        0.926     0.030     2.586     2.515
    57   1 H        0.926     0.031     2.573     2.508
    58   1 H        0.926     0.031     2.568     2.506
    59   1 H        0.926     0.031     2.568     2.506
    60   1 H        0.926     0.031     2.573     2.508
    61   1 H        0.926     0.030     2.586     2.515
    62   1 H        0.926     0.031     2.576     2.510
    63   1 H        0.926     0.049     2.333     2.388
    64   1 H        0.926     0.030     2.580     2.512
    65   1 H        0.926     0.031     2.578     2.511
    66   1 H        0.926     0.031     2.573     2.508
    67   1 H        0.926     0.032     2.562     2.503
    68   1 H        0.926     0.032     2.556     2.500
    69   1 H        0.926     0.031     2.567     2.505
    70   1 H        0.926     0.031     2.578     2.511
    71   1 H        0.926     0.033     2.548     2.496
    72   1 H        0.926     0.051     2.307     2.375

molecular dipole:
                 x           y           z       tot (Debye)
 q only:        0.024       0.071       0.002
   full:        0.022       0.064       0.002       0.172

 projected vibrational frequencies (cm⁻¹)
eigval :       -0.00    -0.00    -0.00     0.00     0.00     0.00
eigval :       15.85    17.17    22.20    25.11    25.73    33.35
eigval :       56.33    67.66    73.83    96.09    99.28   106.31
eigval :      132.55   134.99   137.26   144.82   147.00   147.48
eigval :      202.41   207.78   227.48   243.33   247.43   261.30
eigval :      262.69   265.85   281.12   288.04   321.77   329.15
eigval :      367.21   369.63   376.80   381.32   383.31   412.07
eigval :      414.61   415.91   431.28   432.63   433.85   449.57
eigval :      490.47   494.60   508.30   509.97   510.37   519.81
eigval :      522.40   523.47   530.51   539.82   556.63   568.26
eigval :      577.49   577.98   584.15   605.09   608.92   613.89
eigval :      624.92   641.87   657.33   660.03   660.69   663.14
eigval :      692.03   694.61   695.50   704.10   719.05   749.98
eigval :      750.17   751.92   752.86   753.84   755.40   758.17
eigval :      759.83   764.13   786.02   833.46   838.10   842.14
eigval :      843.78   850.64   853.91   856.33   857.75   862.12
eigval :      873.86   878.70   880.03   887.80   889.24   891.40
eigval :      892.30   893.36   895.27   901.31   901.55   902.83
eigval :      904.83   906.86   908.04   910.00   911.69   974.06
eigval :     1001.42  1002.25  1004.86  1018.25  1022.04  1054.71
eigval :     1056.02  1061.56  1062.73  1063.01  1067.71  1105.98
eigval :     1112.35  1113.90  1120.34  1127.78  1129.07  1151.84
eigval :     1157.91  1168.40  1169.38  1170.17  1171.68  1174.32
eigval :     1175.47  1197.76  1211.56  1214.36  1216.99  1220.01
eigval :     1220.26  1221.34  1243.95  1259.96  1265.72  1268.73
eigval :     1270.56  1272.07  1297.73  1303.94  1310.95  1311.24
eigval :     1312.98  1314.18  1349.82  1365.98  1367.78  1371.21
eigval :     1375.11  1387.09  1387.98  1391.82  1396.74  1404.87
eigval :     1424.95  1430.31  1432.86  1446.59  1448.77  1449.38
eigval :     1470.64  1471.49  1472.27  1502.90  1505.23  1506.34
eigval :     1512.28  1513.12  1552.92  1554.33  1556.37  1556.53
eigval :     1557.36  1558.97  1582.34  3072.44  3073.08  3073.15
eigval :     3073.40  3073.53  3073.88  3081.18  3081.55  3083.27
eigval :     3083.84  3084.00  3084.25  3087.34  3087.66  3089.30
eigval :     3089.91  3090.18  3090.68  3093.97  3095.18  3097.89
eigval :     3098.59  3099.04  3100.61  3107.05  3108.42  3114.04

   temp. (K)  partition function   enthalpy   heat capacity  entropy
                                   cal/mol     cal/K/mol   cal/K/mol   J/K/mol
 298.15  VIB  0.288E+15            19863.623    131.706    120.113
         ROT  0.306E+08              888.752      2.981     37.235
         INT  0.881E+22            20752.376    134.687    157.349
         TR   0.133E+29             1481.254      4.968     44.905
         TOT                       22233.6294   139.6555   202.2535   846.2285

       T/K    H(0)-H(T)+PV         H(T)/Eh          T*S/Eh         G(T)/Eh
   ------------------------------------------------------------------------
    298.15    0.354315E-01    0.578223E+00    0.960971E-01    0.482126E+00
   ------------------------------------------------------------------------

         :::::::::::::::::::::::::::::::::::::::::::::::::::::
         ::                  THERMODYNAMIC                  ::
         :::::::::::::::::::::::::::::::::::::::::::::::::::::
         :: total free energy        -112.035415319737 Eh   ::
         ::.................................................::
         :: total energy             -112.517541031671 Eh   ::
         :: zero point energy           0.542791312993 Eh   ::
         :: G(RRHO) w/o ZPVE           -0.060665601059 Eh   ::
         :: G(RRHO) contrib.            0.482125711934 Eh   ::
         :::::::::::::::::::::::::::::::::::::::::::::::::::::

           -------------------------------------------------
          | TOTAL ENERGY             -112.517541031671 Eh   |
          | TOTAL ENTHALPY           -111.939318174850 Eh   |
          | TOTAL FREE ENERGY        -112.035415319737 Eh   |
          | GRADIENT NORM               0.000050198603 Eh/α |
          | HOMO-LUMO GAP               0.017866931946 eV   |
           -------------------------------------------------

 * finished run on 2025/09/09 at 06:12:34.646
