   * xtb version 6.7.1 (edcfbbe) compiled by 'albert@albert-system' on 2024-07-22

   ID    Z sym.   atoms
    1    6 C      1-14, 16-20, 22-36, 39-50
    2    7 N      15, 21
    3   15 P      37
    4    8 O      38
    5    1 H      51-87

          program call               : xtb data2507/gas/DCzPO/DCzPO_gas_S0_finalOpt.xtbopt.xyz --gfn 2 --spinpol --tblite --uhf 2 --ohess vtight --parallel 40 --molden --ceasefiles --namespace data2507/gas/DCzPO/DCzPO_gas_T1_preOpt
 * total energy  :  -129.8565161 Eh     change       -0.3650149E-07 Eh
 * total energy  :  -129.8583883 Eh     change       -0.1872199E-02 Eh
 * total energy  :  -129.8592326 Eh     change       -0.8443404E-03 Eh
 * total energy  :  -129.8594092 Eh     change       -0.1766151E-03 Eh
 * total energy  :  -129.8595708 Eh     change       -0.1616000E-03 Eh
 * total energy  :  -129.8596398 Eh     change       -0.6893653E-04 Eh
 * total energy  :  -129.8597091 Eh     change       -0.6930058E-04 Eh
 * total energy  :  -129.8597457 Eh     change       -0.3664188E-04 Eh
 * total energy  :  -129.8597715 Eh     change       -0.2572780E-04 Eh
 * total energy  :  -129.8597924 Eh     change       -0.2090807E-04 Eh
 * total energy  :  -129.8600903 Eh     change       -0.1851776E-05 Eh
 * total energy  :  -129.8600922 Eh     change       -0.1859844E-05 Eh
 * total energy  :  -129.8600938 Eh     change       -0.1586881E-05 Eh
 * total energy  :  -129.8600949 Eh     change       -0.1188123E-05 Eh
 * total energy  :  -129.8600958 Eh     change       -0.8043195E-06 Eh
 * total energy  :  -129.8600965 Eh     change       -0.7186867E-06 Eh
 * total energy  :  -129.8600971 Eh     change       -0.6027613E-06 Eh
 * total energy  :  -129.8600975 Eh     change       -0.4396167E-06 Eh
 * total energy  :  -129.8600976 Eh     change       -0.7389849E-07 Eh
   *** GEOMETRY OPTIMIZATION CONVERGED AFTER 68 ITERATIONS ***

 final structure:
================
87
 xtb: 6.7.1 (edcfbbe)
C            7.05741426875902        2.85357445213682        0.37911196402378
C            5.82423141253591        2.15178232086968       -0.10079980424570
C            4.80665022609664        2.89179208882186       -0.70978228388833
C            3.63902233860074        2.30343539774356       -1.15842295238688
C            3.49751508145885        0.93269645381305       -0.99928513409482
C            4.51279261814368        0.16723730047930       -0.37575805227892
C            5.67183557845594        0.78225492348962        0.06918662805451
C            4.03367683758870       -1.18642948271408       -0.33487952000703
C            4.57114367100002       -2.37672676101816        0.12509739127411
C            3.84671455484441       -3.55320408580000       -0.02874858004307
C            4.38535430026753       -4.85571775762993        0.47652864060066
C            2.60437189350155       -3.52603748611687       -0.67199931635054
C            2.04606630209366       -2.35251322246129       -1.13660022633127
C            2.74816445535839       -1.17305889635892       -0.93169347236748
N            2.43311486093384        0.11178808093409       -1.31067827597242
C            1.21523334350253        0.52778086206943       -1.84627296271369
C            1.20311198028339        1.33502036778074       -2.96307492649021
C           -0.00147182651324        1.75744227671146       -3.53116060950925
C           -1.20574075136014        1.33579614281035       -2.96185719610423
C           -1.21729138519651        0.52857451093481       -1.84501201247706
N           -2.43489782261678        0.11341494658312       -1.30818657168955
C           -2.75043570931878       -1.17116319343621       -0.92877521883429
C           -2.04934044512794       -2.35115710779767       -1.13427344583427
C           -2.60798641673756       -3.52423928312084       -0.66903098673946
C           -3.84969597020441       -3.55054345686555       -0.02454258217512
C           -4.38872752207168       -4.85263083691096        0.48137159628988
C           -4.57317488104560       -2.37351019707678        0.12992813799921
C           -4.03536432980349       -1.18368771354182       -0.33067065381064
C           -4.51363895807018        0.17035930293328       -0.37118637685433
C           -5.67180003814174        0.78611934639435        0.07482456394727
C           -5.82350029454775        2.15576678583406       -0.09513436460048
C           -7.05575727058405        2.85838003034200        0.38591819683382
C           -4.80601749362655        2.89503171020389       -0.70517136197593
C           -3.63923549134639        2.30589601805013       -1.15490183516049
C           -3.49844383270638        0.93504753428466       -0.99579586969975
C           -0.00084228565190        0.08411706989270       -1.22166951279193
P           -0.00001962567574       -0.36995804774232        0.55557080720963
O           -0.00024698195857       -1.81911360901468        0.81108864693275
C            1.41454888268050        0.44811634007293        1.35266534299941
C            2.25681882878886       -0.37710253675621        2.09346850685617
C            3.34343984305669        0.14925552086816        2.76068311519443
C            3.59871757413500        1.51159310861283        2.70423832323706
C            2.76284916619465        2.33833094174560        1.96885628957668
C            1.68265779800865        1.81320717651748        1.28872742021293
C           -1.41331795718676        0.44886592099453        1.35413588418577
C           -1.68077222418025        1.81409282222315        1.29039526816690
C           -2.75993017706946        2.33983934902806        1.97168525121590
C           -3.59540902385547        1.51359683906532        2.70805785501578
C           -3.34080385076304        0.15112612924647        2.76430418390742
C           -2.25520829960152       -0.37585922540181        2.09591436022510
H            7.77984136468169        2.14602945148215        0.77737403933677
H            6.80320834328297        3.56750981412299        1.16230793035587
H            7.52282355185831        3.40836148491616       -0.43469860120966
H            4.93639344609185        3.95824690977628       -0.82287715476497
H            2.85744612616066        2.90084518102964       -1.60143620668699
H            6.44392717459278        0.20180831663611        0.55176414868929
H            5.54316545851593       -2.38966226172910        0.59586409399004
H            4.39127312760795       -5.60157915575091       -0.31725714752153
H            3.75344116658515       -5.23414785027161        1.27982406937988
H            5.39707428195340       -4.74083377233173        0.85717411226752
H            2.06794912050099       -4.45333623903910       -0.80496817889358
H            1.09797208522483       -2.35222133274732       -1.64764817684868
H            2.13927982390961        1.59683210062213       -3.43462252260650
H           -0.00173121706346        2.35758233152597       -4.42546959342406
H           -2.14221157271626        1.59819944190767       -3.43246690225758
H           -1.10175091199062       -2.35153942150797       -1.64625636930283
H           -2.07232676072999       -4.45192504248502       -0.80246863947179
H           -5.39994644158382       -4.73701276965077        0.86312732795761
H           -3.75620384949881       -5.23150084298304        1.28398426537638
H           -4.39606268309108       -5.59851701317336       -0.31238400900929
H           -5.54473480070623       -2.38577514410156        0.60168632527955
H           -6.44382951495184        0.20623255597971        0.55819969003727
H           -7.77842343833835        2.15130062416794        0.78457757695941
H           -6.80038171198319        3.57191755207561        1.16910279968797
H           -7.52137802024738        3.41374214914045       -0.42738119654918
H           -4.93517960433596        3.96157588500140       -0.81822858139612
H           -2.85769605753288        2.90275233562325       -1.59873821333360
H            2.03715709845580       -1.43461637410762        2.12731073099682
H            3.99434105387794       -0.50028632910645        3.32822552643768
H            4.44722917967841        1.92779252968761        3.22683829127092
H            2.96333597086721        3.39910277784371        1.91797196134083
H            1.05927298300162        2.46182148396627        0.69153157683825
H           -1.05771015137336        2.46232739139389        0.69244832846929
H           -2.95991357306486        3.40071376062365        1.92093923229913
H           -4.44311759925839        1.93028397868974        3.23157684326308
H           -3.99142428444742       -0.49803092395896        3.33261008368931
H           -2.03607931878122       -1.43349059371422        2.12956988114755

 projected vibrational frequencies (cm⁻¹)
eigval :       -0.00     0.00     0.00     0.00     0.00     0.00
eigval :       15.20    16.31    22.18    26.63    28.37    28.61
eigval :       39.02    39.33    41.39    42.29    50.98    59.73
eigval :       61.21    68.18    75.39    88.52    99.78   103.55
eigval :      111.27   112.50   114.31   118.91   125.78   139.02
eigval :      142.81   162.99   180.97   191.79   203.76   204.63
eigval :      216.07   220.53   228.01   235.46   236.55   273.56
eigval :      287.14   293.96   300.08   301.10   314.53   316.48
eigval :      329.12   357.37   359.21   364.62   365.60   369.79
eigval :      380.68   386.29   386.52   393.57   407.52   411.76
eigval :      412.50   417.85   421.23   424.84   434.00   451.58
eigval :      471.96   473.41   493.45   506.87   509.01   546.90
eigval :      553.43   561.97   569.98   570.34   579.93   581.21
eigval :      584.35   586.27   586.99   607.52   628.88   629.41
eigval :      644.19   651.71   666.04   666.10   666.82   683.88
eigval :      684.59   699.54   699.84   706.00   714.12   723.77
eigval :      728.98   739.33   740.83   791.54   795.11   797.22
eigval :      806.17   808.91   809.16   850.78   851.72   856.94
eigval :      858.88   860.71   863.67   874.93   875.39   877.43
eigval :      883.41   889.45   891.87   902.10   906.11   906.92
eigval :      914.72   922.39   922.88   923.74   924.14   925.41
eigval :      929.67   949.67   968.48   970.34   981.84   982.78
eigval :     1005.23  1006.72  1008.55  1014.11  1019.82  1024.30
eigval :     1024.54  1026.32  1026.42  1035.03  1035.74  1072.71
eigval :     1078.42  1095.94  1101.35  1101.97  1111.59  1113.37
eigval :     1123.77  1127.55  1136.87  1144.35  1162.94  1168.83
eigval :     1178.71  1179.37  1181.53  1188.31  1190.30  1200.98
eigval :     1201.91  1203.52  1208.44  1225.09  1235.86  1240.28
eigval :     1244.37  1244.62  1260.68  1265.12  1267.22  1269.94
eigval :     1277.29  1278.66  1289.86  1315.56  1329.61  1330.56
eigval :     1333.60  1333.73  1350.88  1354.13  1367.00  1374.93
eigval :     1400.09  1400.59  1401.94  1402.08  1403.94  1406.06
eigval :     1422.03  1423.84  1424.44  1434.47  1446.69  1448.80
eigval :     1449.60  1453.42  1454.16  1457.39  1470.45  1472.71
eigval :     1475.88  1476.00  1478.01  1478.03  1485.41  1485.50
eigval :     1495.04  1498.77  1539.96  1544.32  1544.94  1549.75
eigval :     1552.82  1557.53  1564.64  1566.38  1567.81  1568.92
eigval :     1569.80  1594.67  3001.56  3001.60  3002.24  3002.35
eigval :     3016.73  3016.82  3017.71  3017.91  3044.48  3044.54
eigval :     3047.21  3047.27  3065.39  3067.19  3068.95  3070.16
eigval :     3075.60  3076.18  3076.58  3079.57  3079.94  3080.56
eigval :     3080.81  3081.19  3082.03  3084.55  3084.65  3086.25
eigval :     3088.23  3089.93  3090.73  3092.01  3095.86  3096.41
eigval :     3111.18  3111.83  3115.09

   temp. (K)  partition function   enthalpy   heat capacity  entropy
                                   cal/mol     cal/K/mol   cal/K/mol   J/K/mol
 298.15  VIB  0.719E+21            26558.993    161.086    166.652
         ROT  0.550E+08              888.752      2.981     38.398
         INT  0.395E+29            27447.745    164.067    205.050
         TR   0.166E+29             1481.254      4.968     45.344
         TOT                       28928.9989   169.0350   250.3936  1047.6469

       T/K    H(0)-H(T)+PV         H(T)/Eh          T*S/Eh         G(T)/Eh
   ------------------------------------------------------------------------
    298.15    0.461013E-01    0.720876E+00    0.118970E+00    0.601906E+00
   ------------------------------------------------------------------------

         :::::::::::::::::::::::::::::::::::::::::::::::::::::
         ::                  THERMODYNAMIC                  ::
         :::::::::::::::::::::::::::::::::::::::::::::::::::::
         :: total free energy        -129.258192067756 Eh   ::
         ::.................................................::
         :: total energy             -129.860097603519 Eh   ::
         :: zero point energy           0.674774324387 Eh   ::
         :: G(RRHO) w/o ZPVE           -0.072868788624 Eh   ::
         :: G(RRHO) contrib.            0.601905535763 Eh   ::
         :::::::::::::::::::::::::::::::::::::::::::::::::::::

           -------------------------------------------------
          | TOTAL ENERGY             -129.860097603519 Eh   |
          | TOTAL ENTHALPY           -129.139221984958 Eh   |
          | TOTAL FREE ENERGY        -129.258192067756 Eh   |
          | GRADIENT NORM               0.000154221205 Eh/α |
           -------------------------------------------------

 * finished run on 2025/08/24 at 13:11:59.145
