   * xtb version 6.7.1 (edcfbbe) compiled by 'albert@albert-system' on 2024-07-22

   ID    Z sym.   atoms
    1    6 C      1-14, 16-20, 22-36, 39-50
    2    7 N      15, 21
    3   15 P      37
    4    8 O      38
    5    1 H      51-87

          program call               : xtb data2507/gas/DCzPO/DCzPO_gas_T1_crest.xyz --gfn 2 --spinpol --tblite --uhf 2 --ohess vtight --parallel 40 --molden --ceasefiles --namespace data2507/gas/DCzPO/DCzPO_gas_T1_finalOpt
 * total energy  :  -129.8599537 Eh     change       -0.5370120E-07 Eh
 * total energy  :  -129.8599898 Eh     change       -0.3617906E-04 Eh
 * total energy  :  -129.8600322 Eh     change       -0.4231892E-04 Eh
 * total energy  :  -129.8600443 Eh     change       -0.1217990E-04 Eh
 * total energy  :  -129.8600524 Eh     change       -0.8076639E-05 Eh
 * total energy  :  -129.8600608 Eh     change       -0.8395145E-05 Eh
 * total energy  :  -129.8600649 Eh     change       -0.4053965E-05 Eh
 * total energy  :  -129.8600689 Eh     change       -0.4056681E-05 Eh
 * total energy  :  -129.8600715 Eh     change       -0.2572274E-05 Eh
 * total energy  :  -129.8600736 Eh     change       -0.2153210E-05 Eh
 * total energy  :  -129.8601236 Eh     change       -0.3155361E-06 Eh
 * total energy  :  -129.8601240 Eh     change       -0.4053776E-06 Eh
 * total energy  :  -129.8601244 Eh     change       -0.4411779E-06 Eh
 * total energy  :  -129.8601249 Eh     change       -0.4603699E-06 Eh
 * total energy  :  -129.8601255 Eh     change       -0.5904824E-06 Eh
 * total energy  :  -129.8601261 Eh     change       -0.6294648E-06 Eh
 * total energy  :  -129.8601268 Eh     change       -0.7179839E-06 Eh
 * total energy  :  -129.8601275 Eh     change       -0.6968470E-06 Eh
 * total energy  :  -129.8601275 Eh     change       -0.7870398E-08 Eh
   *** GEOMETRY OPTIMIZATION CONVERGED AFTER 44 ITERATIONS ***

 final structure:
================
87
 xtb: 6.7.1 (edcfbbe)
C            7.08745746345515        2.79114996093017        0.41252124161494
C            5.84714201971198        2.10600804409686       -0.07309972509259
C            4.83925888578698        2.86008500036211       -0.68104023505192
C            3.66643525713942        2.28790003826030       -1.13499876229015
C            3.50809857178702        0.91774202765574       -0.98362003943363
C            4.51320966724444        0.13896739877080       -0.36064371034131
C            5.67780147056104        0.73787042145658        0.09011984901135
C            4.01898501940713       -1.21005662815940       -0.32595071038843
C            4.54128463469503       -2.40706792182291        0.13301512472102
C            3.80426565272217       -3.57486557421166       -0.02605256835356
C            4.32504875137579       -4.88467416885154        0.47919244575891
C            2.56546401059796       -3.53170383968760       -0.67518190614527
C            2.02312644178282       -2.35138018835288       -1.13966668485728
C            2.73642005235589       -1.17977817227168       -0.92697516362909
N            2.43513847300838        0.10993500754160       -1.30103889517183
C            1.22061121580551        0.53798252096895       -1.83329883673048
C            1.20913526156455        1.36585929986311       -2.93328994071613
C            0.00469082404224        1.79976875365221       -3.49475031254726
C           -1.20182353582404        1.36931965680505       -2.93535179448994
C           -1.21754893188906        0.54133603892652       -1.83542630747140
N           -2.43398761650858        0.11616257880478       -1.30545674114253
C           -2.73806549713927       -1.17273663035184       -0.93085065349208
C           -2.02660861513627       -2.34573810974419       -1.14197454012316
C           -2.57164543443718       -3.52482251524800       -0.67749345006877
C           -3.81135887129999       -3.56534033411730       -0.02992047628277
C           -4.33513012319104       -4.87390231551795        0.47543781331417
C           -4.54650522570762       -2.39612888447698        0.12752324901000
C           -4.02150249527063       -1.20032571100894       -0.33150228480328
C           -4.51326879941583        0.14952434150877       -0.36784691042823
C           -5.67735288880318        0.75079591740183        0.08111219348011
C           -5.84410822291795        2.11911109046121       -0.08326680163258
C           -7.08408343888820        2.80668766400761        0.39976275508228
C           -4.83416556023584        2.87099947282058       -0.69050277826018
C           -3.66175601579501        2.29643439371634       -1.14261047869167
C           -3.50597609412333        0.92611913460814       -0.99008585480243
C            0.00043469371211        0.08519225663499       -1.21482329893894
P           -0.00128707264748       -0.35340419102868        0.56715837643156
O           -0.00198906115126       -1.80130333934915        0.83007588907986
C            1.41277405681705        0.46841792543452        1.36066059575413
C            2.25648664785211       -0.35331277570500        2.10370791079652
C            3.34389467944429        0.17640548760724        2.76690945498324
C            3.59848496961005        1.53861258563951        2.70412529058246
C            2.76165048309505        2.36167933376217        1.96585953528594
C            1.68071775762456        1.83317216429553        1.28947670068641
C           -1.41573482764206        0.46958945077407        1.35877649181473
C           -1.68282637525418        1.83447216567860        1.28684925222036
C           -2.76402743847801        2.36387741605478        1.96211204408834
C           -3.60195109413772        1.54159872213712        2.70001188842325
C           -3.34820549687991        0.17926514275328        2.76353521527252
C           -2.26057510214650       -0.35134658099656        2.10141062768470
H            7.79644148074928        2.07429259596348        0.81823661689249
H            6.83892247017372        3.51201587656847        1.19111045942306
H            7.56676864038199        3.33541537995579       -0.40037037316859
H            4.98152334048119        3.92556862745938       -0.78863586704337
H            2.89296416098296        2.89717496201229       -1.57589152423451
H            6.44131437151755        0.14601257586120        0.57259697621318
H            5.51131630957479       -2.43211137930358        0.60745830202688
H            5.33754076169788       -4.78331425979286        0.86160078310818
H            4.32243869598796       -5.63017924182913       -0.31492208281324
H            3.68689941432193       -5.25502017078441        1.28134159130108
H            2.01942173853853       -4.45265982736703       -0.81347584092574
H            1.07851271648174       -2.33898583413845       -1.65670092862575
H            2.14515219915013        1.63504172687118       -3.40097548743897
H            0.00633722789974        2.41243102513511       -4.38049129384612
H           -2.13627330527485        1.64106680995788       -3.40467846665144
H           -1.08138926533430       -2.33532547640464       -1.65794838977809
H           -2.02710519197410       -4.44683822670648       -0.81460866694306
H           -5.34834838599605       -4.77074740022390        0.85544021787480
H           -3.69931834431169       -5.24429108187674        1.27943065887288
H           -4.33170648766038       -5.62022000572357       -0.31790568927460
H           -5.51717621201572       -2.41917289192221        0.60075536468684
H           -6.44244480539152        0.16060378478590        0.56312399083594
H           -7.56581543721694        3.34377420741351       -0.41651378358827
H           -7.79140411195181        2.09224092269756        0.81255940272079
H           -6.83482541234377        3.53413571486103        1.17192102489913
H           -4.97444234113346        3.93665204439736       -0.79904766480316
H           -2.88670189811143        2.90412919018338       -1.58289860830145
H            2.03692596113124       -1.41067415107654        2.14270552569415
H            3.99580741105096       -0.47020241029426        3.33665083293240
H            4.44733802965529        1.95748828890028        3.22404775210685
H            2.96169779586082        3.42231183436716        1.91007279791433
H            1.05656836876904        2.47873622352473        0.68980539263431
H           -1.05786579981739        2.47943680167055        0.68736657187582
H           -2.96345569782041        3.42459001699722        1.90566559736310
H           -4.45099711452491        1.96118367943569        3.21904695599639
H           -4.00094089051821       -0.46674646526713        3.33301449500059
H           -2.04167897547910       -1.40882585384484        2.14096454393243

 projected vibrational frequencies (cm⁻¹)
eigval :       -0.00    -0.00    -0.00     0.00     0.00     0.00
eigval :       13.88    14.63    22.03    26.17    27.37    27.94
eigval :       39.09    39.57    40.21    42.34    50.97    59.85
eigval :       61.51    68.96    75.10    87.37    99.47   103.04
eigval :      110.77   112.66   114.90   119.17   126.13   139.17
eigval :      143.14   162.70   179.18   192.09   204.91   205.28
eigval :      217.35   221.10   227.20   236.71   237.02   273.07
eigval :      288.33   294.46   300.29   300.96   315.19   316.82
eigval :      329.47   357.12   359.22   364.26   365.61   368.35
eigval :      380.74   386.88   387.88   394.50   407.52   411.65
eigval :      412.34   417.97   421.63   424.11   434.96   451.31
eigval :      472.45   473.39   492.60   506.29   509.33   546.96
eigval :      553.31   561.68   570.80   571.07   578.75   579.37
eigval :      584.28   586.00   586.71   607.82   628.44   629.36
eigval :      644.14   651.76   665.49   667.04   667.54   683.53
eigval :      684.77   700.82   700.95   706.21   710.35   723.85
eigval :      729.30   739.45   744.00   790.82   795.34   797.78
eigval :      806.95   810.11   810.39   850.73   853.24   857.32
eigval :      860.53   862.15   865.28   873.51   875.41   878.51
eigval :      883.26   889.30   892.87   903.36   908.10   909.25
eigval :      915.06   923.18   923.82   923.87   924.62   925.44
eigval :      934.07   949.46   968.36   970.43   979.41   988.06
eigval :     1005.44  1006.93  1009.62  1014.20  1020.53  1024.49
eigval :     1024.54  1026.48  1026.50  1035.33  1036.26  1072.93
eigval :     1078.85  1093.70  1101.46  1102.19  1111.90  1113.49
eigval :     1123.85  1127.81  1138.31  1144.36  1163.02  1169.08
eigval :     1178.75  1179.36  1184.83  1187.06  1190.49  1201.08
eigval :     1201.91  1203.44  1209.96  1226.59  1236.88  1239.85
eigval :     1245.44  1245.57  1261.49  1266.66  1267.34  1273.13
eigval :     1277.75  1278.44  1289.15  1320.05  1329.90  1330.93
eigval :     1335.84  1336.00  1352.46  1354.49  1367.34  1373.92
eigval :     1400.40  1400.49  1401.74  1401.84  1405.72  1407.69
eigval :     1422.14  1424.31  1425.37  1435.31  1446.41  1449.63
eigval :     1451.86  1455.15  1456.28  1459.15  1471.06  1473.02
eigval :     1475.76  1475.98  1477.56  1477.58  1485.17  1485.22
eigval :     1494.77  1499.25  1544.49  1548.21  1550.44  1551.55
eigval :     1555.11  1558.46  1567.97  1569.51  1569.62  1572.15
eigval :     1574.33  1594.55  3001.68  3001.84  3002.14  3002.24
eigval :     3016.14  3016.37  3017.57  3017.84  3044.57  3044.78
eigval :     3046.84  3046.99  3065.03  3066.80  3068.80  3069.90
eigval :     3075.06  3075.86  3076.29  3079.39  3079.58  3080.29
eigval :     3080.58  3081.00  3081.83  3084.31  3084.60  3086.14
eigval :     3087.83  3089.55  3090.18  3091.48  3096.53  3097.23
eigval :     3111.02  3112.51  3116.61

   temp. (K)  partition function   enthalpy   heat capacity  entropy
                                   cal/mol     cal/K/mol   cal/K/mol   J/K/mol
 298.15  VIB  0.945E+21            26557.325    160.968    166.827
         ROT  0.549E+08              888.752      2.981     38.395
         INT  0.519E+29            27446.077    163.949    205.223
         TR   0.166E+29             1481.254      4.968     45.344
         TOT                       28927.3312   168.9173   250.5664  1048.3698

       T/K    H(0)-H(T)+PV         H(T)/Eh          T*S/Eh         G(T)/Eh
   ------------------------------------------------------------------------
    298.15    0.460986E-01    0.721100E+00    0.119052E+00    0.602048E+00
   ------------------------------------------------------------------------

         :::::::::::::::::::::::::::::::::::::::::::::::::::::
         ::                  THERMODYNAMIC                  ::
         :::::::::::::::::::::::::::::::::::::::::::::::::::::
         :: total free energy        -129.258079575848 Eh   ::
         ::.................................................::
         :: total energy             -129.860127532220 Eh   ::
         :: zero point energy           0.675001495788 Eh   ::
         :: G(RRHO) w/o ZPVE           -0.072953539417 Eh   ::
         :: G(RRHO) contrib.            0.602047956372 Eh   ::
         :::::::::::::::::::::::::::::::::::::::::::::::::::::

           -------------------------------------------------
          | TOTAL ENERGY             -129.860127532220 Eh   |
          | TOTAL ENTHALPY           -129.139027399793 Eh   |
          | TOTAL FREE ENERGY        -129.258079575848 Eh   |
          | GRADIENT NORM               0.000064966896 Eh/α |
           -------------------------------------------------

 * finished run on 2025/08/24 at 13:18:59.036
