   * xtb version 6.7.1 (edcfbbe) compiled by 'albert@albert-system' on 2024-07-22

   ID    Z sym.   atoms
    1    6 C      1-14, 16-20, 22-36, 39-50
    2    7 N      15, 21
    3   15 P      37
    4    8 O      38
    5    1 H      51-87

          program call               : xtb data2507/gas/DCzPO/DCzPO.xyz --gfn 2 --ohess vtight --parallel 40 --molden --ceasefiles --namespace data2507/gas/DCzPO/DCzPO_gas_S0_preOpt
          :  Hamiltonian                  GFN2-xTB          :
 * total energy  :  -129.9297035 Eh     change       -0.8470522E-09 Eh
 * total energy  :  -129.9482039 Eh     change       -0.1850038E-01 Eh
 * total energy  :  -129.9543079 Eh     change       -0.6103997E-02 Eh
 * total energy  :  -129.9563757 Eh     change       -0.2067820E-02 Eh
 * total energy  :  -129.9578860 Eh     change       -0.1510345E-02 Eh
 * total energy  :  -129.9586298 Eh     change       -0.7437479E-03 Eh
 * total energy  :  -129.9591544 Eh     change       -0.5246254E-03 Eh
 * total energy  :  -129.9595973 Eh     change       -0.4429095E-03 Eh
 * total energy  :  -129.9599567 Eh     change       -0.3593558E-03 Eh
 * total energy  :  -129.9602711 Eh     change       -0.3143906E-03 Eh
 * total energy  :  -129.9628594 Eh     change       -0.1298425E-05 Eh
 * total energy  :  -129.9628607 Eh     change       -0.1303832E-05 Eh
 * total energy  :  -129.9628615 Eh     change       -0.8139454E-06 Eh
 * total energy  :  -129.9628619 Eh     change       -0.3876099E-06 Eh
 * total energy  :  -129.9628620 Eh     change       -0.1446915E-06 Eh
 * total energy  :  -129.9628622 Eh     change       -0.1797512E-06 Eh
 * total energy  :  -129.9628623 Eh     change       -0.1255234E-06 Eh
 * total energy  :  -129.9628623 Eh     change        0.2220162E-08 Eh
 * total energy  :  -129.9628624 Eh     change       -0.7503522E-07 Eh
   *** GEOMETRY OPTIMIZATION CONVERGED AFTER 72 ITERATIONS ***

 final structure:
================
87
 xtb: 6.7.1 (edcfbbe)
C            6.98063062206758        2.97843481912953        0.32543805425355
C            5.76123195595056        2.24507988124503       -0.15014235245358
C            4.71593345431811        2.96378180646322       -0.73839712923604
C            3.56382431132711        2.35050293357685       -1.18681859592735
C            3.46593318394325        0.97461352443823       -1.04741949300765
C            4.51078854848672        0.22843430428485       -0.46106881032833
C            5.65531470958158        0.87265887798349       -0.01221738350287
C            4.08544718410502       -1.14303605050551       -0.46375542526782
C            4.68523561812875       -2.33000890244773       -0.06260065888590
C            4.01403652319729       -3.52426755948879       -0.25212231933869
C            4.61844425039142       -4.82790897578294        0.17938893813320
C            2.75960376620864       -3.52342693691174       -0.87192603817555
C            2.14177223225966       -2.35952665835425       -1.27849007537800
C            2.79642319760936       -1.16353110199635       -1.03541740385935
N            2.42019354258186        0.12859601746249       -1.35848529360598
C            1.19666887478246        0.50640704570704       -1.91639286249809
C            1.18799021926976        1.19285016119927       -3.12785467407077
C           -0.01021253071019        1.55788202606603       -3.71186713405968
C           -1.20533596616128        1.19272867035640       -3.12164012736002
C           -1.20767678329670        0.50629162617140       -1.91014794734526
N           -2.42823225718693        0.12848792831405       -1.34578153114148
C           -2.80225993133563       -1.16353838814817       -1.01973094905457
C           -2.14921498904353       -2.35961225461635       -1.26668335405180
C           -2.76439174354403       -3.52339615728414       -0.85575049136670
C           -4.01477317443119       -3.52405814007859       -0.22783558877905
C           -4.61555694369613       -4.82725582551961        0.20999499909691
C           -4.68479319675660       -2.32974323136707       -0.03448072991884
C           -4.08763673870630       -1.14292599440421       -0.43993826460559
C           -4.51311438716859        0.22848676756597       -0.43520599812361
C           -5.65466523144474        0.87274142437786        0.02104343856603
C           -5.76161007073315        2.24512837005949       -0.11655851235215
C           -6.97888405011224        2.97803224926856        0.36511339428856
C           -4.72039388937684        2.96366571475493       -0.71216393813392
C           -3.57116497108620        2.35034627789032       -1.16792347068678
C           -3.47212626799989        0.97453754394565       -1.02857695462373
C           -0.00379320427784        0.20229633587763       -1.26479060345340
P            0.00080722847192       -0.44749586703858        0.46300362837641
O            0.00092863608483       -1.90422789265653        0.62195879630290
C            1.42939127895367        0.33561402394138        1.28343382060033
C            2.24773744778723       -0.51928931156286        2.00898530775489
C            3.32985268853165       -0.02030663005818        2.70982247674997
C            3.59047236172405        1.33945999937264        2.69930868364876
C            2.77094263307519        2.19633839469262        1.98367274085084
C            1.69572619283511        1.69815191019936        1.27178406924733
C           -1.42290426090395        0.33643337761858        1.29104512700732
C           -1.68921662342215        1.69897717201571        1.27965690921333
C           -2.76020880670507        2.19791716807394        1.99736261022000
C           -3.57562940385201        1.34177194123513        2.71854135823934
C           -3.31508754216745       -0.01801499765283        2.72875595759478
C           -2.23710464407733       -0.51773539475007        2.02210032540170
H            6.70727900711027        3.73892353495839        1.05623309010479
H            7.47315500854681        3.48018188342256       -0.50712119720031
H            7.69002689197797        2.29504381845298        0.78495782156765
H            4.81576594735741        4.03534825310512       -0.83862630548434
H            2.76312281092323        2.92866747591741       -1.62433556951681
H            6.45213417246523        0.30406087128329        0.44417351384612
H            5.66826538374353       -2.31548038627622        0.38517304320788
H            4.72198063451151       -5.50107163765892       -0.67104430574578
H            3.97863503390555       -5.31640954540495        0.91349087141215
H            5.59963737722518       -4.67489909651050        0.62183185126591
H            2.26202605515594       -4.46771784111269       -1.03675747917317
H            1.18123659163202       -2.38352790593719       -1.76830359922844
H            2.12840793326204        1.42350270163517       -3.60530637423918
H           -0.01265681820730        2.09736416252917       -4.64694025750738
H           -2.14823880459062        1.42343767990457       -3.59413275511115
H           -1.19193837888805       -2.38379952819305       -1.76284129043629
H           -2.26788244277669       -4.46772363387461       -1.02355838089340
H           -5.60391350555261       -4.67664307784456        0.63706575000320
H           -3.98252402578746       -5.30182865235844        0.95910891185936
H           -4.70162078871767       -5.51135695104822       -0.63348508387453
H           -5.66495114001681       -2.31505510650707        0.41953641777048
H           -6.44829660559588        0.30422068610960        0.48304792643735
H           -7.49448804830061        3.45097953755363       -0.47048962009503
H           -7.67091008121516        2.29963678603100        0.85738171996914
H           -6.69945338673258        3.76140205299824        1.06873359065757
H           -4.82097538798456        4.03518506134194       -0.81216149859734
H           -2.77338667040139        2.92850703193441       -1.61075418472147
H            2.02559329121467       -1.57655636255540        1.99987033484705
H            3.97082867160828       -0.69208796017856        3.26124503041700
H            4.43480622122369        1.73382089820498        3.24494877412364
H            2.97747821729415        3.25634956899779        1.97035578630589
H            1.07889842096681        2.36979087477853        0.69349085762493
H           -1.07579638828541        2.37000732370682        0.69703190069911
H           -2.96676783473055        3.25792239769860        1.98424585174841
H           -4.41675428085740        1.73674100309070        3.26867365255210
H           -3.95294561597743       -0.68924341781055        3.28445374251746
H           -2.01512451898727       -1.57503452305466        2.01258093796499

          :  Hamiltonian                  GFN2-xTB          :
         :: gradient norm              0.000052441717 Eh/a0 ::
         :: HOMO-LUMO gap              2.607139528888 eV    ::
         :: SCC energy              -132.326784801859 Eh    ::
         :: -> dispersion             -0.151789553041 Eh    ::
         :: repulsion energy           2.363922383503 Eh    ::

    * Orbital Energies and Occupations

         #    Occupation            Energy/Eh            Energy/eV
      -------------------------------------------------------------
         1        2.0000           -0.6888270             -18.7439
       ...           ...                  ...                  ...
       109        2.0000           -0.4090991             -11.1322
       110        2.0000           -0.4064226             -11.0593
       111        2.0000           -0.4054465             -11.0328
       112        2.0000           -0.4041704             -10.9980
       113        2.0000           -0.4034658             -10.9789
       114        2.0000           -0.3981693             -10.8347
       115        2.0000           -0.3936278             -10.7112
       116        2.0000           -0.3907739             -10.6335
       117        2.0000           -0.3901477             -10.6165
       118        2.0000           -0.3683445             -10.0232
       119        2.0000           -0.3682846             -10.0215
       120        2.0000           -0.3554497              -9.6723
       121        2.0000           -0.3527948              -9.6000 (HOMO)
       122                         -0.2569843              -6.9929 (LUMO)
       123                         -0.2466406              -6.7114
       124                         -0.2452304              -6.6731
       125                         -0.2364515              -6.4342
       126                         -0.2351900              -6.3998
       127                         -0.2282493              -6.2110
       128                         -0.2265315              -6.1642
       129                         -0.2242886              -6.1032
       130                         -0.2115003              -5.7552
       131                         -0.2111820              -5.7466
       132                         -0.1870814              -5.0907
       ...                                ...                  ...
       242                          1.2400996              33.7448
      -------------------------------------------------------------
                  HL-Gap            0.0958106 Eh            2.6071 eV

     #   Z          covCN         q      C6AA      α(0)
     1   6 C        3.758    -0.106    22.582     6.775
     2   6 C        2.966     0.006    27.889     8.662
     3   6 C        2.930    -0.045    29.107     8.848
     4   6 C        2.909    -0.052    29.292     8.875
     5   6 C        3.077     0.043    26.965     8.514
     6   6 C        3.068    -0.018    28.391     8.737
     7   6 C        2.918    -0.043    29.078     8.843
     8   6 C        3.068    -0.020    28.424     8.742
     9   6 C        2.918    -0.044    29.088     8.844
    10   6 C        2.967     0.009    27.819     8.651
    11   6 C        3.758    -0.107    22.597     6.777
    12   6 C        2.931    -0.037    28.919     8.819
    13   6 C        2.909    -0.034    28.841     8.806
    14   6 C        3.079     0.048    26.839     8.493
    15   7 N        2.807    -0.047    22.149     6.990
    16   6 C        2.968     0.071    26.399     8.428
    17   6 C        2.922    -0.048    29.189     8.860
    18   6 C        2.917    -0.027    28.667     8.780
    19   6 C        2.922    -0.048    29.189     8.860
    20   6 C        2.968     0.071    26.398     8.428
    21   7 N        2.807    -0.047    22.149     6.990
    22   6 C        3.079     0.048    26.839     8.493
    23   6 C        2.909    -0.034    28.840     8.806
    24   6 C        2.931    -0.037    28.919     8.819
    25   6 C        2.967     0.009    27.819     8.651
    26   6 C        3.758    -0.107    22.597     6.777
    27   6 C        2.918    -0.044    29.088     8.844
    28   6 C        3.068    -0.020    28.424     8.742
    29   6 C        3.068    -0.018    28.391     8.737
    30   6 C        2.918    -0.043    29.078     8.843
    31   6 C        2.966     0.006    27.889     8.662
    32   6 C        3.758    -0.106    22.582     6.775
    33   6 C        2.930    -0.045    29.106     8.848
    34   6 C        2.909    -0.052    29.292     8.875
    35   6 C        3.077     0.043    26.965     8.514
    36   6 C        2.918    -0.017    28.446     8.746
    37  15 P        4.033     0.080   156.700    22.487
    38   8 O        0.808    -0.361    20.939     6.134
    39   6 C        2.920     0.008    27.830     8.651
    40   6 C        3.041    -0.019    28.449     8.748
    41   6 C        2.919    -0.026    28.646     8.777
    42   6 C        2.921    -0.024    28.611     8.772
    43   6 C        2.920    -0.027    28.680     8.782
    44   6 C        2.965    -0.024    28.607     8.773
    45   6 C        2.920     0.008    27.830     8.651
    46   6 C        2.965    -0.024    28.607     8.773
    47   6 C        2.920    -0.027    28.680     8.782
    48   6 C        2.921    -0.024    28.611     8.772
    49   6 C        2.919    -0.026    28.646     8.777
    50   6 C        3.041    -0.019    28.449     8.748
    51   1 H        0.925     0.041     2.432     2.439
    52   1 H        0.925     0.043     2.412     2.429
    53   1 H        0.925     0.039     2.463     2.454
    54   1 H        0.926     0.029     2.607     2.525
    55   1 H        0.926     0.022     2.707     2.573
    56   1 H        0.926     0.030     2.586     2.515
    57   1 H        0.926     0.028     2.612     2.527
    58   1 H        0.925     0.042     2.420     2.433
    59   1 H        0.925     0.045     2.378     2.411
    60   1 H        0.925     0.038     2.477     2.461
    61   1 H        0.926     0.036     2.496     2.470
    62   1 H        0.926     0.034     2.535     2.490
    63   1 H        0.926     0.048     2.343     2.394
    64   1 H        0.926     0.045     2.381     2.413
    65   1 H        0.926     0.048     2.343     2.394
    66   1 H        0.926     0.034     2.536     2.490
    67   1 H        0.926     0.036     2.496     2.471
    68   1 H        0.925     0.038     2.478     2.461
    69   1 H        0.925     0.046     2.377     2.411
    70   1 H        0.925     0.042     2.421     2.433
    71   1 H        0.926     0.028     2.612     2.527
    72   1 H        0.926     0.030     2.585     2.514
    73   1 H        0.925     0.043     2.410     2.428
    74   1 H        0.925     0.039     2.463     2.454
    75   1 H        0.925     0.041     2.433     2.439
    76   1 H        0.926     0.029     2.607     2.525
    77   1 H        0.926     0.022     2.706     2.573
    78   1 H        0.926     0.062     2.178     2.308
    79   1 H        0.926     0.038     2.475     2.460
    80   1 H        0.926     0.036     2.503     2.474
    81   1 H        0.926     0.033     2.539     2.492
    82   1 H        0.926     0.032     2.565     2.504
    83   1 H        0.926     0.031     2.565     2.505
    84   1 H        0.926     0.033     2.538     2.491
    85   1 H        0.926     0.036     2.502     2.474
    86   1 H        0.926     0.038     2.475     2.460
    87   1 H        0.926     0.062     2.178     2.308

molecular dipole:
                 x           y           z       tot (Debye)
 q only:       -0.001       0.839      -0.125
   full:       -0.001       1.267      -0.232       3.275

 projected vibrational frequencies (cm⁻¹)
eigval :       -0.00    -0.00    -0.00     0.00     0.00     0.00
eigval :       17.23    17.37    21.13    26.99    39.35    39.87
eigval :       41.56    42.72    49.30    50.47    50.82    58.71
eigval :       59.50    70.97    78.97    93.43   102.90   104.97
eigval :      111.72   117.08   117.40   124.52   126.80   142.39
eigval :      142.71   166.53   191.74   193.53   203.31   205.88
eigval :      225.61   227.26   228.93   238.70   248.69   292.74
eigval :      294.36   296.66   300.11   312.26   325.03   325.91
eigval :      332.41   357.62   359.93   363.68   366.80   375.64
eigval :      384.14   396.96   399.47   409.59   415.69   418.14
eigval :      420.05   427.40   430.94   435.74   456.58   475.54
eigval :      478.77   485.55   511.07   523.07   529.69   538.76
eigval :      557.70   560.62   573.53   573.69   581.96   584.99
eigval :      586.72   601.55   604.60   621.61   646.04   653.30
eigval :      660.87   667.01   667.21   675.08   679.72   692.11
eigval :      704.57   704.72   708.69   713.95   733.66   734.51
eigval :      747.61   760.47   795.26   801.85   802.56   809.64
eigval :      811.71   812.25   818.26   867.35   868.20   871.82
eigval :      874.37   874.82   880.88   894.46   895.69   902.00
eigval :      903.23   906.15   909.97   910.43   912.07   922.27
eigval :      925.79   927.51   927.68   929.46   930.38   931.32
eigval :      949.16   955.51   973.25   973.70  1009.46  1009.77
eigval :     1015.01  1016.90  1033.10  1033.37  1033.47  1033.62
eigval :     1034.27  1039.94  1041.52  1053.51  1077.22  1083.53
eigval :     1110.24  1123.10  1124.27  1124.69  1128.77  1140.63
eigval :     1146.58  1154.79  1156.71  1169.28  1173.19  1180.49
eigval :     1181.03  1182.70  1189.73  1199.90  1200.31  1204.35
eigval :     1204.59  1206.07  1242.92  1250.92  1254.85  1256.07
eigval :     1260.63  1267.21  1278.08  1289.37  1298.88  1300.20
eigval :     1312.19  1312.60  1325.20  1327.04  1349.43  1355.85
eigval :     1356.35  1363.84  1366.24  1382.29  1404.61  1404.67
eigval :     1405.45  1405.45  1416.21  1416.86  1423.42  1425.68
eigval :     1426.12  1431.64  1454.18  1454.76  1455.09  1457.97
eigval :     1479.72  1480.08  1480.79  1480.86  1483.48  1483.54
eigval :     1484.44  1484.50  1497.88  1498.22  1506.51  1506.78
eigval :     1559.04  1561.75  1574.73  1575.35  1583.08  1585.21
eigval :     1587.33  1588.04  1589.26  1590.38  1610.93  1611.27
eigval :     1622.08  1622.91  3000.66  3000.99  3003.38  3003.48
eigval :     3014.43  3014.90  3016.47  3016.59  3042.42  3042.53
eigval :     3045.01  3045.17  3069.36  3069.81  3071.35  3075.52
eigval :     3076.43  3076.65  3077.18  3078.98  3080.37  3080.81
eigval :     3082.32  3082.86  3082.94  3083.22  3084.23  3084.59
eigval :     3085.28  3087.81  3089.98  3094.18  3094.34  3095.17
eigval :     3096.68  3098.89  3100.77

   temp. (K)  partition function   enthalpy   heat capacity  entropy
                                   cal/mol     cal/K/mol   cal/K/mol   J/K/mol
 298.15  VIB  0.108E+21            26042.168    159.108    163.439
         ROT  0.556E+08              888.752      2.981     38.420
         INT  0.598E+28            26930.920    162.089    201.859
         TR   0.166E+29             1481.254      4.968     45.344
         TOT                       28412.1743   167.0568   247.2027  1034.2959

       T/K    H(0)-H(T)+PV         H(T)/Eh          T*S/Eh         G(T)/Eh
   ------------------------------------------------------------------------
    298.15    0.452777E-01    0.727150E+00    0.117454E+00    0.609696E+00
   ------------------------------------------------------------------------

         :::::::::::::::::::::::::::::::::::::::::::::::::::::
         ::                  THERMODYNAMIC                  ::
         :::::::::::::::::::::::::::::::::::::::::::::::::::::
         :: total free energy        -129.353166790428 Eh   ::
         ::.................................................::
         :: total energy             -129.962862418352 Eh   ::
         :: zero point energy           0.681871903632 Eh   ::
         :: G(RRHO) w/o ZPVE           -0.072176275707 Eh   ::
         :: G(RRHO) contrib.            0.609695627924 Eh   ::
         :::::::::::::::::::::::::::::::::::::::::::::::::::::

           -------------------------------------------------
          | TOTAL ENERGY             -129.962862418352 Eh   |
          | TOTAL ENTHALPY           -129.235712832918 Eh   |
          | TOTAL FREE ENERGY        -129.353166790428 Eh   |
          | GRADIENT NORM               0.000052491619 Eh/α |
          | HOMO-LUMO GAP               2.607137964324 eV   |
           -------------------------------------------------

 * finished run on 2025/08/24 at 13:05:52.590
