   * xtb version 6.7.1 (edcfbbe) compiled by 'albert@albert-system' on 2024-07-22

   ID    Z sym.   atoms
    1    6 C      1-14, 16-20, 22-36, 39-50
    2    7 N      15, 21
    3   15 P      37
    4    8 O      38
    5    1 H      51-87

          program call               : xtb data2507/gas/DCzPO/DCzPO_gas_S0_crest.xyz --gfn 2 --ohess vtight --parallel 40 --molden --ceasefiles --namespace data2507/gas/DCzPO/DCzPO_gas_S0_finalOpt
          :  Hamiltonian                  GFN2-xTB          :
 * total energy  :  -129.9628553 Eh     change       -0.1701267E-08 Eh
 * total energy  :  -129.9628563 Eh     change       -0.9816905E-06 Eh
 * total energy  :  -129.9628570 Eh     change       -0.6541979E-06 Eh
 * total energy  :  -129.9628581 Eh     change       -0.1132646E-05 Eh
 * total energy  :  -129.9628585 Eh     change       -0.4307629E-06 Eh
 * total energy  :  -129.9628590 Eh     change       -0.4542337E-06 Eh
 * total energy  :  -129.9628594 Eh     change       -0.3476343E-06 Eh
 * total energy  :  -129.9628596 Eh     change       -0.2120270E-06 Eh
 * total energy  :  -129.9628598 Eh     change       -0.2373312E-06 Eh
 * total energy  :  -129.9628601 Eh     change       -0.2961358E-06 Eh
 * total energy  :  -129.9628609 Eh     change       -0.2245207E-06 Eh
 * total energy  :  -129.9628611 Eh     change       -0.1756221E-06 Eh
 * total energy  :  -129.9628613 Eh     change       -0.1764124E-06 Eh
 * total energy  :  -129.9628615 Eh     change       -0.1846127E-06 Eh
 * total energy  :  -129.9628617 Eh     change       -0.2155471E-06 Eh
 * total energy  :  -129.9628619 Eh     change       -0.2314452E-06 Eh
 * total energy  :  -129.9628621 Eh     change       -0.2065895E-06 Eh
 * total energy  :  -129.9628623 Eh     change       -0.1555903E-06 Eh
 * total energy  :  -129.9628624 Eh     change       -0.9930795E-07 Eh
   *** GEOMETRY OPTIMIZATION CONVERGED AFTER 21 ITERATIONS ***

 final structure:
================
87
 xtb: 6.7.1 (edcfbbe)
C            6.97220102186702        3.01791775898976        0.30904686535872
C            5.75608298968481        2.26115961786688       -0.13736660126514
C            4.71123392496416        2.95032464146348       -0.76073863241842
C            3.56196947665678        2.31489483377169       -1.18495752924701
C            3.46652634579767        0.94642385724133       -0.98421247595338
C            4.51115233985970        0.22969060752769       -0.36188023965650
C            5.65275439850319        0.89602926342274        0.06141203780344
C            4.08884335811597       -1.14149970540029       -0.30457155327374
C            4.69046169074642       -2.30795145808943        0.15034397592280
C            4.02283067496208       -3.51118978004879        0.01193696863938
C            4.62941012444918       -4.79276721057079        0.50246606369911
C            2.76992199033149       -3.54095155570229       -0.61023741724422
C            2.15024347794400       -2.39779200041531       -1.06952811513071
C            2.80150815051907       -1.19056651504488       -0.87835246687476
N            2.42355254956192        0.08492047338565       -1.26015000654776
C            1.20108561409346        0.43550689851977       -1.83788147044888
C            1.19553429289299        1.06621519221833       -3.07930795329245
C           -0.00107147485538        1.40439354970390       -3.68240480140252
C           -1.19768841906021        1.06701111627983       -3.07886835090083
C           -1.20318617837158        0.43632873137353       -1.83743635453093
N           -2.42562647159132        0.08658229458413       -1.25914363644250
C           -2.80385660493878       -1.18852132308872       -0.87640109753121
C           -2.15336444656736       -2.39615047953719       -1.06766767268571
C           -2.77275016512469       -3.53868470239860       -0.60644332800061
C           -4.02465680691208       -3.50789624244688        0.01770126015294
C           -4.63063004832610       -4.78876217071504        0.51083110288555
C           -4.69182523531133       -2.30435730247913        0.15572938352274
C           -4.09046153830468       -1.13850404513527       -0.30106450114896
C           -4.51198840382094        0.23293129125430       -0.35828052779837
C           -5.65247247404409        0.90019329620089        0.06657540272344
C           -5.75485592995080        2.26545236756700       -0.13180259768959
C           -6.96938601061625        3.02333109504927        0.31702485329841
C           -4.71028843543755        2.95380313690326       -0.75655094205365
C           -3.56220440485050        2.31742269552528       -1.18253107095799
C           -3.46762805595062        0.94886032596558       -0.98199713924198
C           -0.00102014880181        0.16109363171124       -1.17621901907022
P           -0.00064622748090       -0.41260669879239        0.57826429965697
O           -0.00052774751343       -1.86118072260022        0.79961268147031
C            1.42543114025216        0.40586644216296        1.36792754452968
C            2.24100935717474       -0.41615548521362        2.13347648295510
C            3.32042038438500        0.11335562418306        2.81582408095046
C            3.58107767792882        1.47138895329395        2.74643097122576
C            2.76437697459542        2.29578803972227        1.99054540455474
C            1.69184896803907        1.76659229791444        1.29721631430498
C           -1.42603967191322        0.40581654233326        1.36920288898618
C           -1.69233229699215        1.76659900884742        1.29907709649712
C           -2.76392735202490        2.29583793870528        1.99381625160655
C           -3.57983359124633        1.47142449047369        2.75054186388985
C           -3.31937067328410        0.11332075553202        2.81927353913467
C           -2.24088272047594       -0.41623812849782        2.13550091290336
H            7.68037439497717        2.35787608335752        0.80327676518699
H            6.69438149014688        3.81131115273212        1.00219339299741
H            7.46796979062117        3.48095893503825       -0.54377816176364
H            4.80910181266489        4.01654011337334       -0.90864872084528
H            2.76152506308211        2.87100265527831       -1.65064691860050
H            6.44924692140492        0.35026592143887        0.54541057927125
H            5.67225042124440       -2.27103947148720        0.59955412898900
H            4.72525117765631       -5.50745760864970       -0.31424527276132
H            3.99509943492851       -5.24327903148690        1.26514949440691
H            5.61424927724215       -4.61939148692158        0.92902860755362
H            2.27512809220077       -4.49290642671201       -0.73435368456086
H            1.19093788378883       -2.44594275915448       -1.56000034911660
H            2.13726011451251        1.27506733957752       -3.56416606704640
H           -0.00107797076938        1.90067155646995       -4.64110756099888
H           -2.13944990505335        1.27650939370130       -3.56337796990008
H           -1.19480248935482       -2.44504687405541       -1.55952833432296
H           -2.27843305544640       -4.49091047372438       -0.73036872641343
H           -5.61312628364806       -4.61412992280691        0.94225220235981
H           -3.99318161995220       -5.24036898281235        1.27022793144095
H           -4.73151431442763       -5.50309293634909       -0.30560605925808
H           -5.67293777973350       -2.26671854435292        0.60634892428548
H           -6.44879339867535        0.35505866190550        0.55156427372772
H           -7.67928795712310        2.36306445014280        0.80846467425037
H           -6.68986820504309        3.81326812934884        1.01346114838199
H           -7.46371277862805        3.49099752252659       -0.53408653671070
H           -4.80738685521514        4.02014358473623       -0.90406886020753
H           -2.76193463408469        2.87288547960710       -1.64929296545396
H            2.01886816656775       -1.47283398963349        2.16999473664396
H            3.95922683788586       -0.53339259957852        3.39879266403087
H            4.42326799883984        1.88955719617878        3.27746284601786
H            2.97106817782516        3.35418952638678        1.93123743162581
H            1.07724584465708        2.41202079578615        0.68754748586888
H           -1.07831689184996        2.41205392706215        0.68885022068677
H           -2.97046198938158        3.35429802666906        1.93502746011263
H           -4.42124275280424        1.88964102964524        3.28277691961554
H           -3.95759857119058       -0.53343577559749        3.40286668738182
H           -2.01891463812312       -1.47296870586382        2.17150932585853

          :  Hamiltonian                  GFN2-xTB          :
         :: gradient norm              0.000023648936 Eh/a0 ::
         :: HOMO-LUMO gap              2.607669677325 eV    ::
         :: SCC energy              -132.326773313852 Eh    ::
         :: -> dispersion             -0.151762267963 Eh    ::
         :: repulsion energy           2.363910934859 Eh    ::

    * Orbital Energies and Occupations

         #    Occupation            Energy/Eh            Energy/eV
      -------------------------------------------------------------
         1        2.0000           -0.6888484             -18.7445
       ...           ...                  ...                  ...
       109        2.0000           -0.4090692             -11.1313
       110        2.0000           -0.4064602             -11.0603
       111        2.0000           -0.4054463             -11.0328
       112        2.0000           -0.4042165             -10.9993
       113        2.0000           -0.4035134             -10.9802
       114        2.0000           -0.3981873             -10.8352
       115        2.0000           -0.3936352             -10.7114
       116        2.0000           -0.3907957             -10.6341
       117        2.0000           -0.3901708             -10.6171
       118        2.0000           -0.3683416             -10.0231
       119        2.0000           -0.3682814             -10.0214
       120        2.0000           -0.3554554              -9.6724
       121        2.0000           -0.3528008              -9.6002 (HOMO)
       122                         -0.2569707              -6.9925 (LUMO)
       123                         -0.2466648              -6.7121
       124                         -0.2452840              -6.6745
       125                         -0.2364643              -6.4345
       126                         -0.2352066              -6.4003
       127                         -0.2282398              -6.2107
       128                         -0.2265466              -6.1646
       129                         -0.2242924              -6.1033
       130                         -0.2114965              -5.7551
       131                         -0.2111771              -5.7464
       132                         -0.1870862              -5.0909
       ...                                ...                  ...
       242                          1.2399908              33.7419
      -------------------------------------------------------------
                  HL-Gap            0.0958300 Eh            2.6077 eV

     #   Z          covCN         q      C6AA      α(0)
     1   6 C        3.758    -0.106    22.582     6.775
     2   6 C        2.966     0.006    27.889     8.662
     3   6 C        2.930    -0.045    29.106     8.848
     4   6 C        2.909    -0.052    29.292     8.875
     5   6 C        3.077     0.043    26.965     8.514
     6   6 C        3.068    -0.018    28.391     8.737
     7   6 C        2.918    -0.043    29.078     8.843
     8   6 C        3.068    -0.020    28.425     8.742
     9   6 C        2.918    -0.044    29.088     8.844
    10   6 C        2.967     0.009    27.820     8.652
    11   6 C        3.758    -0.107    22.597     6.777
    12   6 C        2.931    -0.037    28.920     8.819
    13   6 C        2.909    -0.034    28.842     8.806
    14   6 C        3.079     0.048    26.839     8.493
    15   7 N        2.807    -0.047    22.149     6.990
    16   6 C        2.968     0.071    26.398     8.428
    17   6 C        2.922    -0.048    29.188     8.860
    18   6 C        2.917    -0.027    28.667     8.780
    19   6 C        2.922    -0.048    29.188     8.860
    20   6 C        2.968     0.071    26.398     8.428
    21   7 N        2.807    -0.047    22.149     6.990
    22   6 C        3.079     0.048    26.840     8.494
    23   6 C        2.909    -0.034    28.842     8.806
    24   6 C        2.931    -0.037    28.920     8.819
    25   6 C        2.967     0.009    27.820     8.652
    26   6 C        3.758    -0.107    22.597     6.777
    27   6 C        2.918    -0.044    29.088     8.844
    28   6 C        3.068    -0.020    28.425     8.742
    29   6 C        3.068    -0.018    28.391     8.737
    30   6 C        2.918    -0.043    29.078     8.843
    31   6 C        2.966     0.006    27.889     8.662
    32   6 C        3.758    -0.106    22.582     6.775
    33   6 C        2.930    -0.045    29.106     8.848
    34   6 C        2.909    -0.052    29.292     8.875
    35   6 C        3.077     0.043    26.965     8.514
    36   6 C        2.918    -0.017    28.445     8.746
    37  15 P        4.034     0.081   156.696    22.486
    38   8 O        0.808    -0.361    20.940     6.134
    39   6 C        2.920     0.008    27.830     8.651
    40   6 C        3.041    -0.019    28.449     8.748
    41   6 C        2.919    -0.026    28.646     8.777
    42   6 C        2.921    -0.024    28.611     8.772
    43   6 C        2.920    -0.027    28.680     8.782
    44   6 C        2.965    -0.024    28.607     8.773
    45   6 C        2.920     0.008    27.830     8.651
    46   6 C        2.965    -0.024    28.607     8.773
    47   6 C        2.920    -0.027    28.680     8.782
    48   6 C        2.921    -0.024    28.611     8.772
    49   6 C        2.919    -0.026    28.646     8.777
    50   6 C        3.041    -0.019    28.449     8.748
    51   1 H        0.925     0.039     2.463     2.454
    52   1 H        0.925     0.041     2.432     2.439
    53   1 H        0.925     0.043     2.412     2.429
    54   1 H        0.926     0.029     2.607     2.525
    55   1 H        0.926     0.022     2.707     2.573
    56   1 H        0.926     0.030     2.586     2.515
    57   1 H        0.926     0.028     2.612     2.528
    58   1 H        0.925     0.042     2.421     2.433
    59   1 H        0.925     0.045     2.378     2.411
    60   1 H        0.925     0.038     2.478     2.461
    61   1 H        0.926     0.036     2.496     2.471
    62   1 H        0.926     0.034     2.534     2.489
    63   1 H        0.926     0.048     2.343     2.393
    64   1 H        0.926     0.045     2.380     2.413
    65   1 H        0.926     0.048     2.343     2.393
    66   1 H        0.926     0.034     2.534     2.490
    67   1 H        0.926     0.037     2.496     2.470
    68   1 H        0.925     0.038     2.478     2.461
    69   1 H        0.925     0.045     2.378     2.411
    70   1 H        0.925     0.042     2.421     2.433
    71   1 H        0.926     0.028     2.612     2.528
    72   1 H        0.926     0.030     2.586     2.515
    73   1 H        0.925     0.039     2.463     2.454
    74   1 H        0.925     0.041     2.432     2.439
    75   1 H        0.925     0.043     2.412     2.429
    76   1 H        0.926     0.029     2.607     2.525
    77   1 H        0.926     0.022     2.707     2.573
    78   1 H        0.926     0.062     2.178     2.308
    79   1 H        0.926     0.038     2.475     2.460
    80   1 H        0.926     0.036     2.503     2.474
    81   1 H        0.926     0.033     2.539     2.492
    82   1 H        0.926     0.032     2.565     2.504
    83   1 H        0.926     0.032     2.565     2.504
    84   1 H        0.926     0.033     2.539     2.492
    85   1 H        0.926     0.036     2.503     2.474
    86   1 H        0.926     0.038     2.474     2.460
    87   1 H        0.926     0.062     2.178     2.308

molecular dipole:
                 x           y           z       tot (Debye)
 q only:        0.000       0.834      -0.160
   full:        0.000       1.257      -0.285       3.276

 projected vibrational frequencies (cm⁻¹)
eigval :       -0.00    -0.00    -0.00     0.00     0.00     0.00
eigval :       17.01    17.27    21.07    26.99    39.41    39.95
eigval :       41.57    42.73    49.26    50.35    50.72    58.60
eigval :       59.45    70.95    78.96    93.45   102.90   104.88
eigval :      111.69   117.00   117.34   124.57   126.70   142.39
eigval :      142.65   166.56   191.77   193.49   203.22   205.70
eigval :      225.58   227.26   228.90   238.72   248.74   292.73
eigval :      294.32   296.65   300.10   312.24   325.03   325.91
eigval :      332.37   357.62   359.91   363.69   366.72   375.67
eigval :      384.14   397.00   399.45   409.66   415.60   418.09
eigval :      420.10   427.45   430.90   435.88   456.62   475.52
eigval :      478.71   485.59   511.11   523.02   529.64   538.71
eigval :      557.67   560.64   573.53   573.69   581.94   584.98
eigval :      586.72   601.52   604.61   621.61   646.09   653.30
eigval :      660.88   666.99   667.20   675.17   679.76   692.11
eigval :      704.57   704.72   708.66   713.94   733.65   734.55
eigval :      747.62   760.47   795.23   801.87   802.70   809.70
eigval :      811.70   812.27   818.24   867.44   868.22   871.82
eigval :      874.37   874.81   880.87   894.53   895.70   902.03
eigval :      903.35   906.18   910.00   910.42   912.10   922.26
eigval :      925.81   927.54   927.71   929.47   930.38   931.33
eigval :      949.19   955.50   973.26   973.70  1009.46  1009.77
eigval :     1015.02  1016.90  1033.13  1033.36  1033.48  1033.63
eigval :     1034.29  1039.94  1041.51  1053.56  1077.21  1083.52
eigval :     1110.25  1123.09  1124.29  1124.71  1128.84  1140.62
eigval :     1146.66  1154.79  1156.68  1169.33  1173.18  1180.49
eigval :     1181.04  1182.70  1189.73  1199.88  1200.31  1204.33
eigval :     1204.61  1206.08  1242.96  1250.95  1254.84  1256.05
eigval :     1260.61  1267.22  1278.07  1289.35  1298.86  1300.17
eigval :     1312.21  1312.62  1325.19  1327.05  1349.45  1355.79
eigval :     1356.33  1363.83  1366.23  1382.28  1404.62  1404.68
eigval :     1405.45  1405.46  1416.23  1416.88  1423.43  1425.74
eigval :     1426.13  1431.62  1454.18  1454.75  1455.08  1457.98
eigval :     1479.72  1480.07  1480.80  1480.87  1483.49  1483.54
eigval :     1484.45  1484.46  1497.89  1498.23  1506.54  1506.81
eigval :     1559.09  1561.75  1574.71  1575.34  1583.09  1585.23
eigval :     1587.30  1588.01  1589.26  1590.39  1610.93  1611.26
eigval :     1622.10  1622.93  3000.97  3001.00  3003.44  3003.51
eigval :     3014.38  3014.46  3016.45  3016.57  3042.42  3042.49
eigval :     3045.12  3045.19  3069.32  3069.77  3071.35  3075.51
eigval :     3076.42  3076.64  3077.17  3078.98  3080.37  3080.80
eigval :     3082.31  3082.83  3082.93  3083.20  3084.21  3084.56
eigval :     3085.29  3087.81  3089.97  3094.15  3094.32  3095.16
eigval :     3096.63  3098.80  3100.77

   temp. (K)  partition function   enthalpy   heat capacity  entropy
                                   cal/mol     cal/K/mol   cal/K/mol   J/K/mol
 298.15  VIB  0.111E+21            26043.652    159.101    163.468
         ROT  0.556E+08              888.752      2.981     38.420
         INT  0.615E+28            26932.405    162.082    201.889
         TR   0.166E+29             1481.254      4.968     45.344
         TOT                       28413.6587   167.0502   247.2325  1034.4207

       T/K    H(0)-H(T)+PV         H(T)/Eh          T*S/Eh         G(T)/Eh
   ------------------------------------------------------------------------
    298.15    0.452800E-01    0.727150E+00    0.117468E+00    0.609682E+00
   ------------------------------------------------------------------------

         :::::::::::::::::::::::::::::::::::::::::::::::::::::
         ::                  THERMODYNAMIC                  ::
         :::::::::::::::::::::::::::::::::::::::::::::::::::::
         :: total free energy        -129.353180176584 Eh   ::
         ::.................................................::
         :: total energy             -129.962862379004 Eh   ::
         :: zero point energy           0.681870288507 Eh   ::
         :: G(RRHO) w/o ZPVE           -0.072188086086 Eh   ::
         :: G(RRHO) contrib.            0.609682202421 Eh   ::
         :::::::::::::::::::::::::::::::::::::::::::::::::::::

           -------------------------------------------------
          | TOTAL ENERGY             -129.962862379004 Eh   |
          | TOTAL ENTHALPY           -129.235712043196 Eh   |
          | TOTAL FREE ENERGY        -129.353180176584 Eh   |
          | GRADIENT NORM               0.000023639757 Eh/α |
          | HOMO-LUMO GAP               2.607667792680 eV   |
           -------------------------------------------------

 * finished run on 2025/08/24 at 13:11:40.657
