   * xtb version 6.7.1 (edcfbbe) compiled by 'albert@albert-system' on 2024-07-22

   ID    Z sym.   atoms
    1    7 N      1, 5, 13, 22, 30, 39, 47
    2    6 C      2-4, 6-12, 14-21, 23-29, 31-38, 40-46, 48-53
    3    1 H      54-82

          program call               : xtb data2507/toluene/iTPBI-CN/iTPBI-CN.xyz --gfn 2 --gbsa toluene --ohess vtight --parallel 40 --molden --ceasefiles --namespace data2507/toluene/iTPBI-CN/iTPBI-CN_toluene_S0_preOpt
      * Solvation model:               GBSA
        Solvent                        toluene
        Solvent mass                       9.2140E+01 g/mol
          :  Hamiltonian                  GFN2-xTB          :
 * total energy  :  -133.8431687 Eh     change       -0.3588724E-08 Eh
 * total energy  :  -133.8579528 Eh     change       -0.1478413E-01 Eh
 * total energy  :  -133.8620166 Eh     change       -0.4063733E-02 Eh
 * total energy  :  -133.8632431 Eh     change       -0.1226495E-02 Eh
 * total energy  :  -133.8641886 Eh     change       -0.9455043E-03 Eh
 * total energy  :  -133.8647648 Eh     change       -0.5762526E-03 Eh
 * total energy  :  -133.8652820 Eh     change       -0.5171611E-03 Eh
 * total energy  :  -133.8658889 Eh     change       -0.6068961E-03 Eh
 * total energy  :  -133.8664320 Eh     change       -0.5430674E-03 Eh
 * total energy  :  -133.8668385 Eh     change       -0.4065201E-03 Eh
 * total energy  :  -133.8680851 Eh     change       -0.1072758E-05 Eh
 * total energy  :  -133.8680861 Eh     change       -0.9946155E-06 Eh
 * total energy  :  -133.8680872 Eh     change       -0.1103263E-05 Eh
 * total energy  :  -133.8680883 Eh     change       -0.1017607E-05 Eh
 * total energy  :  -133.8680889 Eh     change       -0.6317736E-06 Eh
 * total energy  :  -133.8680891 Eh     change       -0.1948661E-06 Eh
 * total energy  :  -133.8680896 Eh     change       -0.5324220E-06 Eh
 * total energy  :  -133.8680897 Eh     change       -0.1232242E-06 Eh
 * total energy  :  -133.8680898 Eh     change       -0.8781342E-07 Eh
   *** GEOMETRY OPTIMIZATION CONVERGED AFTER 47 ITERATIONS ***

 final structure:
================
82
 xtb: 6.7.1 (edcfbbe)
N            2.59941046691719        2.03882978231250        2.13745248481826
C            1.94226113984461        1.45541197889470        1.39929383300327
C            1.06180819106306        0.73001573496635        0.57119096751215
C            0.03250170830736        1.40708815646371       -0.11173693900043
N           -0.00085635683023        2.80110229090973       -0.09435527006915
C            1.04261258519562        3.67541001664693       -0.37020809225160
C            2.30319592274683        3.26656382669301       -0.97070933492145
C            2.36545995371287        2.24325650174150       -1.91599453912877
C            3.57210363136643        1.91920937396160       -2.51044206961425
C            4.72464155298627        2.60874928530057       -2.17007035545810
C            4.66620613442757        3.63544434137577       -1.24044098950680
C            3.46366521061415        3.96852329384458       -0.64740745738698
N            0.73061533550611        4.91580616712475       -0.13711865672488
C           -0.56232705716780        4.91345840901069        0.31719143308629
C           -1.37764695224088        5.96751408700477        0.71345936142913
C           -2.65840772694877        5.66397656822218        1.12749955566821
C           -3.12606963853169        4.34936642784537        1.15849091355307
C           -2.33182711006051        3.28673792228483        0.77147057297409
C           -1.05137156457199        3.58803870365817        0.34174532176624
C           -0.94144413282294        0.68991091063977       -0.78758513020830
C           -0.87825333368517       -0.70263530096876       -0.82905921309248
N           -1.82892420717349       -1.42041911928354       -1.55396224693682
C           -3.20938909065918       -1.27836984208858       -1.52850472949377
C           -3.92173604169849       -0.48899991440624       -0.53469671982735
C           -3.47793448437143       -0.41087166152793        0.78485289745418
C           -4.20701965515016        0.30274331518082        1.71923259699245
C           -5.37947479708194        0.94300256039753        1.35053316034454
C           -5.82945219532166        0.86119981363871        0.04207392217831
C           -5.10968814697277        0.14589750290349       -0.89614207482346
N           -3.80392257177171       -1.99906330437535       -2.43410745774260
C           -2.81638981831807       -2.66065472771442       -3.11502402615335
C           -2.90112824026193       -3.54301947047433       -4.18637328634154
C           -1.72208531731429       -4.05107611093288       -4.69105183214692
C           -0.48272460267373       -3.69098225518184       -4.15909201219748
C           -0.37634076119359       -2.81651515659073       -3.09430300548191
C           -1.55741055684561       -2.31811780764403       -2.57058076880306
C            0.16264832548412       -1.37704579095553       -0.19895397069155
C            1.12527047919117       -0.67216081385751        0.51262743216131
N            2.13709839367638       -1.36366263472864        1.17568027627838
C            1.98957894828748       -2.48311753153158        1.98605010415392
C            0.69697355234232       -3.00476513248991        2.40978395478672
C           -0.35072266294711       -2.15896725752419        2.77182973987243
C           -1.55684772132941       -2.69070130374054        3.19031109011082
C           -1.73320138628525       -4.06383729901541        3.24734382920814
C           -0.68915038539837       -4.90904057188421        2.90682523494772
C            0.52266915405428       -4.38517012746058        2.49723187193738
N            3.12829934782437       -2.98030346513115        2.36577325470712
C            4.10210730051380       -2.19394200230679        1.80656484074510
C            5.48642502686010       -2.29418003024821        1.88066821239959
C            6.23194175032229       -1.36331101674618        1.18723627736274
C            5.62717455245405       -0.36161758174655        0.42694775855139
C            4.25318713263657       -0.24483367471281        0.33977085008188
C            3.50033254294629       -1.16050530264220        1.05340562523808
H            1.46746656941180        1.71701758347699       -2.20936318894229
H            3.60997689270430        1.12605609706285       -3.24273183278480
H            5.66371192708698        2.34925619478786       -2.63486238984779
H            5.56062046153717        4.17973278103991       -0.97828377022586
H            3.39897137654193        4.76772620866848        0.07376834150541
H           -1.00688297597836        6.97968275312677        0.69480878666058
H           -3.31704333629114        6.46035000229061        1.43971510250341
H           -4.13404440567453        4.15562151255420        1.49120519285713
H           -2.69795255979694        2.27215265952307        0.80382924441622
H           -1.73015512326604        1.21292818847118       -1.30594158706207
H           -2.57944827686411       -0.93063145693831        1.08563648174801
H           -3.85873635145939        0.35980595608683        2.74014931004771
H           -5.94334872443411        1.49821303335702        2.08475527246633
H           -6.74566987587893        1.35353418013891       -0.24681315001290
H           -5.45133303509507        0.06398425934289       -1.91618355168169
H           -3.86082991907107       -3.80660715897823       -4.60085835450727
H           -1.75287317471680       -4.73951076856642       -5.52211961134405
H            0.41600949721243       -4.10503754886136       -4.59070068346953
H            0.58698424052636       -2.53468516310317       -2.69613065586933
H            0.21049953538726       -2.45411859006457       -0.23966112824891
H           -0.21067457556618       -1.08657852009989        2.75554459956895
H           -2.36134831464327       -2.03181532629614        3.48036092568451
H           -2.67985288926811       -4.47193997551484        3.56750136349139
H           -0.81835504801988       -5.97927789830614        2.96358504654687
H            1.34841959101515       -5.02916167396663        2.23710194660148
H            5.94580003509915       -3.07947446164673        2.45911106149913
H            7.30972728273988       -1.41082985358978        1.22526868589914
H            6.24568308549808        0.34230596634844       -0.10778586307557
H            3.79823526760987        0.53192925655150       -0.25552178975103

          :  Hamiltonian                  GFN2-xTB          :
         :: gradient norm              0.000073371210 Eh/a0 ::
         :: HOMO-LUMO gap              2.356923918100 eV    ::
         :: SCC energy              -136.328617804381 Eh    ::
         :: -> dispersion             -0.130354776416 Eh    ::
         :: -> Gsolv                  -0.057251052473 Eh    ::
         :: repulsion energy           2.460527972848 Eh    ::

    * Orbital Energies and Occupations

         #    Occupation            Energy/Eh            Energy/eV
      -------------------------------------------------------------
         1        2.0000           -0.7199946             -19.5921
       ...           ...                  ...                  ...
       112        2.0000           -0.4282535             -11.6534
       113        2.0000           -0.4241058             -11.5405
       114        2.0000           -0.4229940             -11.5103
       115        2.0000           -0.4228999             -11.5077
       116        2.0000           -0.4032067             -10.9718
       117        2.0000           -0.4023766             -10.9492
       118        2.0000           -0.4005425             -10.8993
       119        2.0000           -0.3984624             -10.8427
       120        2.0000           -0.3978856             -10.8270
       121        2.0000           -0.3974570             -10.8154
       122        2.0000           -0.3964991             -10.7893
       123        2.0000           -0.3960088             -10.7759
       124        2.0000           -0.3957083             -10.7678 (HOMO)
       125                         -0.3090929              -8.4108 (LUMO)
       126                         -0.2876226              -7.8266
       127                         -0.2758546              -7.5064
       128                         -0.2732744              -7.4362
       129                         -0.2687128              -7.3120
       130                         -0.2422561              -6.5921
       131                         -0.2414901              -6.5713
       132                         -0.2411573              -6.5622
       133                         -0.2367415              -6.4421
       134                         -0.2330910              -6.3427
       135                         -0.2329235              -6.3382
       ...                                ...                  ...
       241                          1.1372532              30.9462
      -------------------------------------------------------------
                  HL-Gap            0.0866154 Eh            2.3569 eV

     #   Z          covCN         q      C6AA      α(0)
     1   7 N        0.911    -0.264    26.842     7.493
     2   6 C        1.910     0.129    27.933     8.535
     3   6 C        2.975    -0.016    28.410     8.743
     4   6 C        2.916     0.079    26.234     8.399
     5   7 N        2.825    -0.066    22.512     7.047
     6   6 C        3.166     0.149    24.464     8.083
     7   6 C        2.975    -0.005    28.134     8.701
     8   6 C        2.922    -0.037    28.927     8.820
     9   6 C        2.918    -0.028    28.711     8.787
    10   6 C        2.919    -0.025    28.624     8.774
    11   6 C        2.918    -0.024    28.594     8.769
    12   6 C        2.926    -0.024    28.606     8.771
    13   7 N        1.886    -0.302    28.676     7.939
    14   6 C        3.187     0.070    25.989     8.318
    15   6 C        2.911    -0.044    29.085     8.843
    16   6 C        2.923    -0.037    28.926     8.820
    17   6 C        2.927    -0.035    28.876     8.812
    18   6 C        2.908    -0.055    29.372     8.887
    19   6 C        3.076     0.034    27.158     8.544
    20   6 C        2.922    -0.060    29.493     8.906
    21   6 C        2.909     0.080    26.220     8.396
    22   7 N        2.825    -0.055    22.291     7.012
    23   6 C        3.166     0.139    24.656     8.114
    24   6 C        2.975    -0.003    28.100     8.695
    25   6 C        2.922    -0.035    28.864     8.810
    26   6 C        2.918    -0.027    28.667     8.780
    27   6 C        2.919    -0.024    28.610     8.771
    28   6 C        2.918    -0.024    28.602     8.770
    29   6 C        2.926    -0.026    28.642     8.777
    30   7 N        1.885    -0.295    28.501     7.914
    31   6 C        3.186     0.069    26.020     8.323
    32   6 C        2.910    -0.043    29.061     8.840
    33   6 C        2.923    -0.037    28.922     8.819
    34   6 C        2.926    -0.035    28.869     8.811
    35   6 C        2.908    -0.052    29.298     8.876
    36   6 C        3.076     0.032    27.205     8.552
    37   6 C        2.924    -0.061    29.509     8.908
    38   6 C        2.914     0.079    26.233     8.399
    39   7 N        2.824    -0.063    22.458     7.038
    40   6 C        3.166     0.142    24.591     8.103
    41   6 C        2.975    -0.004    28.122     8.699
    42   6 C        2.922    -0.033    28.821     8.804
    43   6 C        2.919    -0.028    28.692     8.784
    44   6 C        2.920    -0.025    28.625     8.774
    45   6 C        2.918    -0.024    28.608     8.771
    46   6 C        2.926    -0.026    28.656     8.779
    47   7 N        1.885    -0.296    28.522     7.917
    48   6 C        3.188     0.069    26.008     8.320
    49   6 C        2.911    -0.044    29.083     8.843
    50   6 C        2.923    -0.037    28.911     8.818
    51   6 C        2.927    -0.034    28.852     8.809
    52   6 C        2.908    -0.051    29.273     8.872
    53   6 C        3.074     0.037    27.089     8.534
    54   1 H        0.925     0.021     2.716     2.577
    55   1 H        0.926     0.044     2.392     2.419
    56   1 H        0.926     0.051     2.309     2.376
    57   1 H        0.926     0.052     2.295     2.369
    58   1 H        0.926     0.051     2.302     2.373
    59   1 H        0.926     0.049     2.328     2.386
    60   1 H        0.926     0.047     2.359     2.402
    61   1 H        0.926     0.047     2.355     2.400
    62   1 H        0.926     0.033     2.544     2.494
    63   1 H        0.926     0.063     2.161     2.299
    64   1 H        0.926     0.025     2.653     2.547
    65   1 H        0.926     0.042     2.426     2.436
    66   1 H        0.926     0.049     2.338     2.391
    67   1 H        0.926     0.050     2.319     2.382
    68   1 H        0.926     0.052     2.298     2.370
    69   1 H        0.926     0.049     2.328     2.386
    70   1 H        0.926     0.045     2.387     2.416
    71   1 H        0.926     0.044     2.395     2.420
    72   1 H        0.926     0.031     2.574     2.509
    73   1 H        0.926     0.064     2.156     2.296
    74   1 H        0.925     0.018     2.761     2.598
    75   1 H        0.926     0.046     2.372     2.409
    76   1 H        0.926     0.050     2.315     2.380
    77   1 H        0.926     0.051     2.303     2.373
    78   1 H        0.926     0.052     2.300     2.371
    79   1 H        0.926     0.052     2.298     2.371
    80   1 H        0.926     0.048     2.340     2.392
    81   1 H        0.926     0.046     2.370     2.407
    82   1 H        0.926     0.022     2.705     2.572

molecular dipole:
                 x           y           z       tot (Debye)
 q only:       -1.093      -0.835      -0.638
   full:       -1.214      -0.968      -0.959       4.638

 projected vibrational frequencies (cm⁻¹)
eigval :       -0.00    -0.00    -0.00     0.00     0.00     0.00
eigval :       16.23    20.68    21.03    25.99    29.03    33.52
eigval :       39.38    43.13    52.77    58.07    58.80    62.78
eigval :       69.28    72.03    77.13    86.22    90.48    91.70
eigval :      106.10   124.84   149.83   152.18   170.86   185.12
eigval :      188.21   194.81   209.47   228.15   237.50   249.55
eigval :      257.97   263.67   285.87   286.34   289.58   297.41
eigval :      302.17   308.99   319.17   349.66   356.79   359.74
eigval :      370.84   372.42   373.89   375.90   406.91   408.87
eigval :      412.11   418.12   474.35   477.48   484.38   494.66
eigval :      517.55   533.47   537.99   540.07   542.15   543.33
eigval :      544.73   550.80   562.15   583.51   585.74   586.81
eigval :      589.79   602.70   612.36   624.68   630.67   649.21
eigval :      651.89   654.48   664.66   668.03   669.45   672.16
eigval :      674.52   675.08   679.76   685.00   705.03   707.78
eigval :      708.85   710.84   760.46   764.23   764.55   772.10
eigval :      773.25   773.78   786.97   818.57   848.22   863.63
eigval :      864.07   864.74   866.98   868.74   872.74   874.74
eigval :      877.03   880.35   881.87   886.72   889.14   890.19
eigval :      899.50   900.41   900.98   904.98   906.91   909.24
eigval :      920.63   921.84   922.01   927.70   929.50   932.12
eigval :      932.87   935.03   938.97   954.23   978.41   978.87
eigval :      993.22  1049.06  1058.30  1061.90  1063.22  1074.86
eigval :     1080.04  1081.19  1083.72  1108.69  1118.16  1118.51
eigval :     1119.47  1127.31  1128.00  1128.85  1135.35  1165.47
eigval :     1166.96  1171.29  1174.30  1176.77  1177.24  1178.91
eigval :     1189.38  1191.37  1194.84  1195.82  1200.37  1202.29
eigval :     1221.32  1247.25  1250.56  1266.61  1276.32  1277.43
eigval :     1278.72  1285.53  1287.20  1288.28  1296.27  1300.59
eigval :     1302.95  1311.53  1317.75  1318.13  1319.04  1329.31
eigval :     1338.41  1357.25  1358.00  1359.55  1404.84  1407.65
eigval :     1408.61  1424.64  1426.03  1426.49  1436.98  1440.40
eigval :     1453.51  1461.83  1462.27  1463.14  1481.00  1481.48
eigval :     1482.27  1523.55  1540.69  1542.37  1547.22  1558.57
eigval :     1578.01  1578.13  1578.93  1586.63  1588.42  1588.56
eigval :     1593.62  1594.81  1595.21  1613.55  1614.54  1616.25
eigval :     2357.34  3062.97  3067.45  3074.90  3076.95  3082.10
eigval :     3082.84  3084.89  3084.92  3086.08  3086.61  3088.11
eigval :     3088.77  3089.66  3090.98  3091.26  3095.95  3096.83
eigval :     3098.29  3098.50  3101.55  3101.75  3104.46  3106.69
eigval :     3108.11  3108.51  3109.26  3110.21  3110.74  3111.16

   temp. (K)  partition function   enthalpy   heat capacity  entropy
                                   cal/mol     cal/K/mol   cal/K/mol   J/K/mol
 298.15  VIB  0.679E+19            24366.839    152.071    152.221
         ROT  0.711E+08              888.752      2.981     38.910
         INT  0.483E+27            25255.591    155.052    191.131
         TR   0.171E+29             1481.254      4.968     45.410
         TOT                       26736.8453   160.0202   236.5412   989.6882

       T/K    H(0)-H(T)+PV         H(T)/Eh          T*S/Eh         G(T)/Eh
   ------------------------------------------------------------------------
    298.15    0.426079E-01    0.657612E+00    0.112388E+00    0.545224E+00
   ------------------------------------------------------------------------

         :::::::::::::::::::::::::::::::::::::::::::::::::::::
         ::                  THERMODYNAMIC                  ::
         :::::::::::::::::::::::::::::::::::::::::::::::::::::
         :: total free energy        -133.322866153896 Eh   ::
         ::.................................................::
         :: total energy             -133.868089831542 Eh   ::
         :: zero point energy           0.615004138486 Eh   ::
         :: G(RRHO) w/o ZPVE           -0.069780460839 Eh   ::
         :: G(RRHO) contrib.            0.545223677647 Eh   ::
         :::::::::::::::::::::::::::::::::::::::::::::::::::::

           -------------------------------------------------
          | TOTAL ENERGY             -133.868089831542 Eh   |
          | TOTAL ENTHALPY           -133.210477817913 Eh   |
          | TOTAL FREE ENERGY        -133.322866153896 Eh   |
          | GRADIENT NORM               0.000073329806 Eh/α |
          | HOMO-LUMO GAP               2.356925446341 eV   |
           -------------------------------------------------

 * finished run on 2025/09/09 at 05:48:17.761
