   * xtb version 6.7.1 (edcfbbe) compiled by 'albert@albert-system' on 2024-07-22

   ID    Z sym.   atoms
    1    7 N      1, 5, 13, 22, 30, 39, 47
    2    6 C      2-4, 6-12, 14-21, 23-29, 31-38, 40-46, 48-53
    3    1 H      54-82

          program call               : xtb data2507/toluene/iTPBI-CN/iTPBI-CN_toluene_S0_finalOpt.xtbopt.xyz --gfn 2 --uhf 2 --gbsa toluene --ohess vtight --parallel 40 --molden --ceasefiles --namespace data2507/toluene/iTPBI-CN/iTPBI-CN_toluene_T1_preOpt
      * Solvation model:               GBSA
        Solvent                        toluene
        Solvent mass                       9.2140E+01 g/mol
          :  Hamiltonian                  GFN2-xTB          :
 * total energy  :  -133.7672626 Eh     change        0.4864319E-08 Eh
 * total energy  :  -133.7710206 Eh     change       -0.3757979E-02 Eh
 * total energy  :  -133.7722611 Eh     change       -0.1240430E-02 Eh
 * total energy  :  -133.7724309 Eh     change       -0.1698403E-03 Eh
 * total energy  :  -133.7727587 Eh     change       -0.3277895E-03 Eh
 * total energy  :  -133.7730361 Eh     change       -0.2774038E-03 Eh
 * total energy  :  -133.7734997 Eh     change       -0.4636022E-03 Eh
 * total energy  :  -133.7739051 Eh     change       -0.4053782E-03 Eh
 * total energy  :  -133.7742125 Eh     change       -0.3074305E-03 Eh
 * total energy  :  -133.7743903 Eh     change       -0.1777580E-03 Eh
 * total energy  :  -133.7751307 Eh     change       -0.9250916E-06 Eh
 * total energy  :  -133.7751314 Eh     change       -0.6944832E-06 Eh
 * total energy  :  -133.7751320 Eh     change       -0.5625708E-06 Eh
 * total energy  :  -133.7751325 Eh     change       -0.5302176E-06 Eh
 * total energy  :  -133.7751331 Eh     change       -0.5707622E-06 Eh
 * total energy  :  -133.7751335 Eh     change       -0.4230416E-06 Eh
 * total energy  :  -133.7751336 Eh     change       -0.1583017E-06 Eh
 * total energy  :  -133.7751340 Eh     change       -0.3623855E-06 Eh
 * total energy  :  -133.7751341 Eh     change       -0.9429161E-07 Eh
   *** GEOMETRY OPTIMIZATION CONVERGED AFTER 46 ITERATIONS ***

 final structure:
================
82
 xtb: 6.7.1 (edcfbbe)
N            2.33576728906251        2.60542549447880       -1.67272887017651
C            1.64372920198593        1.84443610064291       -1.14681383232668
C            0.78098583689866        0.92167888655070       -0.56209610458738
C            1.06656507148705       -0.46856179490919       -0.59925974897735
N            2.26575115869720       -0.89697669933636       -1.19269810425907
C            3.55006409371465       -0.47225823642632       -0.92276965379159
C            3.92102663921296        0.34954960428726        0.21379411123523
C            3.21922781450438        0.30912307467427        1.41871071939893
C            3.62596653697247        1.08900393755147        2.48578656589063
C            4.73223195327542        1.91513514666606        2.36513894242896
C            5.44212277907312        1.95010404666092        1.17439930295536
C            5.04635820171211        1.16875486804068        0.10713401725601
N            4.42539563557743       -0.94824706356148       -1.77293686745082
C            3.72797441038933       -1.71864612905737       -2.65456387260420
C            4.16249463809379       -2.44550364295873       -3.76151071800353
C            3.21227335290030       -3.12312710122287       -4.49348328347125
C            1.85691245184274       -3.08637414816062       -4.15090643772490
C            1.40317224521717       -2.37453744033774       -3.05643088043753
C            2.35391538168459       -1.70261241253449       -2.30770967981269
C            0.16389456849246       -1.38981841783207       -0.12860722473826
C           -1.06374877256740       -0.97021386127527        0.42534658299245
N           -1.97016392043828       -1.90511885776327        0.89620230605175
C           -1.68441466836972       -3.11584931192951        1.53763569760403
C           -0.48536152552227       -3.48329016095331        2.18486589991187
C           -0.30766968309966       -4.85099117815474        2.52685922046563
C            0.83659753924335       -5.27419429874588        3.15245937694665
C            1.84096695488832       -4.36298125135742        3.48116027029225
C            1.66248457479892       -3.00917020782621        3.20105020003067
C            0.52600791989651       -2.56602270140050        2.56998261447075
N           -2.78520002576133       -3.91300268136511        1.58924526283581
C           -3.79309798834245       -3.20195656359095        1.10291948286819
C           -5.15363245361889       -3.55070177277197        0.95815052260400
C           -5.97903516234416       -2.65824158138843        0.32586861825987
C           -5.49891616489704       -1.43450863928195       -0.16817496723184
C           -4.16904054315080       -1.05356799663613       -0.02368656269732
C           -3.32751228732474       -1.92162433037491        0.63640408239130
C           -1.35032059513183        0.40262007783956        0.48842087827745
C           -0.45498826746126        1.32874930095941        0.00515394909202
N           -0.76287790658485        2.69636048850287        0.07321919807034
C           -1.90384347998675        3.31772756876056       -0.38895919564657
C           -2.91528143691383        2.66724338280116       -1.20619681270647
C           -2.58058418192396        1.71289474631747       -2.16775541805981
C           -3.56646583303023        1.14406432044670       -2.95299614237805
C           -4.89172379155871        1.51746767609853       -2.79071280570854
C           -5.22889111283824        2.47700053881217       -1.84835649038094
C           -4.24878213530708        3.05412262687223       -1.06365472917060
N           -1.95738909268759        4.58317444517045       -0.05858235453654
C           -0.81229296225175        4.84807171092612        0.63370703838604
C           -0.36294135393363        6.03141179167638        1.21543502248961
C            0.84248134508422        5.99683528776089        1.88174976269078
C            1.59206157144842        4.82095961960976        1.98226439795126
C            1.16533072203567        3.63517886134582        1.41545170242055
C           -0.03532426275976        3.66643722227910        0.72799661292082
H            2.37214263978910       -0.35206559231737        1.52865758663778
H            3.07753977235902        1.05115802869238        3.41601234369284
H            5.04254053789624        2.52565038497369        3.19966806729033
H            6.30748626522657        2.58825170006748        1.07916784874637
H            5.58526870610381        1.18243994217790       -0.82690910219462
H            5.20790855067995       -2.46254414632960       -4.02460016614897
H            3.51469492674379       -3.69485463525066       -5.35784088082847
H            1.14711659904286       -3.62717918193868       -4.75836003283548
H            0.35437476427776       -2.34069007711679       -2.80133451694232
H            0.39386414224349       -2.44224348698096       -0.18959996738850
H           -1.09203452678407       -5.53989710781580        2.25770353967350
H            0.96512168157292       -6.31988655079004        3.38841451968344
H            2.74329170378410       -4.69929865882631        3.96734555155182
H            2.42262772376130       -2.30038696409440        3.49508403449971
H            0.37229553421477       -1.50908423505325        2.41660203373675
H           -5.50558826384452       -4.49347334906746        1.34345664430698
H           -7.02452080044195       -2.89418142270606        0.19774541398270
H           -6.17756519342255       -0.76806454678667       -0.67631507947018
H           -3.82399847127972       -0.11925105268960       -0.43606990339090
H           -2.26440627071834        0.74236119138723        0.94961477630951
H           -1.54694805754624        1.43740404808184       -2.32069937955018
H           -3.29635850513558        0.41007612792593       -3.69762128341555
H           -5.65652481669663        1.06733134021639       -3.40533360955755
H           -6.25829098752481        2.77860173699245       -1.72671088397552
H           -4.49203854684270        3.80777562373000       -0.33097580727566
H           -0.94863177381755        6.93331737093213        1.13727181554323
H            1.22227197471548        6.89718744617321        2.34064619698776
H            2.53004448847997        4.83945021089722        2.51525747804648
H            1.75201001116209        2.73262796992075        1.49558330567688

          :  Hamiltonian                  GFN2-xTB          :
         :: gradient norm              0.000143081575 Eh/a0 ::
         :: HOMO-LUMO gap              0.506147513189 eV    ::
         :: SCC energy              -136.211958939619 Eh    ::
         :: -> dispersion             -0.129842898870 Eh    ::
         :: -> Gsolv                  -0.060957332585 Eh    ::
         :: repulsion energy           2.436824839061 Eh    ::

    * Orbital Energies and Occupations

         #    Occupation            Energy/Eh            Energy/eV
      -------------------------------------------------------------
         1        2.0000           -0.7078169             -19.2607
       ...           ...                  ...                  ...
       113        2.0000           -0.4238542             -11.5337
       114        2.0000           -0.4229306             -11.5085
       115        2.0000           -0.4210102             -11.4563
       116        2.0000           -0.4046931             -11.0123
       117        1.9999           -0.4008268             -10.9071
       118        1.9997           -0.4000887             -10.8870
       119        1.9967           -0.3976328             -10.8201
       120        1.9913           -0.3967224             -10.7954
       121        1.9862           -0.3962722             -10.7831
       122        1.8983           -0.3942885             -10.7291
       123        1.8844           -0.3941514             -10.7254
       124        1.2435           -0.3911413             -10.6435
       125        0.9999           -0.3008574              -8.1867 (HOMO)
       126        0.0001           -0.2822569              -7.6806 (LUMO)
       127        0.0000           -0.2783070              -7.5731
       128                         -0.2732388              -7.4352
       129                         -0.2576027              -7.0097
       130                         -0.2414475              -6.5701
       131                         -0.2391875              -6.5086
       132                         -0.2376542              -6.4669
       133                         -0.2366322              -6.4391
       134                         -0.2316198              -6.3027
       135                         -0.2314331              -6.2976
       136                         -0.2291816              -6.2363
       ...                                ...                  ...
       241                          1.1516410              31.3377
      -------------------------------------------------------------
                  HL-Gap            0.0186005 Eh            0.5061 eV

     #   Z          covCN         q      C6AA      α(0)
     1   7 N        0.911    -0.334    28.580     7.732
     2   6 C        1.908     0.116    28.247     8.583
     3   6 C        2.969    -0.038    28.945     8.825
     4   6 C        2.912     0.063    26.581     8.454
     5   7 N        2.825    -0.063    22.450     7.037
     6   6 C        3.174     0.155    24.301     8.051
     7   6 C        2.975     0.001    28.005     8.680
     8   6 C        2.922    -0.036    28.892     8.815
     9   6 C        2.918    -0.028    28.700     8.785
    10   6 C        2.920    -0.024    28.592     8.769
    11   6 C        2.918    -0.023    28.588     8.768
    12   6 C        2.927    -0.022    28.551     8.763
    13   7 N        1.888    -0.303    28.714     7.944
    14   6 C        3.184     0.074    25.916     8.308
    15   6 C        2.910    -0.043    29.071     8.841
    16   6 C        2.922    -0.037    28.924     8.819
    17   6 C        2.926    -0.032    28.810     8.802
    18   6 C        2.907    -0.052    29.301     8.876
    19   6 C        3.086     0.039    27.028     8.522
    20   6 C        2.919    -0.065    29.618     8.925
    21   6 C        2.907     0.046    26.975     8.516
    22   7 N        2.801    -0.041    22.039     6.972
    23   6 C        3.138     0.120    25.151     8.208
    24   6 C        2.969     0.004    27.925     8.668
    25   6 C        2.925    -0.026    28.662     8.780
    26   6 C        2.912    -0.023    28.587     8.767
    27   6 C        2.918    -0.022    28.562     8.764
    28   6 C        2.913    -0.025    28.620     8.772
    29   6 C        2.916    -0.035    28.880     8.812
    30   7 N        1.877    -0.287    28.301     7.886
    31   6 C        3.147     0.091    25.741     8.300
    32   6 C        2.907    -0.043    29.059     8.839
    33   6 C        2.916    -0.029    28.732     8.790
    34   6 C        2.924    -0.023    28.591     8.769
    35   6 C        2.904    -0.050    29.249     8.868
    36   6 C        3.059     0.044    26.952     8.514
    37   6 C        2.919    -0.066    29.655     8.930
    38   6 C        2.912     0.061    26.637     8.463
    39   7 N        2.825    -0.059    22.387     7.027
    40   6 C        3.177     0.145    24.487     8.080
    41   6 C        2.974    -0.002    28.063     8.690
    42   6 C        2.922    -0.031    28.768     8.796
    43   6 C        2.918    -0.027    28.666     8.780
    44   6 C        2.919    -0.024    28.598     8.770
    45   6 C        2.918    -0.024    28.609     8.771
    46   6 C        2.926    -0.026    28.649     8.778
    47   7 N        1.887    -0.299    28.603     7.929
    48   6 C        3.187     0.072    25.945     8.311
    49   6 C        2.910    -0.044    29.081     8.843
    50   6 C        2.922    -0.037    28.914     8.818
    51   6 C        2.927    -0.032    28.797     8.800
    52   6 C        2.907    -0.049    29.211     8.862
    53   6 C        3.085     0.043    26.931     8.507
    54   1 H        0.926     0.029     2.603     2.523
    55   1 H        0.926     0.046     2.374     2.409
    56   1 H        0.926     0.052     2.300     2.372
    57   1 H        0.926     0.052     2.299     2.371
    58   1 H        0.926     0.052     2.289     2.366
    59   1 H        0.926     0.051     2.310     2.377
    60   1 H        0.926     0.048     2.344     2.394
    61   1 H        0.926     0.048     2.341     2.393
    62   1 H        0.926     0.034     2.526     2.485
    63   1 H        0.926     0.047     2.357     2.401
    64   1 H        0.926     0.063     2.170     2.303
    65   1 H        0.926     0.052     2.301     2.372
    66   1 H        0.926     0.050     2.316     2.380
    67   1 H        0.926     0.044     2.390     2.418
    68   1 H        0.926     0.030     2.592     2.518
    69   1 H        0.926     0.059     2.213     2.326
    70   1 H        0.926     0.056     2.248     2.345
    71   1 H        0.926     0.057     2.237     2.339
    72   1 H        0.926     0.042     2.420     2.433
    73   1 H        0.926     0.046     2.369     2.407
    74   1 H        0.926     0.021     2.723     2.580
    75   1 H        0.926     0.044     2.402     2.424
    76   1 H        0.926     0.051     2.302     2.372
    77   1 H        0.926     0.052     2.290     2.366
    78   1 H        0.926     0.053     2.285     2.364
    79   1 H        0.926     0.052     2.299     2.371
    80   1 H        0.926     0.049     2.336     2.390
    81   1 H        0.926     0.047     2.352     2.398
    82   1 H        0.926     0.027     2.632     2.537

molecular dipole:
                 x           y           z       tot (Debye)
 q only:       -1.772      -1.821       1.336
   full:       -2.003      -1.961       1.368       7.928

 projected vibrational frequencies (cm⁻¹)
eigval :       -0.00     0.00     0.00     0.00     0.00     0.00
eigval :        8.09    15.84    17.49    18.95    26.28    28.28
eigval :       36.15    49.71    50.69    56.09    57.33    59.06
eigval :       64.56    70.55    80.84    83.75    92.78    96.60
eigval :      102.10   121.09   147.26   151.57   163.45   179.84
eigval :      182.83   195.48   212.25   226.72   235.02   249.92
eigval :      255.97   262.03   271.61   281.55   285.74   294.29
eigval :      300.14   302.80   323.95   341.98   350.65   356.96
eigval :      368.75   370.76   371.22   376.14   390.02   401.28
eigval :      402.82   410.00   432.70   460.24   465.65   473.73
eigval :      491.05   505.03   518.35   528.32   532.89   535.15
eigval :      536.08   538.24   548.90   572.06   579.33   580.46
eigval :      583.90   585.41   590.94   599.50   610.09   616.79
eigval :      637.07   637.92   643.33   646.82   653.98   658.61
eigval :      664.47   668.22   669.76   674.67   689.77   697.69
eigval :      706.81   708.45   736.37   743.79   757.03   761.54
eigval :      763.60   764.42   777.27   796.37   831.73   837.41
eigval :      841.67   851.47   854.35   858.52   861.85   862.83
eigval :      862.97   869.17   872.30   874.31   875.29   876.23
eigval :      877.80   889.35   895.81   898.61   902.96   905.24
eigval :      910.49   911.97   916.33   918.68   921.48   924.81
eigval :      926.58   930.72   931.04   934.84   950.43   977.33
eigval :      981.31  1001.24  1042.70  1051.44  1055.34  1055.97
eigval :     1060.26  1061.79  1078.12  1080.49  1091.38  1105.81
eigval :     1114.21  1117.29  1117.71  1118.25  1121.16  1143.80
eigval :     1153.26  1159.17  1165.04  1170.14  1170.81  1176.26
eigval :     1176.58  1178.42  1184.69  1191.89  1193.83  1194.15
eigval :     1199.50  1235.71  1239.98  1243.73  1257.66  1261.99
eigval :     1268.68  1271.14  1275.96  1277.14  1291.33  1292.48
eigval :     1304.30  1311.76  1317.46  1320.05  1323.23  1329.01
eigval :     1336.78  1340.26  1349.48  1353.76  1362.40  1374.43
eigval :     1386.91  1388.30  1393.41  1406.05  1414.44  1418.91
eigval :     1425.00  1428.98  1437.70  1445.38  1448.52  1458.40
eigval :     1475.11  1476.47  1480.89  1494.65  1500.35  1505.01
eigval :     1518.95  1544.13  1560.94  1568.35  1568.50  1575.15
eigval :     1575.91  1576.85  1584.85  1587.89  1590.83  1595.11
eigval :     2283.08  3075.13  3075.59  3077.05  3080.42  3083.35
eigval :     3084.17  3085.53  3086.03  3086.41  3086.53  3088.24
eigval :     3089.98  3091.13  3094.57  3096.71  3096.85  3097.27
eigval :     3100.15  3102.50  3102.60  3104.27  3105.22  3105.37
eigval :     3106.57  3108.29  3110.70  3112.41  3113.89  3115.12

   temp. (K)  partition function   enthalpy   heat capacity  entropy
                                   cal/mol     cal/K/mol   cal/K/mol   J/K/mol
 298.15  VIB  0.634E+20            24836.627    154.562    155.998
         ROT  0.729E+08              888.752      2.981     38.959
         INT  0.462E+28            25725.379    157.543    194.957
         TR   0.171E+29             1481.254      4.968     45.410
         TOT                       27206.6331   162.5109   240.3673  1005.6967

       T/K    H(0)-H(T)+PV         H(T)/Eh          T*S/Eh         G(T)/Eh
   ------------------------------------------------------------------------
    298.15    0.433565E-01    0.652139E+00    0.114206E+00    0.537932E+00
   ------------------------------------------------------------------------

         :::::::::::::::::::::::::::::::::::::::::::::::::::::
         ::                  THERMODYNAMIC                  ::
         :::::::::::::::::::::::::::::::::::::::::::::::::::::
         :: total free energy        -133.237201792070 Eh   ::
         ::.................................................::
         :: total energy             -133.775134100135 Eh   ::
         :: zero point energy           0.608782026045 Eh   ::
         :: G(RRHO) w/o ZPVE           -0.070849717980 Eh   ::
         :: G(RRHO) contrib.            0.537932308065 Eh   ::
         :::::::::::::::::::::::::::::::::::::::::::::::::::::

           -------------------------------------------------
          | TOTAL ENERGY             -133.775134100135 Eh   |
          | TOTAL ENTHALPY           -133.122995544444 Eh   |
          | TOTAL FREE ENERGY        -133.237201792070 Eh   |
          | GRADIENT NORM               0.000141157686 Eh/α |
          | HOMO-LUMO GAP               0.506144799319 eV   |
           -------------------------------------------------

 * finished run on 2025/09/09 at 05:52:19.620
