   * xtb version 6.7.1 (edcfbbe) compiled by 'albert@albert-system' on 2024-07-22

   ID    Z sym.   atoms
    1    7 N      1, 5, 13, 22, 30, 39, 47
    2    6 C      2-4, 6-12, 14-21, 23-29, 31-38, 40-46, 48-53
    3    1 H      54-82

          program call               : xtb data2507/toluene/iTPBI-CN/iTPBI-CN_toluene_S0_crest.xyz --gfn 2 --gbsa toluene --ohess vtight --parallel 40 --molden --ceasefiles --namespace data2507/toluene/iTPBI-CN/iTPBI-CN_toluene_S0_finalOpt
      * Solvation model:               GBSA
        Solvent                        toluene
        Solvent mass                       9.2140E+01 g/mol
          :  Hamiltonian                  GFN2-xTB          :
 * total energy  :  -133.8681796 Eh     change       -0.4711040E-08 Eh
 * total energy  :  -133.8682768 Eh     change       -0.9725866E-04 Eh
 * total energy  :  -133.8683378 Eh     change       -0.6093147E-04 Eh
 * total energy  :  -133.8683681 Eh     change       -0.3029912E-04 Eh
 * total energy  :  -133.8683930 Eh     change       -0.2490873E-04 Eh
 * total energy  :  -133.8684211 Eh     change       -0.2809122E-04 Eh
 * total energy  :  -133.8684363 Eh     change       -0.1519980E-04 Eh
 * total energy  :  -133.8684309 Eh     change        0.5376686E-05 Eh
 * total energy  :  -133.8684422 Eh     change       -0.1126044E-04 Eh
 * total energy  :  -133.8684499 Eh     change       -0.7764419E-05 Eh
 * total energy  :  -133.8684898 Eh     change       -0.6632206E-06 Eh
 * total energy  :  -133.8684902 Eh     change       -0.4510523E-06 Eh
 * total energy  :  -133.8684906 Eh     change       -0.3358966E-06 Eh
 * total energy  :  -133.8684909 Eh     change       -0.3853643E-06 Eh
 * total energy  :  -133.8684914 Eh     change       -0.4447828E-06 Eh
 * total energy  :  -133.8684918 Eh     change       -0.3719228E-06 Eh
 * total energy  :  -133.8684920 Eh     change       -0.2187016E-06 Eh
 * total energy  :  -133.8684921 Eh     change       -0.1144684E-06 Eh
 * total energy  :  -133.8684922 Eh     change       -0.9467786E-07 Eh
   *** GEOMETRY OPTIMIZATION CONVERGED AFTER 38 ITERATIONS ***

 final structure:
================
82
 xtb: 6.7.1 (edcfbbe)
N            2.34243426394362        2.55804613645214       -1.65475795678966
C            1.65556579545600        1.80660660605785       -1.12520957716904
C            0.76428383706782        0.87854756909008       -0.55035903727073
C            1.04119531194028       -0.49988104336067       -0.61414549554753
N            2.23913010811529       -0.94152094105112       -1.17723386352332
C            3.53048596320012       -0.52685173253075       -0.88331487721303
C            3.87084479273953        0.30436084612087        0.25994546793210
C            3.16503765030642        0.22643609311996        1.45958657428349
C            3.54501153578953        1.00327946766031        2.53954247196153
C            4.62818774874017        1.86082187041426        2.43598404818573
C            5.34091369669085        1.93304397400005        1.24922707545010
C            4.97087969717925        1.15651574383457        0.16843289953188
N            4.41409344341890       -1.03424938506822       -1.69193747219330
C            3.72536334142275       -1.81615270752782       -2.58114592612643
C            4.18100073848963       -2.57011103484812       -3.65702264506599
C            3.24319268434170       -3.26071821166541       -4.39653627079024
C            1.88254958735475       -3.20613012499189       -4.08979561452085
C            1.40840184579569       -2.46370936556759       -3.02495347793315
C            2.34733231929480       -1.78142873954925       -2.27042774780713
C            0.10445328938553       -1.41819202593369       -0.16967937444504
C           -1.10337905963005       -0.98197091064254        0.37646936685880
N           -2.02449285281539       -1.91130754019559        0.84951127565539
C           -1.75781127437790       -3.06431235127346        1.58041424909891
C           -0.44599431779711       -3.39298151400244        2.12524123758393
C           -0.01511314196337       -4.71810580998211        2.10109348253987
C            1.21587964770318       -5.05875547795512        2.63016991246280
C            2.02142686609552       -4.08609603308495        3.20029929664391
C            1.58645147251869       -2.77141698201274        3.25207366543159
C            0.36047697192028       -2.42133135941588        2.71677591343960
N           -2.81944710894835       -3.78308099264528        1.78921988463643
C           -3.86129681128880       -3.12212171236989        1.19089649590979
C           -5.20599208495954       -3.46377810914720        1.10915951459263
C           -6.04179648101264       -2.60769329788751        0.42173692973079
C           -5.55941837807051       -1.44679633075182       -0.18352353484704
C           -4.22626438429986       -1.08875006083835       -0.11257070960652
C           -3.38615381324728       -1.93090266460830        0.59615530439719
C           -1.37787573922368        0.38094551076458        0.45804618099384
C           -0.45746230453073        1.30987411844185       -0.00800162818370
N           -0.74757031774491        2.67243512150143        0.07115431842156
C           -1.89925205645016        3.31287937481200       -0.36494891525337
C           -2.91767723019612        2.67151003185123       -1.18396012212803
C           -2.58270261265589        1.75364761926262       -2.17900574548807
C           -3.57094093046315        1.19653494455102       -2.97060301352464
C           -4.89819883623596        1.54625230276648       -2.77936451866382
C           -5.23575936901562        2.46858296449357       -1.80110448044011
C           -4.25320765153673        3.03337797307938       -1.01001954092073
N           -1.93260569984038        4.56819482897353       -0.02718725513983
C           -0.77509202144963        4.81580118022542        0.66294344268290
C           -0.31527800678879        5.98698968095651        1.25427662591452
C            0.89962712893222        5.93883647472461        1.90569831112925
C            1.64369585278964        4.76038982392877        1.98197493389739
C            1.20489559569954        3.58541558864519        1.40273636718183
C           -0.00409808457291        3.63319350525225        0.73134377109838
H            2.33688636682025       -0.46139828388728        1.55823355516197
H            2.99327982129101        0.93782871819168        3.46612619767786
H            4.91874486316051        2.46609802366660        3.28130654097618
H            6.18954722710785        2.59491086920291        1.16709103018880
H            5.51576039098755        1.19682577821230       -0.76135508184560
H            5.23187569129757       -2.59890762408629       -3.89600454304306
H            3.56408636499996       -3.85523633479421       -5.23858326788366
H            1.18276944358645       -3.75644097785322       -4.70031470130172
H            0.35350532371668       -2.41765761379321       -2.79811627230052
H            0.32288940879802       -2.47248528075149       -0.23621702545197
H           -0.65702911399555       -5.46571114313197        1.66128338019348
H            1.54607976687725       -6.08610983868342        2.60014925476424
H            2.98270971016724       -4.35128637255411        3.61367495351883
H            2.20432528955736       -2.01790251180228        3.71702948048405
H            0.01476793488064       -1.39867335831492        2.78094413302223
H           -5.56644644490803       -4.37078349698683        1.56712834682269
H           -7.09249858006089       -2.84209703276537        0.34109436144644
H           -6.24285648311708       -0.80895848648071       -0.72225422065563
H           -3.86608076426353       -0.19601412960624       -0.59888741908473
H           -2.29897562187864        0.72477347966410        0.90188412670752
H           -1.54724225059589        1.49755294651303       -2.35535238323733
H           -3.30103392213976        0.49008075794097       -3.74153062153113
H           -5.66491242671957        1.10566395572235       -3.39838291713172
H           -6.26748655257593        2.75090302929748       -1.65595480467631
H           -4.49770338895947        3.75936757321063       -0.25037265931934
H           -0.89975704262422        6.89127930336235        1.19966231849761
H            1.28691541785319        6.83152767686519        2.37322615163769
H            2.58710530246959        4.76512031309363        2.50534696754612
H            1.78880737465387        2.67949936948484        1.46660899706511

          :  Hamiltonian                  GFN2-xTB          :
         :: gradient norm              0.000029989481 Eh/a0 ::
         :: HOMO-LUMO gap              2.351167667736 eV    ::
         :: SCC energy              -136.329347175307 Eh    ::
         :: -> dispersion             -0.130418022611 Eh    ::
         :: -> Gsolv                  -0.057346055111 Eh    ::
         :: repulsion energy           2.460854987700 Eh    ::

    * Orbital Energies and Occupations

         #    Occupation            Energy/Eh            Energy/eV
      -------------------------------------------------------------
         1        2.0000           -0.7198015             -19.5868
       ...           ...                  ...                  ...
       112        2.0000           -0.4275822             -11.6351
       113        2.0000           -0.4242405             -11.5442
       114        2.0000           -0.4236936             -11.5293
       115        2.0000           -0.4222203             -11.4892
       116        2.0000           -0.4031555             -10.9704
       117        2.0000           -0.4025153             -10.9530
       118        2.0000           -0.4005348             -10.8991
       119        2.0000           -0.3985434             -10.8449
       120        2.0000           -0.3979100             -10.8277
       121        2.0000           -0.3974039             -10.8139
       122        2.0000           -0.3967944             -10.7973
       123        2.0000           -0.3958516             -10.7717
       124        2.0000           -0.3956063             -10.7650 (HOMO)
       125                         -0.3092024              -8.4138 (LUMO)
       126                         -0.2868485              -7.8055
       127                         -0.2757043              -7.5023
       128                         -0.2724073              -7.4126
       129                         -0.2693620              -7.3297
       130                         -0.2423917              -6.5958
       131                         -0.2416488              -6.5756
       132                         -0.2407025              -6.5498
       133                         -0.2367596              -6.4426
       134                         -0.2338210              -6.3626
       135                         -0.2324382              -6.3250
       ...                                ...                  ...
       241                          1.1389516              30.9925
      -------------------------------------------------------------
                  HL-Gap            0.0864039 Eh            2.3512 eV

     #   Z          covCN         q      C6AA      α(0)
     1   7 N        0.911    -0.264    26.842     7.493
     2   6 C        1.909     0.129    27.933     8.536
     3   6 C        2.974    -0.016    28.406     8.742
     4   6 C        2.915     0.079    26.236     8.399
     5   7 N        2.826    -0.066    22.520     7.048
     6   6 C        3.165     0.148    24.470     8.084
     7   6 C        2.975    -0.005    28.131     8.700
     8   6 C        2.922    -0.038    28.948     8.823
     9   6 C        2.918    -0.028    28.707     8.786
    10   6 C        2.920    -0.025    28.629     8.774
    11   6 C        2.918    -0.024    28.593     8.769
    12   6 C        2.926    -0.024    28.596     8.770
    13   7 N        1.886    -0.302    28.680     7.939
    14   6 C        3.186     0.070    25.988     8.318
    15   6 C        2.911    -0.044    29.080     8.843
    16   6 C        2.923    -0.038    28.934     8.821
    17   6 C        2.927    -0.035    28.882     8.813
    18   6 C        2.908    -0.054    29.344     8.882
    19   6 C        3.077     0.034    27.162     8.545
    20   6 C        2.923    -0.061    29.516     8.909
    21   6 C        2.908     0.080    26.225     8.397
    22   7 N        2.823    -0.052    22.243     7.005
    23   6 C        3.165     0.139    24.652     8.114
    24   6 C        2.975    -0.003    28.096     8.695
    25   6 C        2.926    -0.026    28.662     8.780
    26   6 C        2.918    -0.025    28.617     8.772
    27   6 C        2.920    -0.025    28.634     8.775
    28   6 C        2.919    -0.028    28.699     8.785
    29   6 C        2.922    -0.034    28.838     8.806
    30   7 N        1.884    -0.293    28.448     7.907
    31   6 C        3.187     0.069    26.020     8.323
    32   6 C        2.910    -0.043    29.056     8.839
    33   6 C        2.923    -0.036    28.902     8.816
    34   6 C        2.927    -0.035    28.861     8.810
    35   6 C        2.908    -0.053    29.311     8.877
    36   6 C        3.072     0.032    27.215     8.554
    37   6 C        2.923    -0.061    29.519     8.910
    38   6 C        2.915     0.079    26.231     8.399
    39   7 N        2.825    -0.064    22.484     7.042
    40   6 C        3.167     0.142    24.592     8.103
    41   6 C        2.974    -0.004    28.120     8.698
    42   6 C        2.922    -0.033    28.816     8.803
    43   6 C        2.918    -0.027    28.671     8.781
    44   6 C        2.919    -0.024    28.601     8.770
    45   6 C        2.918    -0.024    28.594     8.769
    46   6 C        2.926    -0.026    28.647     8.777
    47   7 N        1.885    -0.298    28.567     7.923
    48   6 C        3.188     0.069    26.006     8.320
    49   6 C        2.911    -0.044    29.089     8.844
    50   6 C        2.923    -0.037    28.922     8.819
    51   6 C        2.927    -0.034    28.858     8.810
    52   6 C        2.908    -0.052    29.288     8.874
    53   6 C        3.076     0.037    27.084     8.532
    54   1 H        0.926     0.024     2.673     2.557
    55   1 H        0.926     0.044     2.397     2.421
    56   1 H        0.926     0.051     2.313     2.378
    57   1 H        0.926     0.052     2.300     2.372
    58   1 H        0.926     0.052     2.300     2.372
    59   1 H        0.926     0.050     2.324     2.384
    60   1 H        0.926     0.046     2.366     2.406
    61   1 H        0.926     0.046     2.373     2.409
    62   1 H        0.926     0.031     2.572     2.508
    63   1 H        0.926     0.063     2.159     2.298
    64   1 H        0.926     0.051     2.312     2.378
    65   1 H        0.926     0.050     2.322     2.383
    66   1 H        0.926     0.048     2.343     2.393
    67   1 H        0.926     0.045     2.388     2.417
    68   1 H        0.925     0.024     2.671     2.556
    69   1 H        0.926     0.050     2.320     2.382
    70   1 H        0.926     0.046     2.369     2.407
    71   1 H        0.926     0.046     2.371     2.408
    72   1 H        0.926     0.033     2.549     2.496
    73   1 H        0.926     0.064     2.148     2.292
    74   1 H        0.926     0.016     2.793     2.613
    75   1 H        0.926     0.043     2.408     2.427
    76   1 H        0.926     0.051     2.312     2.378
    77   1 H        0.926     0.052     2.295     2.369
    78   1 H        0.926     0.052     2.289     2.366
    79   1 H        0.926     0.051     2.308     2.376
    80   1 H        0.926     0.048     2.350     2.397
    81   1 H        0.926     0.046     2.372     2.409
    82   1 H        0.926     0.022     2.701     2.570

molecular dipole:
                 x           y           z       tot (Debye)
 q only:       -0.898      -0.993       0.810
   full:       -1.131      -1.212       0.825       4.706

 projected vibrational frequencies (cm⁻¹)
eigval :       -0.00    -0.00    -0.00     0.00     0.00     0.00
eigval :       13.86    19.28    19.64    27.38    30.41    31.97
eigval :       39.96    47.47    53.27    56.36    58.99    60.23
eigval :       66.60    68.24    77.07    83.74    89.04    92.86
eigval :      104.70   124.63   150.06   152.77   169.96   185.51
eigval :      187.83   194.52   213.82   226.14   233.20   251.78
eigval :      258.85   267.12   284.74   287.63   289.56   297.45
eigval :      301.42   308.06   322.29   348.46   355.88   360.63
eigval :      370.28   371.06   373.53   374.33   404.96   408.15
eigval :      412.42   419.79   473.56   477.29   483.86   495.36
eigval :      515.96   533.89   537.89   540.97   542.49   543.58
eigval :      544.58   553.52   560.66   583.72   585.76   586.20
eigval :      590.81   605.93   611.10   625.08   626.90   648.87
eigval :      652.22   654.69   664.50   667.99   670.33   671.67
eigval :      673.89   675.52   679.53   686.46   704.93   706.97
eigval :      709.38   711.98   759.87   762.37   762.70   772.02
eigval :      772.53   776.16   787.18   817.79   848.27   862.88
eigval :      863.77   864.85   866.73   869.13   874.32   874.71
eigval :      875.48   878.00   881.37   887.24   889.37   890.31
eigval :      899.01   899.32   904.21   905.82   906.16   908.61
eigval :      919.79   921.32   923.59   925.32   926.72   929.64
eigval :      932.26   932.60   934.78   954.44   978.26   978.64
eigval :      993.51  1048.77  1057.85  1061.32  1065.29  1075.02
eigval :     1080.53  1080.77  1083.85  1108.57  1117.70  1118.29
eigval :     1119.88  1126.45  1129.19  1129.80  1136.12  1166.99
eigval :     1168.70  1169.97  1175.27  1176.01  1177.12  1178.30
eigval :     1188.74  1191.07  1194.19  1197.32  1200.43  1203.20
eigval :     1223.29  1247.08  1250.81  1266.37  1276.36  1276.63
eigval :     1278.95  1285.90  1287.07  1288.72  1295.28  1301.50
eigval :     1304.05  1311.65  1316.92  1317.05  1320.71  1331.14
eigval :     1337.21  1357.17  1358.10  1359.53  1405.23  1408.05
eigval :     1408.37  1424.50  1425.94  1426.25  1437.52  1441.33
eigval :     1453.95  1461.73  1462.59  1463.47  1480.77  1481.19
eigval :     1482.68  1523.17  1541.05  1544.12  1546.55  1558.87
eigval :     1577.45  1578.42  1578.87  1587.43  1587.84  1588.09
eigval :     1594.41  1594.49  1594.90  1613.99  1614.37  1615.85
eigval :     2358.53  3065.61  3068.43  3072.36  3074.74  3081.04
eigval :     3082.99  3083.07  3083.38  3086.17  3086.74  3087.47
eigval :     3087.56  3088.12  3088.17  3096.28  3096.65  3097.40
eigval :     3097.59  3097.98  3101.75  3103.96  3105.39  3106.11
eigval :     3108.32  3108.86  3109.61  3111.05  3111.31  3112.35

   temp. (K)  partition function   enthalpy   heat capacity  entropy
                                   cal/mol     cal/K/mol   cal/K/mol   J/K/mol
 298.15  VIB  0.916E+19            24384.595    152.061    152.655
         ROT  0.711E+08              888.752      2.981     38.911
         INT  0.652E+27            25273.348    155.042    191.565
         TR   0.171E+29             1481.254      4.968     45.410
         TOT                       26754.6016   160.0098   236.9758   991.5068

       T/K    H(0)-H(T)+PV         H(T)/Eh          T*S/Eh         G(T)/Eh
   ------------------------------------------------------------------------
    298.15    0.426362E-01    0.657599E+00    0.112595E+00    0.545004E+00
   ------------------------------------------------------------------------

         :::::::::::::::::::::::::::::::::::::::::::::::::::::
         ::                  THERMODYNAMIC                  ::
         :::::::::::::::::::::::::::::::::::::::::::::::::::::
         :: total free energy        -133.323487732343 Eh   ::
         ::.................................................::
         :: total energy             -133.868492187744 Eh   ::
         :: zero point energy           0.614963134373 Eh   ::
         :: G(RRHO) w/o ZPVE           -0.069958678972 Eh   ::
         :: G(RRHO) contrib.            0.545004455400 Eh   ::
         :::::::::::::::::::::::::::::::::::::::::::::::::::::

           -------------------------------------------------
          | TOTAL ENERGY             -133.868492187744 Eh   |
          | TOTAL ENTHALPY           -133.210892881783 Eh   |
          | TOTAL FREE ENERGY        -133.323487732343 Eh   |
          | GRADIENT NORM               0.000030038220 Eh/α |
          | HOMO-LUMO GAP               2.351169456997 eV   |
           -------------------------------------------------

 * finished run on 2025/09/09 at 05:52:08.487
