   * xtb version 6.7.1 (edcfbbe) compiled by 'albert@albert-system' on 2024-07-22

   ID    Z sym.   atoms
    1    7 N      1, 5, 13, 22, 30, 39, 47
    2    6 C      2-4, 6-12, 14-21, 23-29, 31-38, 40-46, 48-53
    3    1 H      54-82

          program call               : xtb data2507/toluene/iTPBI-CN/iTPBI-CN_toluene_T1_crest.xyz --gfn 2 --uhf 2 --gbsa toluene --ohess vtight --parallel 40 --molden --ceasefiles --namespace data2507/toluene/iTPBI-CN/iTPBI-CN_toluene_T1_finalOpt
      * Solvation model:               GBSA
        Solvent                        toluene
        Solvent mass                       9.2140E+01 g/mol
          :  Hamiltonian                  GFN2-xTB          :
 * total energy  :  -133.7747117 Eh     change       -0.5612634E-08 Eh
 * total energy  :  -133.7748274 Eh     change       -0.1156966E-03 Eh
 * total energy  :  -133.7749026 Eh     change       -0.7516346E-04 Eh
 * total energy  :  -133.7749320 Eh     change       -0.2942608E-04 Eh
 * total energy  :  -133.7749694 Eh     change       -0.3734672E-04 Eh
 * total energy  :  -133.7749943 Eh     change       -0.2489551E-04 Eh
 * total energy  :  -133.7750183 Eh     change       -0.2402300E-04 Eh
 * total energy  :  -133.7750290 Eh     change       -0.1073795E-04 Eh
 * total energy  :  -133.7750472 Eh     change       -0.1820460E-04 Eh
 * total energy  :  -133.7750554 Eh     change       -0.8116357E-05 Eh
 * total energy  :  -133.7751437 Eh     change       -0.4343893E-06 Eh
 * total energy  :  -133.7751441 Eh     change       -0.3862508E-06 Eh
 * total energy  :  -133.7751443 Eh     change       -0.2101598E-06 Eh
 * total energy  :  -133.7751445 Eh     change       -0.1699752E-06 Eh
 * total energy  :  -133.7751447 Eh     change       -0.2339315E-06 Eh
 * total energy  :  -133.7751449 Eh     change       -0.2538501E-06 Eh
 * total energy  :  -133.7751452 Eh     change       -0.2209773E-06 Eh
 * total energy  :  -133.7751453 Eh     change       -0.1548364E-06 Eh
 * total energy  :  -133.7751454 Eh     change       -0.8316061E-07 Eh
   *** GEOMETRY OPTIMIZATION CONVERGED AFTER 43 ITERATIONS ***

 final structure:
================
82
 xtb: 6.7.1 (edcfbbe)
N            2.55366661887247        2.44437528606714       -1.59331888152906
C            1.79410108705420        1.73297014826952       -1.09167956004236
C            0.85163408183400        0.87261146444199       -0.53557232906529
C            1.01715288009566       -0.53552109584500       -0.61022500084715
N            2.17729734726060       -1.05122307618458       -1.21197164624878
C            3.49381681853800       -0.76255435440248       -0.91897707416110
C            3.93385982548378       -0.01296636180494        0.24235252686380
C            3.21536482965946       -0.00575901270851        1.43808446645758
C            3.69013411395444        0.69795645745708        2.52967158313820
C            4.88192620556540        1.40009740372530        2.44319662714505
C            5.60822616927244        1.38575228287110        1.26196685231606
C            5.14369917333100        0.68017383278664        0.16990572472770
N            4.32764813176397       -1.30123747684311       -1.77397010341356
C            3.56826976499801       -1.97761345822294       -2.68062998963877
C            3.94165594490200       -2.71937075065483       -3.80005857756613
C            2.93769814915784       -3.28212183233191       -4.55705241671880
C            1.58847308449214       -3.11656695916971       -4.22809518527645
C            1.19466015294903       -2.38854731462579       -3.12121513465653
C            2.19851304437011       -1.83352591502388       -2.34644722493780
C            0.03754189267053       -1.38846032820793       -0.16557855379576
C           -1.15107475975668       -0.88127157662310        0.40016437140115
N           -2.13109609026128       -1.74975188187554        0.85023993233074
C           -1.94135451990800       -2.99709826223435        1.45675150996363
C           -0.77515655489896       -3.47298857522410        2.09356994693967
C           -0.70268963645852       -4.85885392933721        2.39815412728119
C            0.40471401653183       -5.38423806742312        3.01270125121267
C            1.47430719742152       -4.56102100153083        3.36677536010317
C            1.39956274359794       -3.19052450414561        3.12383929801465
C            0.30144116080229       -2.64576793634215        2.50448433259748
N           -3.10086064619387       -3.70629113100542        1.48912074894564
C           -4.05029776683457       -2.90424442814677        1.02686494937406
C           -5.43437880260924       -3.13992864281999        0.87865298066722
C           -6.18883484140909       -2.16514751677148        0.28028459756850
C           -5.61527079346366       -0.96764369884717       -0.17733102400866
C           -4.25882822750339       -0.69812156659780       -0.03002450698601
C           -3.48603013051252       -1.65097790544510        0.59656247141941
C           -1.32007882493127        0.50883508404833        0.49880233641450
C           -0.34799081135748        1.36775583850930        0.04009924400705
N           -0.54013794406040        2.75426136844404        0.14278927041114
C           -1.62275534834067        3.48084650020530       -0.30632151767687
C           -2.68231698519990        2.93852340216566       -1.14124138061580
C           -2.42806677215787        1.97831519799226       -2.12145708107144
C           -3.45621270813895        1.51425171431248       -2.92116561322979
C           -4.74413337236893        1.99994384269859       -2.75599411809931
C           -5.00053137000954        2.96577130362398       -1.79481906126788
C           -3.97762569521862        3.43772755493664       -0.99469861130314
N           -1.57187018495822        4.73734972434442        0.05734489349032
C           -0.41296441229136        4.88678850361560        0.76101878467146
C            0.12916739760561        6.01204901097451        1.37790145981664
C            1.32238439648425        5.85847514771571        2.04924304276195
C            1.97091564512144        4.62192704073051        2.12009217603942
C            1.45149247686556        3.49203175306321        1.51760511898095
C            0.26209124902576        3.64216925832039        0.82615777138676
H            2.30054474434686       -0.57370409329255        1.52196227005987
H            3.12784925451164        0.69738347857720        3.45238213084169
H            5.24561037345578        1.95162003659644        3.29705489268300
H            6.53970463471638        1.92683698183370        1.19336452557014
H            5.69408860879929        0.65705923160612       -0.75726872097589
H            4.98334411732030       -2.83547048044571       -4.05261884620706
H            3.19228335148803       -3.86228469472793       -5.43113857453266
H            0.83572949485212       -3.56912251527656       -4.85569311707512
H            0.15150841355718       -2.25557376833962       -2.87559789619742
H            0.17736160962703       -2.45457559937677       -0.25557354038655
H           -1.53624976422953       -5.47880419734798        2.10972597801544
H            0.45324076271061       -6.44266340352361        3.22008081532242
H            2.34754814423285       -4.97765374786604        3.84383737740409
H            2.21037830005293       -2.54952880800294        3.43741340579098
H            0.22782846442886       -1.57636970946275        2.38085891402001
H           -5.85818477933219       -4.06397271285709        1.23592478604670
H           -7.25019194783411       -2.31352046368475        0.15097801181775
H           -6.24156814038904       -0.23343539891845       -0.65864246677898
H           -3.84247477555015        0.21874929845015       -0.41499992593346
H           -2.20322264821558        0.91322175982741        0.96800349480565
H           -1.42202433329633        1.61608799024861       -2.27711606671488
H           -3.24844203028036        0.77383162254193       -3.67928725829609
H           -5.54237866475978        1.63160344715033       -3.38243556168178
H           -6.00003257303659        3.35432138978210       -1.67046781372717
H           -4.15767169019453        4.19405700485497       -0.24667845716511
H           -0.37896707417138        6.96136310881275        1.32242537563986
H            1.77225445299384        6.71075230896112        2.53573983879197
H            2.90321690476098        4.54796531895646        2.65822096085089
H            1.96116172929274        2.54210443030850        1.57398187473788

          :  Hamiltonian                  GFN2-xTB          :
         :: gradient norm              0.000056217472 Eh/a0 ::
         :: HOMO-LUMO gap              0.505626261893 eV    ::
         :: SCC energy              -136.211913450761 Eh    ::
         :: -> dispersion             -0.129708155342 Eh    ::
         :: -> Gsolv                  -0.061011798492 Eh    ::
         :: repulsion energy           2.436768042329 Eh    ::

    * Orbital Energies and Occupations

         #    Occupation            Energy/Eh            Energy/eV
      -------------------------------------------------------------
         1        2.0000           -0.7077594             -19.2591
       ...           ...                  ...                  ...
       113        2.0000           -0.4238316             -11.5330
       114        2.0000           -0.4229031             -11.5078
       115        2.0000           -0.4210638             -11.4577
       116        2.0000           -0.4046450             -11.0109
       117        1.9999           -0.4008016             -10.9064
       118        1.9998           -0.4001370             -10.8883
       119        1.9968           -0.3976501             -10.8206
       120        1.9914           -0.3966948             -10.7946
       121        1.9869           -0.3962908             -10.7836
       122        1.8983           -0.3942575             -10.7283
       123        1.8814           -0.3940938             -10.7238
       124        1.2457           -0.3911225             -10.6430
       125        0.9999           -0.3008523              -8.1866 (HOMO)
       126        0.0001           -0.2822710              -7.6810 (LUMO)
       127        0.0000           -0.2783893              -7.5754
       128                         -0.2733060              -7.4370
       129                         -0.2576625              -7.0114
       130                         -0.2413848              -6.5684
       131                         -0.2391984              -6.5089
       132                         -0.2376639              -6.4672
       133                         -0.2365675              -6.4373
       134                         -0.2315655              -6.3012
       135                         -0.2313885              -6.2964
       136                         -0.2291647              -6.2359
       ...                                ...                  ...
       241                          1.1515907              31.3364
      -------------------------------------------------------------
                  HL-Gap            0.0185813 Eh            0.5056 eV

     #   Z          covCN         q      C6AA      α(0)
     1   7 N        0.911    -0.333    28.575     7.731
     2   6 C        1.908     0.116    28.251     8.584
     3   6 C        2.969    -0.038    28.944     8.825
     4   6 C        2.912     0.063    26.582     8.454
     5   7 N        2.825    -0.062    22.444     7.036
     6   6 C        3.174     0.154    24.311     8.053
     7   6 C        2.975     0.001    28.005     8.681
     8   6 C        2.922    -0.036    28.891     8.814
     9   6 C        2.918    -0.028    28.700     8.785
    10   6 C        2.920    -0.023    28.590     8.768
    11   6 C        2.918    -0.023    28.588     8.768
    12   6 C        2.927    -0.022    28.555     8.763
    13   7 N        1.888    -0.303    28.707     7.943
    14   6 C        3.184     0.074    25.918     8.308
    15   6 C        2.910    -0.043    29.070     8.841
    16   6 C        2.922    -0.037    28.923     8.819
    17   6 C        2.926    -0.032    28.808     8.802
    18   6 C        2.907    -0.052    29.299     8.876
    19   6 C        3.087     0.039    27.026     8.522
    20   6 C        2.919    -0.065    29.615     8.924
    21   6 C        2.907     0.046    26.975     8.516
    22   7 N        2.801    -0.041    22.041     6.973
    23   6 C        3.139     0.120    25.145     8.207
    24   6 C        2.969     0.004    27.926     8.668
    25   6 C        2.925    -0.026    28.662     8.780
    26   6 C        2.912    -0.023    28.587     8.767
    27   6 C        2.918    -0.022    28.562     8.764
    28   6 C        2.913    -0.025    28.621     8.773
    29   6 C        2.916    -0.035    28.879     8.812
    30   7 N        1.877    -0.288    28.307     7.887
    31   6 C        3.147     0.090    25.739     8.300
    32   6 C        2.907    -0.043    29.060     8.839
    33   6 C        2.916    -0.029    28.732     8.790
    34   6 C        2.924    -0.024    28.593     8.769
    35   6 C        2.904    -0.050    29.246     8.867
    36   6 C        3.059     0.044    26.953     8.514
    37   6 C        2.919    -0.066    29.654     8.930
    38   6 C        2.912     0.061    26.637     8.463
    39   7 N        2.825    -0.059    22.386     7.027
    40   6 C        3.176     0.145    24.489     8.081
    41   6 C        2.974    -0.002    28.064     8.690
    42   6 C        2.922    -0.031    28.769     8.796
    43   6 C        2.918    -0.027    28.666     8.780
    44   6 C        2.919    -0.024    28.598     8.770
    45   6 C        2.918    -0.024    28.609     8.771
    46   6 C        2.926    -0.026    28.649     8.778
    47   7 N        1.887    -0.299    28.605     7.929
    48   6 C        3.187     0.072    25.945     8.311
    49   6 C        2.910    -0.044    29.081     8.843
    50   6 C        2.922    -0.037    28.914     8.818
    51   6 C        2.927    -0.032    28.797     8.800
    52   6 C        2.907    -0.049    29.209     8.862
    53   6 C        3.085     0.043    26.931     8.507
    54   1 H        0.926     0.029     2.602     2.523
    55   1 H        0.926     0.046     2.374     2.410
    56   1 H        0.926     0.052     2.299     2.371
    57   1 H        0.926     0.052     2.298     2.371
    58   1 H        0.926     0.053     2.285     2.364
    59   1 H        0.926     0.051     2.309     2.376
    60   1 H        0.926     0.048     2.343     2.394
    61   1 H        0.926     0.048     2.341     2.393
    62   1 H        0.926     0.034     2.527     2.486
    63   1 H        0.926     0.047     2.360     2.402
    64   1 H        0.926     0.062     2.170     2.304
    65   1 H        0.926     0.052     2.300     2.372
    66   1 H        0.926     0.050     2.315     2.380
    67   1 H        0.926     0.045     2.389     2.417
    68   1 H        0.926     0.029     2.593     2.518
    69   1 H        0.926     0.059     2.214     2.327
    70   1 H        0.926     0.056     2.250     2.345
    71   1 H        0.926     0.057     2.238     2.339
    72   1 H        0.926     0.042     2.422     2.434
    73   1 H        0.926     0.046     2.369     2.407
    74   1 H        0.926     0.021     2.721     2.580
    75   1 H        0.926     0.043     2.403     2.424
    76   1 H        0.926     0.051     2.302     2.373
    77   1 H        0.926     0.052     2.291     2.367
    78   1 H        0.926     0.053     2.284     2.363
    79   1 H        0.926     0.052     2.299     2.371
    80   1 H        0.926     0.049     2.336     2.390
    81   1 H        0.926     0.047     2.352     2.398
    82   1 H        0.926     0.027     2.632     2.537

molecular dipole:
                 x           y           z       tot (Debye)
 q only:       -1.905      -1.697       1.285
   full:       -2.154      -1.813       1.312       7.895

 projected vibrational frequencies (cm⁻¹)
eigval :       -0.00    -0.00    -0.00     0.00     0.00     0.00
eigval :       12.23    14.45    19.01    23.16    24.24    30.62
eigval :       35.79    44.49    49.37    53.96    55.51    57.84
eigval :       62.65    70.41    78.53    82.60    92.13    95.10
eigval :      101.27   117.14   145.74   151.86   163.48   179.08
eigval :      183.37   195.53   212.31   226.04   235.01   249.67
eigval :      255.57   261.97   271.40   281.49   285.60   293.64
eigval :      299.98   302.65   324.20   341.00   349.86   356.49
eigval :      369.22   371.65   373.41   376.64   387.80   397.95
eigval :      403.61   409.41   432.33   460.60   466.49   474.32
eigval :      491.05   504.22   518.31   527.15   532.92   534.29
eigval :      536.48   536.82   548.51   572.00   579.32   581.19
eigval :      583.92   585.28   591.06   599.41   610.18   616.84
eigval :      637.16   638.43   643.39   646.99   653.97   658.41
eigval :      664.69   668.31   670.33   674.59   688.90   697.03
eigval :      705.45   709.03   736.80   742.32   759.28   761.15
eigval :      762.59   764.20   777.18   796.46   832.19   837.02
eigval :      840.94   851.60   853.82   856.37   861.45   862.54
eigval :      862.72   869.44   871.56   873.01   875.38   876.84
eigval :      878.33   889.76   895.26   896.58   903.61   904.46
eigval :      909.82   914.53   915.35   919.16   921.59   925.85
eigval :      927.14   929.50   930.99   932.34   950.19   977.32
eigval :      981.30  1000.87  1041.77  1050.91  1054.58  1056.55
eigval :     1060.14  1062.12  1078.46  1080.51  1091.42  1105.30
eigval :     1114.04  1116.52  1117.83  1118.01  1120.19  1140.85
eigval :     1153.07  1158.51  1165.13  1169.66  1170.21  1177.02
eigval :     1177.65  1179.72  1184.70  1192.71  1193.73  1194.84
eigval :     1199.63  1235.88  1240.15  1243.80  1257.75  1261.53
eigval :     1268.22  1271.02  1275.60  1276.78  1291.52  1292.41
eigval :     1304.27  1311.64  1317.71  1320.30  1323.47  1328.99
eigval :     1336.85  1340.22  1349.30  1353.81  1362.25  1374.59
eigval :     1386.46  1388.03  1393.52  1406.39  1414.70  1418.89
eigval :     1425.21  1429.14  1437.27  1445.21  1448.36  1458.23
eigval :     1475.05  1476.12  1481.13  1494.83  1499.98  1504.50
eigval :     1519.22  1544.38  1560.72  1568.22  1568.46  1575.15
eigval :     1575.78  1576.72  1584.78  1587.61  1590.74  1594.97
eigval :     2282.78  3075.45  3075.57  3077.13  3079.84  3083.59
eigval :     3084.27  3085.84  3086.12  3086.41  3087.00  3088.18
eigval :     3090.69  3090.96  3094.13  3095.80  3097.21  3097.35
eigval :     3100.82  3102.36  3102.54  3104.19  3105.36  3106.29
eigval :     3106.70  3107.63  3109.85  3112.02  3112.53  3114.81

   temp. (K)  partition function   enthalpy   heat capacity  entropy
                                   cal/mol     cal/K/mol   cal/K/mol   J/K/mol
 298.15  VIB  0.496E+20            24863.779    154.370    155.803
         ROT  0.729E+08              888.752      2.981     38.959
         INT  0.362E+28            25752.531    157.351    194.762
         TR   0.171E+29             1481.254      4.968     45.410
         TOT                       27233.7850   162.3187   240.1722  1004.8806

       T/K    H(0)-H(T)+PV         H(T)/Eh          T*S/Eh         G(T)/Eh
   ------------------------------------------------------------------------
    298.15    0.433998E-01    0.652084E+00    0.114114E+00    0.537970E+00
   ------------------------------------------------------------------------

         :::::::::::::::::::::::::::::::::::::::::::::::::::::
         ::                  THERMODYNAMIC                  ::
         :::::::::::::::::::::::::::::::::::::::::::::::::::::
         :: total free energy        -133.237175244996 Eh   ::
         ::.................................................::
         :: total energy             -133.775145410708 Eh   ::
         :: zero point energy           0.608683939086 Eh   ::
         :: G(RRHO) w/o ZPVE           -0.070713773374 Eh   ::
         :: G(RRHO) contrib.            0.537970165712 Eh   ::
         :::::::::::::::::::::::::::::::::::::::::::::::::::::

           -------------------------------------------------
          | TOTAL ENERGY             -133.775145410708 Eh   |
          | TOTAL ENTHALPY           -133.123061672759 Eh   |
          | TOTAL FREE ENERGY        -133.237175244996 Eh   |
          | GRADIENT NORM               0.000056710160 Eh/α |
          | HOMO-LUMO GAP               0.505623729001 eV   |
           -------------------------------------------------

 * finished run on 2025/09/09 at 05:59:40.172
