   * xtb version 6.7.1 (edcfbbe) compiled by 'albert@albert-system' on 2024-07-22

   ID    Z sym.   atoms
    1    6 C      1, 2, 4-6, 8-12, 14-19, 21-32, 34, 36, 38
    2    7 N      3, 7, 13, 33, 35, 37
    3    8 O      20
    4    1 H      39-58

          program call               : xtb data2507/gas/PmPmP/PmPmP_gas_S0_finalOpt.xtbopt.xyz --gfn 2 --spinpol --tblite --uhf 2 --ohess vtight --parallel 40 --molden --ceasefiles --namespace data2507/gas/PmPmP/PmPmP_gas_T1_preOpt
 * total energy  :   -98.1305168 Eh     change        0.1200851E-07 Eh
 * total energy  :   -98.1342102 Eh     change       -0.3693394E-02 Eh
 * total energy  :   -98.1357571 Eh     change       -0.1546919E-02 Eh
 * total energy  :   -98.1360140 Eh     change       -0.2568891E-03 Eh
 * total energy  :   -98.1366087 Eh     change       -0.5947358E-03 Eh
 * total energy  :   -98.1368652 Eh     change       -0.2564595E-03 Eh
 * total energy  :   -98.1371248 Eh     change       -0.2596322E-03 Eh
 * total energy  :   -98.1373944 Eh     change       -0.2696352E-03 Eh
 * total energy  :   -98.1375924 Eh     change       -0.1979362E-03 Eh
 * total energy  :   -98.1377409 Eh     change       -0.1484894E-03 Eh
 * total energy  :   -98.1386258 Eh     change       -0.1013184E-05 Eh
 * total energy  :   -98.1386267 Eh     change       -0.9041403E-06 Eh
 * total energy  :   -98.1386283 Eh     change       -0.1522765E-05 Eh
 * total energy  :   -98.1386290 Eh     change       -0.7844440E-06 Eh
 * total energy  :   -98.1386298 Eh     change       -0.7789601E-06 Eh
 * total energy  :   -98.1386306 Eh     change       -0.7900837E-06 Eh
 * total energy  :   -98.1386315 Eh     change       -0.8488223E-06 Eh
 * total energy  :   -98.1386314 Eh     change        0.3140457E-07 Eh
 * total energy  :   -98.1386315 Eh     change       -0.3861345E-07 Eh
   *** GEOMETRY OPTIMIZATION CONVERGED AFTER 95 ITERATIONS ***

 final structure:
================
58
 xtb: 6.7.1 (edcfbbe)
C            6.12471160384328       -3.77744280254946       -1.10392848616793
C            5.23655409416826       -4.82703083708373       -1.29526035104053
N            3.92548056509218       -4.69978641056107       -1.17198999855407
C            3.43939736256239       -3.51739644600037       -0.85322310416743
C            4.23408087968214       -2.39035987578953       -0.64068461590535
C            3.63315939567318       -1.10342022073750       -0.28480943518856
N            2.31526918180877       -1.02117894230212       -0.25397946144434
C            1.72539698773061        0.15688100173080        0.09488637947394
C            0.27547129440693        0.17336893308674        0.10184393034851
C           -0.41923325754603       -0.86022942098838       -0.54473004535640
C           -1.79407218106973       -0.88149364594126       -0.57616921460367
C           -2.52066291007484        0.12588760847101        0.05532399432224
N           -3.93820130910747        0.10772805399414        0.03115488684488
C           -4.64210087154228        1.09005641295639       -0.65329788284831
C           -4.00301381001652        2.09894025566167       -1.36879740669181
C           -4.73708306532238        3.06610227795095       -2.03283934789130
C           -6.11999004459239        3.04093590475804       -2.00323471278708
C           -6.77343905314435        2.02970312652576       -1.31766091687210
C           -6.04652763132173        1.05770039552766       -0.65260502482140
O           -6.75305029608796        0.07397390235839       -0.01605984210003
C           -6.04460569761031       -0.89458233658276        0.64189737414463
C           -6.77005224411091       -1.88502546660320        1.28078899608218
C           -6.11583397551915       -2.88204362028238        1.98612961615952
C           -4.73440697101601       -2.87469608545653        2.06148810355858
C           -4.00166363845108       -1.88893292750708        1.42388722796731
C           -4.64065029447368       -0.89371811370417        0.68944724261311
C           -1.84684942538559        1.14992533516717        0.71657523067064
C           -0.47002326712188        1.17534667458651        0.73659362240567
C            2.51020591810919        1.25510747291724        0.39433254644672
C            3.90747883132878        1.12035589254074        0.32862185294503
C            4.81411520050609        2.18227218600135        0.58775890762159
C            6.21390577482084        1.96725899194764        0.50115328628259
N            7.08862392228603        2.90407487831189        0.72483066147268
C            6.65944561245558        4.11932411956092        1.05018429357331
N            5.37747532779522        4.43814522223364        1.16382284962169
C            4.47877095300921        3.51214753043523        0.94350973390302
N            4.42999154601231       -0.09635150782985       -0.01156340013116
C            5.61325130440597       -2.53650763556663       -0.77123567263788
H            7.18725090242967       -3.93063555404918       -1.21384059106788
H            5.58652355741892       -5.81669371649246       -1.55852236925455
H            2.36473793379111       -3.44642156551979       -0.75407533349320
H            0.15190422489700       -1.63441931932984       -1.03216103235198
H           -2.31938451289130       -1.67301526842374       -1.09061327533031
H           -2.92555770814538        2.11854344794256       -1.40728767889929
H           -4.21918109866538        3.84023527185460       -2.57725237393122
H           -6.69265199466791        3.79655203615447       -2.51684042640255
H           -7.84963073199132        1.97255838868027       -1.28873273435234
H           -7.84573723212999       -1.85333314870456        1.21589564862668
H           -6.68719384791039       -3.65228740921725        2.47903937139309
H           -4.21648426601477       -3.63794022428769        2.62092932052527
H           -2.92591399269943       -1.88427176066144        1.49747806839596
H           -2.41457708166465        1.91956147860585        1.21947248500161
H            0.02792710879265        1.96824824700799        1.27244534103978
H            2.06957693964833        2.20474196957229        0.64719628655907
H            6.57460679260243        0.98086890306774        0.23776288658732
H            7.39402493548268        4.88741661516890        1.23169770433814
H            3.45028047584111        3.83049551784382        1.05040132974084
H            6.25416759366280       -1.68237594142213       -0.61181577494715

 projected vibrational frequencies (cm⁻¹)
eigval :       -0.00    -0.00    -0.00     0.00     0.00     0.00
eigval :        7.19    15.89    19.57    22.41    38.03    42.31
eigval :       48.02    54.20    57.94    66.42    93.50    99.73
eigval :      111.97   132.50   150.94   171.96   181.25   201.31
eigval :      207.26   241.60   250.23   257.46   267.90   285.61
eigval :      319.53   340.20   348.78   370.78   375.47   378.07
eigval :      392.01   396.66   403.12   417.14   424.45   425.89
eigval :      431.57   454.60   474.00   503.22   524.99   536.03
eigval :      541.55   569.64   570.91   586.58   593.42   598.86
eigval :      599.60   608.34   612.39   629.10   655.61   665.12
eigval :      666.51   667.82   668.78   684.03   685.78   694.80
eigval :      772.79   777.11   777.94   791.49   794.29   806.07
eigval :      814.24   820.18   834.39   841.23   856.29   858.07
eigval :      865.34   866.50   866.78   898.80   899.42   899.66
eigval :      908.54   914.61   915.68   915.85   916.30   918.33
eigval :      922.73   925.81   957.32   962.38  1000.67  1008.80
eigval :     1065.51  1078.01  1085.53  1085.82  1086.34  1103.52
eigval :     1112.18  1121.77  1123.31  1127.35  1141.04  1159.91
eigval :     1169.85  1173.90  1180.64  1184.03  1196.00  1201.75
eigval :     1206.06  1220.94  1226.39  1238.44  1247.66  1256.86
eigval :     1260.63  1266.79  1280.00  1289.35  1294.78  1310.01
eigval :     1314.40  1314.95  1317.50  1328.67  1336.79  1347.40
eigval :     1351.93  1378.52  1404.13  1418.97  1422.45  1436.30
eigval :     1443.19  1447.22  1452.95  1456.48  1471.21  1481.26
eigval :     1486.47  1519.61  1530.02  1560.55  1563.41  1568.28
eigval :     1571.46  1580.65  1584.77  1591.00  3041.58  3049.31
eigval :     3058.99  3069.64  3079.10  3082.23  3085.46  3095.07
eigval :     3095.73  3095.90  3096.44  3097.24  3104.33  3104.58
eigval :     3107.94  3109.82  3111.92  3112.65  3116.28  3116.36

   temp. (K)  partition function   enthalpy   heat capacity  entropy
                                   cal/mol     cal/K/mol   cal/K/mol   J/K/mol
 298.15  VIB  0.868E+14            17161.201    107.225    107.548
         ROT  0.566E+08              888.752      2.981     38.457
         INT  0.491E+22            18049.954    110.206    146.005
         TR   0.106E+29             1481.254      4.968     44.450
         TOT                       19531.2075   115.1741   190.4558   796.8669

       T/K    H(0)-H(T)+PV         H(T)/Eh          T*S/Eh         G(T)/Eh
   ------------------------------------------------------------------------
    298.15    0.311250E-01    0.455214E+00    0.904917E-01    0.364722E+00
   ------------------------------------------------------------------------

         :::::::::::::::::::::::::::::::::::::::::::::::::::::
         ::                  THERMODYNAMIC                  ::
         :::::::::::::::::::::::::::::::::::::::::::::::::::::
         :: total free energy         -97.773909000613 Eh   ::
         ::.................................................::
         :: total energy              -98.138631444060 Eh   ::
         :: zero point energy           0.424089164361 Eh   ::
         :: G(RRHO) w/o ZPVE           -0.059366720915 Eh   ::
         :: G(RRHO) contrib.            0.364722443446 Eh   ::
         :::::::::::::::::::::::::::::::::::::::::::::::::::::

           -------------------------------------------------
          | TOTAL ENERGY              -98.138631444060 Eh   |
          | TOTAL ENTHALPY            -97.683417319316 Eh   |
          | TOTAL FREE ENERGY         -97.773909000613 Eh   |
          | GRADIENT NORM               0.000079281431 Eh/α |
           -------------------------------------------------

 * finished run on 2025/09/07 at 20:34:27.907
