   * xtb version 6.7.1 (edcfbbe) compiled by 'albert@albert-system' on 2024-07-22

   ID    Z sym.   atoms
    1    6 C      1, 2, 4-6, 8-12, 14-19, 21-32, 34, 36, 38
    2    7 N      3, 7, 13, 33, 35, 37
    3    8 O      20
    4    1 H      39-58

          program call               : xtb data2507/gas/PmPmP/PmPmP_gas_T1_crest.xyz --gfn 2 --spinpol --tblite --uhf 2 --ohess vtight --parallel 40 --molden --ceasefiles --namespace data2507/gas/PmPmP/PmPmP_gas_T1_finalOpt
 * total energy  :   -98.1387307 Eh     change       -0.4757111E-07 Eh
 * total energy  :   -98.1387602 Eh     change       -0.2946330E-04 Eh
 * total energy  :   -98.1387723 Eh     change       -0.1209149E-04 Eh
 * total energy  :   -98.1387732 Eh     change       -0.9108408E-06 Eh
 * total energy  :   -98.1387736 Eh     change       -0.4311452E-06 Eh
 * total energy  :   -98.1387736 Eh     change        0.5782050E-07 Eh
 * total energy  :   -98.1387739 Eh     change       -0.3555745E-06 Eh
 * total energy  :   -98.1387743 Eh     change       -0.4198301E-06 Eh
 * total energy  :   -98.1387746 Eh     change       -0.2831155E-06 Eh
 * total energy  :   -98.1387749 Eh     change       -0.2620600E-06 Eh
 * total energy  :   -98.1387752 Eh     change       -0.2891614E-06 Eh
 * total energy  :   -98.1387753 Eh     change       -0.1587449E-06 Eh
 * total energy  :   -98.1387754 Eh     change       -0.8893963E-07 Eh
   *** GEOMETRY OPTIMIZATION CONVERGED AFTER 13 ITERATIONS ***

 final structure:
================
58
 xtb: 6.7.1 (edcfbbe)
C            6.08365190912809       -3.85839828855617        0.92456468809478
C            5.18307700892278       -4.89711273035856        1.11697281997775
N            3.87129075445521       -4.74290079663124        1.04249601106540
C            3.39689559951870       -3.54360831185891        0.77325128815451
C            4.20452812854877       -2.42565257786716        0.56286025674509
C            3.61875763840976       -1.11658880802430        0.26621068515017
N            2.30414339024800       -1.01231783241871        0.24632147080288
C            1.72382034085573        0.19124753119127       -0.03106493517227
C            0.27627114038951        0.21916536080757       -0.03708911184706
C           -0.47096915969800        1.35905984002329       -0.36686620832009
C           -1.84755715666637        1.32780494511288       -0.36335230368129
C           -2.52310418299849        0.15707096965283       -0.02857107330387
N           -3.94190528852517        0.12900703051796       -0.03054507395516
C           -4.65979598718955        0.81940773648507        0.93561434308529
C           -4.03375410175288        1.52948357634091        1.95629108930933
C           -4.78137142543787        2.20926058158181        2.90181016277801
C           -6.16389797361819        2.18800542539706        2.85077177853701
C           -6.80410705761603        1.47000669480463        1.85346865924517
C           -6.06396498931914        0.78617189263096        0.90487631375787
O           -6.75567554823025        0.08031746946069       -0.04166949001273
C           -6.03236990223896       -0.60545826753578       -0.97955395476610
C           -6.74112660632684       -1.31723782950973       -1.93156105660483
C           -6.06876431991202       -2.01676525445173       -2.92077568100083
C           -4.68591032302940       -1.99199845660416       -2.95994942366885
C           -3.96950432188055       -1.28375896474215       -2.01118063880151
C           -4.62769444465302       -0.59095291736044       -0.99887135134034
C           -1.79823507219745       -0.98532720715377        0.30404148989199
C           -0.42404657192173       -0.95225584246047        0.29701226818372
C            2.52852015547967        1.28956103903762       -0.28556930287830
C            3.92109453737971        1.12723504602280       -0.24948271432798
C            4.84476022018037        2.18122946541410       -0.49260707687007
C            6.24006763253139        1.93381439995869       -0.44620632129856
N            7.13062172553112        2.85888432185345       -0.66170114328685
C            6.71827107254101        4.09144890874734       -0.93796368854126
N            5.44192040298791        4.44229419894092       -1.00851172902425
C            4.52889592668051        3.52762704832475       -0.79502729105088
N            4.43031600877679       -0.10952398740476        0.03470281044504
C            5.58432388151173       -2.60009085367743        0.64268949459921
H            7.14623803225781       -4.03307704305076        0.99466610570957
H            5.52304831838985       -5.89986226083420        1.34080118297475
H            2.32091043170840       -3.45135917506096        0.71723726681785
H            0.02255728446228        2.27871912462781       -0.63812788014552
H           -2.41436999159901        2.20992566635812       -0.62455016240212
H           -2.95658572669395        1.54073458724616        2.00723757596715
H           -4.27489104911682        2.75494648421582        3.68255643149948
H           -6.74695508614039        2.71970131146472        3.58566564281612
H           -7.87958624110898        1.42356826936262        1.79440566879895
H           -7.81801325898938       -1.30695940503597       -1.88141872492511
H           -6.62739015766619       -2.57049121785400       -3.65836924108537
H           -4.15457830715248       -2.52390096935047       -3.73361260177386
H           -2.89219053564564       -1.26049450664449       -2.05292088743647
H           -2.32523002452324       -1.89077679766831        0.56778527464997
H            0.14602931251363       -1.83026841556719        0.55545667571907
H            2.10614066926180        2.25553347548997       -0.50412750752507
H            6.58604695532446        0.93240870230287       -0.22296163129021
H            7.46476649645100        4.84941735885557       -1.11489378592678
H            3.50532408030319        3.87122264281172       -0.86489037285946
H            6.23518201749899       -1.75329727166005        0.48454042384697

 projected vibrational frequencies (cm⁻¹)
eigval :       -0.00    -0.00    -0.00    -0.00     0.00     0.00
eigval :       -3.23    16.80    18.31    23.25    38.14    39.52
eigval :       43.79    48.41    57.34    66.69    92.31    98.65
eigval :      110.91   131.48   153.41   169.78   180.27   198.83
eigval :      204.28   242.44   249.16   257.29   268.12   284.92
eigval :      319.92   340.35   348.65   371.61   372.08   376.11
eigval :      393.53   394.34   407.49   413.44   425.58   427.40
eigval :      430.44   455.57   471.28   503.25   525.19   537.82
eigval :      538.88   569.36   570.69   586.31   593.33   597.69
eigval :      599.86   608.12   613.20   628.48   655.72   665.18
eigval :      665.40   667.96   671.03   683.46   684.55   694.89
eigval :      777.23   777.47   778.40   792.22   794.60   803.27
eigval :      810.09   819.71   840.16   840.95   853.11   855.86
eigval :      865.83   866.27   869.87   898.00   899.45   900.34
eigval :      904.98   914.59   916.02   916.61   916.71   917.73
eigval :      919.38   926.96   958.19   962.91  1000.98  1008.00
eigval :     1063.79  1076.55  1085.60  1085.66  1086.06  1102.67
eigval :     1111.97  1121.74  1124.22  1125.99  1142.65  1160.74
eigval :     1170.69  1173.89  1180.02  1183.87  1196.44  1200.76
eigval :     1206.12  1219.50  1227.23  1238.77  1247.31  1255.84
eigval :     1259.66  1267.03  1279.10  1292.48  1295.95  1310.50
eigval :     1315.12  1317.22  1319.62  1328.56  1339.25  1348.41
eigval :     1355.43  1376.73  1403.50  1418.36  1421.59  1435.41
eigval :     1442.73  1445.29  1454.19  1455.83  1466.92  1480.93
eigval :     1487.89  1520.64  1527.13  1560.37  1563.48  1567.86
eigval :     1571.91  1580.20  1584.66  1591.16  3042.56  3049.12
eigval :     3058.85  3071.12  3078.72  3081.88  3085.50  3094.69
eigval :     3095.14  3095.58  3095.92  3100.00  3103.88  3104.21
eigval :     3109.58  3111.21  3111.88  3113.52  3116.04  3116.19

   temp. (K)  partition function   enthalpy   heat capacity  entropy
                                   cal/mol     cal/K/mol   cal/K/mol   J/K/mol
 298.15  VIB  0.252E+15            17198.854    106.993    108.515
         ROT  0.567E+08              888.752      2.981     38.460
         INT  0.143E+23            18087.607    109.974    146.975
         TR   0.106E+29             1481.254      4.968     44.450
         TOT                       19568.8608   114.9421   191.4250   800.9222

       T/K    H(0)-H(T)+PV         H(T)/Eh          T*S/Eh         G(T)/Eh
   ------------------------------------------------------------------------
    298.15    0.311850E-01    0.455198E+00    0.909522E-01    0.364246E+00
   ------------------------------------------------------------------------

         :::::::::::::::::::::::::::::::::::::::::::::::::::::
         ::                  THERMODYNAMIC                  ::
         :::::::::::::::::::::::::::::::::::::::::::::::::::::
         :: total free energy         -97.774529772209 Eh   ::
         ::.................................................::
         :: total energy              -98.138775492051 Eh   ::
         :: zero point energy           0.424012952711 Eh   ::
         :: G(RRHO) w/o ZPVE           -0.059767232868 Eh   ::
         :: G(RRHO) contrib.            0.364245719842 Eh   ::
         :::::::::::::::::::::::::::::::::::::::::::::::::::::

           -------------------------------------------------
          | TOTAL ENERGY              -98.138775492051 Eh   |
          | TOTAL ENTHALPY            -97.683577574705 Eh   |
          | TOTAL FREE ENERGY         -97.774529772209 Eh   |
          | GRADIENT NORM               0.000081366528 Eh/α |
           -------------------------------------------------

 * finished run on 2025/09/07 at 20:38:14.451
