   * xtb version 6.7.1 (edcfbbe) compiled by 'albert@albert-system' on 2024-07-22

   ID    Z sym.   atoms
    1    6 C      1, 2, 4-6, 8-12, 14-19, 21-32, 34, 36, 38
    2    7 N      3, 7, 13, 33, 35, 37
    3    8 O      20
    4    1 H      39-58

          program call               : xtb data2507/gas/PmPmP/PmPmP_gas_S0_crest.xyz --gfn 2 --ohess vtight --parallel 40 --molden --ceasefiles --namespace data2507/gas/PmPmP/PmPmP_gas_S0_finalOpt
          :  Hamiltonian                  GFN2-xTB          :
 * total energy  :   -98.2004911 Eh     change       -0.9139853E-09 Eh
 * total energy  :   -98.2004920 Eh     change       -0.9310263E-06 Eh
 * total energy  :   -98.2004930 Eh     change       -0.9413981E-06 Eh
 * total energy  :   -98.2004945 Eh     change       -0.1482546E-05 Eh
 * total energy  :   -98.2004952 Eh     change       -0.7582513E-06 Eh
 * total energy  :   -98.2004960 Eh     change       -0.7571685E-06 Eh
 * total energy  :   -98.2004966 Eh     change       -0.6339729E-06 Eh
 * total energy  :   -98.2004970 Eh     change       -0.3805927E-06 Eh
 * total energy  :   -98.2004970 Eh     change        0.2194555E-07 Eh
 * total energy  :   -98.2004973 Eh     change       -0.3095039E-06 Eh
 * total energy  :   -98.2004972 Eh     change        0.3673208E-07 Eh
 * total energy  :   -98.2004975 Eh     change       -0.2109205E-06 Eh
 * total energy  :   -98.2004975 Eh     change       -0.8191454E-07 Eh
   *** GEOMETRY OPTIMIZATION CONVERGED AFTER 13 ITERATIONS ***

 final structure:
================
58
 xtb: 6.7.1 (edcfbbe)
C            6.15271291951645       -3.81092912945546       -0.89968653907889
C            5.28133797662503       -4.88967317106973       -0.96416480548546
N            3.97292726325207       -4.77982749634152       -0.79900816123104
C            3.47181118300172       -3.58358748075038       -0.56373964492825
C            4.24955716358324       -2.42691884619742       -0.48387854522705
C            3.63695013743821       -1.12296966871411       -0.22315563821297
N            2.31233958968693       -1.06099375415700       -0.20569469950990
C            1.73898958667330        0.11418240722647        0.04483357581015
C            0.27509327933147        0.13553262450875        0.06068850736929
C           -0.42369488843510       -0.86393320619118       -0.61862774781188
C           -1.80123587176086       -0.87372648163203       -0.63618952834784
C           -2.51667584365006        0.11344717636380        0.04009721526880
N           -3.92340704427060        0.10902346991008        0.02786076027853
C           -4.63348068601069        1.18911619455640       -0.50562415478015
C           -4.00124085777250        2.27240237098932       -1.10321405096855
C           -4.73606445565312        3.32653588109488       -1.62419417228911
C           -6.11481984250557        3.31092967272561       -1.56883626411857
C           -6.76273129693230        2.22005142220383       -1.00909463704089
C           -6.03452525533374        1.16520374986939       -0.49066163597232
O           -6.74831883781561        0.10674935689321        0.01119128530488
C           -6.03836209985162       -0.95185562926206        0.51985566808210
C           -6.77136496082862       -2.00800902979378        1.02874193463458
C           -6.12838855304158       -3.09852428114919        1.59471901559424
C           -4.75025081501009       -3.11265296746449        1.66546222630835
C           -4.01054605512208       -2.05719809827890        1.15418815947656
C           -4.63774399586629       -0.97410216473257        0.55117618166234
C           -1.82462084800236        1.10431627513754        0.73394622436471
C           -0.44549766688102        1.11707269599251        0.74054950300005
C            2.51855740695869        1.25459472446327        0.25729310742674
C            3.90029271187224        1.09381154566739        0.20594780507727
C            4.82696297209825        2.20972305351919        0.41008195766545
C            6.11388250429626        1.99322158674167        0.91115904849481
N            6.97144933433840        2.97662111521455        1.10547078612182
C            6.55538717264326        4.19663641324012        0.81311059904582
N            5.37259782706784        4.52275585756797        0.32440338450816
C            4.51853361120450        3.53731445843011        0.11317676996826
N            4.45391932640086       -0.09485280661353       -0.02095003831148
C            5.62694066320979       -2.55523395037700       -0.65670101183910
H            7.21337876568987       -3.95235203371494       -1.03923127785136
H            5.64343616309968       -5.89123969192893       -1.15684462660672
H            2.40103967839765       -3.52708831023610       -0.42637899149459
H            0.13916483089418       -1.62024452836333       -1.14265317357546
H           -2.33591562895393       -1.63886725390775       -1.17913934547708
H           -2.92490553460301        2.28986830924327       -1.17218375963495
H           -4.21681724924517        4.15701788387660       -2.07724497594778
H           -6.69108299281606        4.13070385476649       -1.96751086712385
H           -7.83879755751012        2.16423724894083       -0.97009966900561
H           -7.84698781868441       -1.95338151975234        0.97727967801211
H           -6.70821338547750       -3.91945670973873        1.98577357002111
H           -4.23489971094983       -3.94315374481649        2.12262827573387
H           -2.93513236776293       -2.07472127504271        1.23475869719910
H           -2.37866844808775        1.85646668285897        1.27605134549454
H            0.06899450796173        1.87791403150411        1.30796971662617
H            2.07524724448213        2.21712074349003        0.44804418740066
H            6.44438007590899        0.99441577859629        1.16262437916127
H            7.25235655801836        5.00632945062252        0.98512515567007
H            3.56959830310333        3.82232704957045       -0.32422314589748
H            6.25257760338029       -1.67731969790385       -0.60196806461342

          :  Hamiltonian                  GFN2-xTB          :
         :: gradient norm              0.000044726682 Eh/a0 ::
         :: HOMO-LUMO gap              1.252038396964 eV    ::
         :: SCC energy               -99.857590791195 Eh    ::
         :: -> dispersion             -0.076175350371 Eh    ::
         :: repulsion energy           1.657093251561 Eh    ::

    * Orbital Energies and Occupations

         #    Occupation            Energy/Eh            Energy/eV
      -------------------------------------------------------------
         1        2.0000           -0.7301234             -19.8677
       ...           ...                  ...                  ...
        78        2.0000           -0.4309950             -11.7280
        79        2.0000           -0.4234033             -11.5214
        80        2.0000           -0.4197676             -11.4225
        81        2.0000           -0.4179532             -11.3731
        82        2.0000           -0.4179085             -11.3719
        83        2.0000           -0.4147810             -11.2868
        84        2.0000           -0.4134438             -11.2504
        85        2.0000           -0.4124612             -11.2236
        86        2.0000           -0.3922737             -10.6743
        87        2.0000           -0.3802130             -10.3461
        88        2.0000           -0.3765007             -10.2451
        89        2.0000           -0.3703571             -10.0779
        90        2.0000           -0.3461247              -9.4185 (HOMO)
        91                         -0.3001133              -8.1665 (LUMO)
        92                         -0.2897801              -7.8853
        93                         -0.2796139              -7.6087
        94                         -0.2643777              -7.1941
        95                         -0.2509220              -6.8279
        96                         -0.2440863              -6.6419
        97                         -0.2404657              -6.5434
        98                         -0.2317372              -6.3059
        99                         -0.2276444              -6.1945
       100                         -0.2173928              -5.9156
       101                         -0.2103175              -5.7230
       ...                                ...                  ...
       172                          0.6766218              18.4118
      -------------------------------------------------------------
                  HL-Gap            0.0460114 Eh            1.2520 eV

     #   Z          covCN         q      C6AA      α(0)
     1   6 C        2.913    -0.037    28.921     8.818
     2   6 C        2.914     0.062    26.613     8.459
     3   7 N        1.835    -0.211    26.433     7.619
     4   6 C        2.916     0.063    26.590     8.456
     5   6 C        2.980    -0.007    28.200     8.711
     6   6 C        2.947     0.183    24.079     8.048
     7   7 N        1.851    -0.266    27.758     7.809
     8   6 C        2.968     0.114    25.493     8.282
     9   6 C        2.980     0.000    28.022     8.683
    10   6 C        2.925    -0.024    28.596     8.770
    11   6 C        2.920    -0.040    28.985     8.829
    12   6 C        2.921     0.070    26.439     8.432
    13   7 N        2.751    -0.069    22.568     7.056
    14   6 C        2.922     0.042    27.059     8.530
    15   6 C        2.924    -0.060    29.488     8.905
    16   6 C        2.919    -0.039    28.962     8.825
    17   6 C        2.919    -0.040    28.984     8.828
    18   6 C        2.920    -0.056    29.388     8.890
    19   6 C        2.884     0.125    25.250     8.238
    20   8 O        1.709    -0.254    18.202     5.760
    21   6 C        2.884     0.125    25.256     8.239
    22   6 C        2.920    -0.056    29.385     8.889
    23   6 C        2.919    -0.039    28.977     8.827
    24   6 C        2.919    -0.038    28.949     8.823
    25   6 C        2.924    -0.059    29.478     8.904
    26   6 C        2.922     0.042    27.061     8.531
    27   6 C        2.920    -0.041    29.017     8.834
    28   6 C        2.922    -0.031    28.766     8.795
    29   6 C        2.912    -0.065    29.608     8.923
    30   6 C        2.970     0.108    25.613     8.301
    31   6 C        2.969    -0.012    28.320     8.729
    32   6 C        2.939     0.084    26.120     8.382
    33   7 N        1.833    -0.222    26.694     7.656
    34   6 C        2.926     0.151    24.719     8.153
    35   7 N        1.834    -0.226    26.785     7.669
    36   6 C        2.935     0.077    26.285     8.408
    37   7 N        1.850    -0.271    27.898     7.828
    38   6 C        2.931    -0.009    28.238     8.715
    39   1 H        0.926     0.042     2.422     2.434
    40   1 H        0.925     0.045     2.384     2.415
    41   1 H        0.926     0.060     2.197     2.318
    42   1 H        0.926     0.062     2.176     2.307
    43   1 H        0.926     0.048     2.347     2.396
    44   1 H        0.926     0.034     2.532     2.488
    45   1 H        0.926     0.036     2.500     2.472
    46   1 H        0.926     0.039     2.461     2.453
    47   1 H        0.926     0.051     2.302     2.373
    48   1 H        0.926     0.051     2.303     2.373
    49   1 H        0.926     0.039     2.456     2.451
    50   1 H        0.926     0.038     2.477     2.461
    51   1 H        0.926     0.037     2.494     2.470
    52   1 H        0.926     0.045     2.384     2.415
    53   1 H        0.926     0.039     2.462     2.454
    54   1 H        0.926     0.036     2.496     2.471
    55   1 H        0.925     0.064     2.158     2.297
    56   1 H        0.925     0.055     2.262     2.352
    57   1 H        0.925     0.046     2.370     2.407
    58   1 H        0.926     0.057     2.230     2.335

molecular dipole:
                 x           y           z       tot (Debye)
 q only:       -0.136      -0.054      -0.031
   full:       -0.204       0.391       0.018       1.122

 projected vibrational frequencies (cm⁻¹)
eigval :       -0.00    -0.00    -0.00     0.00     0.00     0.00
eigval :       10.14    16.67    21.54    28.20    34.57    39.45
eigval :       48.37    52.09    61.97    67.57    92.60   100.24
eigval :      116.83   136.10   141.46   179.90   195.29   199.01
eigval :      214.77   241.77   253.36   257.87   268.18   283.83
eigval :      319.66   329.29   350.47   352.70   369.85   375.79
eigval :      379.47   395.55   406.66   424.75   428.84   433.53
eigval :      440.20   450.11   483.21   509.93   522.75   540.98
eigval :      551.30   579.29   587.06   596.82   607.18   609.14
eigval :      632.49   634.51   636.96   638.72   660.49   661.91
eigval :      675.13   685.25   700.46   704.67   705.89   744.97
eigval :      779.01   779.62   797.76   799.11   816.81   827.94
eigval :      837.50   847.12   855.76   863.51   863.65   866.97
eigval :      875.70   897.60   899.07   904.24   913.73   915.44
eigval :      917.17   920.50   921.81   923.57   925.91   926.16
eigval :      931.63   934.94   997.13  1014.87  1022.03  1028.89
eigval :     1087.63  1090.78  1091.56  1091.88  1108.51  1109.76
eigval :     1121.88  1127.26  1136.86  1137.73  1171.45  1175.60
eigval :     1177.41  1182.72  1185.15  1193.92  1198.02  1202.47
eigval :     1222.74  1228.83  1234.28  1243.38  1249.17  1252.82
eigval :     1254.32  1262.51  1266.02  1288.63  1310.51  1311.89
eigval :     1317.84  1338.40  1341.92  1352.34  1356.98  1387.18
eigval :     1398.23  1406.51  1412.80  1424.27  1442.12  1443.05
eigval :     1452.42  1483.19  1487.35  1504.75  1511.98  1527.01
eigval :     1550.22  1556.62  1558.94  1567.42  1568.21  1575.25
eigval :     1580.59  1587.91  1592.05  1603.07  3044.83  3058.55
eigval :     3065.16  3067.54  3077.91  3082.66  3087.85  3089.17
eigval :     3089.87  3090.83  3094.11  3098.55  3099.48  3100.20
eigval :     3106.10  3107.67  3108.75  3112.07  3113.58  3114.13

   temp. (K)  partition function   enthalpy   heat capacity  entropy
                                   cal/mol     cal/K/mol   cal/K/mol   J/K/mol
 298.15  VIB  0.401E+14            16946.926    105.484    105.866
         ROT  0.565E+08              888.752      2.981     38.452
         INT  0.227E+22            17835.679    108.465    144.318
         TR   0.106E+29             1481.254      4.968     44.450
         TOT                       19316.9325   113.4329   188.7684   789.8072

       T/K    H(0)-H(T)+PV         H(T)/Eh          T*S/Eh         G(T)/Eh
   ------------------------------------------------------------------------
    298.15    0.307835E-01    0.458729E+00    0.896900E-01    0.369039E+00
   ------------------------------------------------------------------------

         :::::::::::::::::::::::::::::::::::::::::::::::::::::
         ::                  THERMODYNAMIC                  ::
         :::::::::::::::::::::::::::::::::::::::::::::::::::::
         :: total free energy         -97.831458808868 Eh   ::
         ::.................................................::
         :: total energy              -98.200497539636 Eh   ::
         :: zero point energy           0.427945217125 Eh   ::
         :: G(RRHO) w/o ZPVE           -0.058906486358 Eh   ::
         :: G(RRHO) contrib.            0.369038730767 Eh   ::
         :::::::::::::::::::::::::::::::::::::::::::::::::::::

           -------------------------------------------------
          | TOTAL ENERGY              -98.200497539636 Eh   |
          | TOTAL ENTHALPY            -97.741768831124 Eh   |
          | TOTAL FREE ENERGY         -97.831458808868 Eh   |
          | GRADIENT NORM               0.000044786604 Eh/α |
          | HOMO-LUMO GAP               1.252032788355 eV   |
           -------------------------------------------------

 * finished run on 2025/09/07 at 20:34:16.787
