   * xtb version 6.7.1 (edcfbbe) compiled by 'albert@albert-system' on 2024-07-22

   ID    Z sym.   atoms
    1    6 C      1, 2, 4-6, 8-12, 14-19, 21-32, 34, 36, 38
    2    7 N      3, 7, 13, 33, 35, 37
    3    8 O      20
    4    1 H      39-58

          program call               : xtb data2507/gas/PmPmP/PmPmP.xyz --gfn 2 --ohess vtight --parallel 40 --molden --ceasefiles --namespace data2507/gas/PmPmP/PmPmP_gas_S0_preOpt
          :  Hamiltonian                  GFN2-xTB          :
 * total energy  :   -98.1819615 Eh     change       -0.1483869E-08 Eh
 * total energy  :   -98.1938434 Eh     change       -0.1188186E-01 Eh
 * total energy  :   -98.1971525 Eh     change       -0.3309138E-02 Eh
 * total energy  :   -98.1980826 Eh     change       -0.9300959E-03 Eh
 * total energy  :   -98.1986413 Eh     change       -0.5586463E-03 Eh
 * total energy  :   -98.1988272 Eh     change       -0.1858938E-03 Eh
 * total energy  :   -98.1989161 Eh     change       -0.8890280E-04 Eh
 * total energy  :   -98.1989802 Eh     change       -0.6417229E-04 Eh
 * total energy  :   -98.1990408 Eh     change       -0.6053664E-04 Eh
 * total energy  :   -98.1991811 Eh     change       -0.1403001E-03 Eh
 * total energy  :   -98.2003641 Eh     change       -0.7770612E-06 Eh
 * total energy  :   -98.2003648 Eh     change       -0.7232519E-06 Eh
 * total energy  :   -98.2003655 Eh     change       -0.6743187E-06 Eh
 * total energy  :   -98.2003661 Eh     change       -0.6442084E-06 Eh
 * total energy  :   -98.2003668 Eh     change       -0.6407693E-06 Eh
 * total energy  :   -98.2003674 Eh     change       -0.6472356E-06 Eh
 * total energy  :   -98.2003681 Eh     change       -0.6363389E-06 Eh
 * total energy  :   -98.2003687 Eh     change       -0.5929673E-06 Eh
 * total energy  :   -98.2003687 Eh     change       -0.3820347E-08 Eh
   *** GEOMETRY OPTIMIZATION CONVERGED AFTER 68 ITERATIONS ***

 final structure:
================
58
 xtb: 6.7.1 (edcfbbe)
C            6.39617116196883       -3.55987742139414       -0.92785857948239
C            5.54802912936235       -4.62592457390438       -1.19480851740733
N            4.22861058471227       -4.53632113931081       -1.14616160450059
C            3.69327703545174       -3.37362980147909       -0.83162344889028
C            4.44545431173878       -2.23186534271724       -0.54929452181195
C            3.79570685298664       -0.96300850634141       -0.21450433212329
N            2.47023641539197       -0.93708905688971       -0.20367090459867
C            1.86080477820155        0.21295257511420        0.07927676083171
C            0.39667596483227        0.19295110699516        0.07012996825285
C           -0.26101674869315       -0.86023744088246       -0.56900565303319
C           -1.63691305996964       -0.91891728983957       -0.60107524939403
C           -2.39375962308761        0.07740738001066        0.01339913463729
N           -3.79963701545055        0.02320684192369       -0.01257710657813
C           -4.53896658785250        1.03890165432555       -0.62569277040969
C           -3.93531768686064        2.09508638873473       -1.29661225439407
C           -4.69847730546194        3.08334624962490       -1.89961788115878
C           -6.07649954324777        3.02681215350726       -1.85302633514992
C           -6.69498044271926        1.96092769738344       -1.21677502714417
C           -5.93860780040785        0.97169550357377       -0.61605915718941
O           -6.62239849643864       -0.06767402964096       -0.03793020620965
C           -5.88309315938313       -1.06313998944416        0.55049731983632
C           -6.58563539586313       -2.09979974208479        1.13643190839784
C           -5.91187622581505       -3.12563895914577        1.78214559692199
C           -4.53401229505598       -3.09480010519427        1.85239658772421
C           -3.82456502196275       -2.05855279993731        1.26459169945966
C           -4.48253894840793       -1.04089337866401        0.58541046838178
C           -1.74460778527189        1.12693311641048        0.66033050964138
C           -0.36688357061775        1.18347284940511        0.68807278887783
C            2.60922062130880        1.36146695114701        0.35320195088307
C            3.99517938106977        1.23092799454331        0.34341403919182
C            4.88760087114073        2.35609866676077        0.63163320849265
C            6.17460436371329        2.41381912805679        0.08951034663698
N            7.00071555547789        3.41267199696574        0.33460576975349
C            6.55246081388004        4.37849730715462        1.11767991059883
N            5.36605494104150        4.42851445673872        1.69572428481162
C            4.54391742493776        3.42068005195467        1.46488729360935
N            4.58332827883439        0.07286384010467        0.05498446961088
C            5.83458187548232       -2.33979374496216       -0.59897844526605
H            7.46698158581738       -3.68406212523369       -0.97713990409342
H            5.93876335798279       -5.59996182679330       -1.45926569562255
H            2.61373316833820       -3.33414342892589       -0.79607016429760
H            0.33346640424213       -1.62167792697823       -1.04827599157988
H           -2.13856425091857       -1.72972697915350       -1.10810027359181
H           -2.85931836921793        2.14198947283668       -1.35790391463687
H           -4.20184108792137        3.89440830727760       -2.40962139996343
H           -6.67480645334079        3.79516460578485       -2.31641963933395
H           -7.76909794109200        1.87437640801643       -1.18020967889879
H           -7.66228808960537       -2.08126073342787        1.08106227009459
H           -6.46818675641663       -3.93148181345167        2.23402431174513
H           -3.99546520577499       -3.87421325150655        2.36895265846464
H           -2.74909160905773       -2.03878916023062        1.34441270450513
H           -2.33098973715704        1.88986160198966        1.15097595898181
H            0.11076447713901        1.99104777008379        1.22153916098965
H            2.14369042283235        2.31560172096573        0.53251183396044
H            6.53190122548223        1.62832737817013       -0.56263520460615
H            7.22363507577762        5.20548029808532        1.30887942447741
H            3.59186046137883        3.46207571056250        1.97956567050368
H            6.44200967254608       -1.47508761667820       -0.37933314890854

          :  Hamiltonian                  GFN2-xTB          :
         :: gradient norm              0.000047858676 Eh/a0 ::
         :: HOMO-LUMO gap              1.243547246913 eV    ::
         :: SCC energy               -99.857483474027 Eh    ::
         :: -> dispersion             -0.076235846326 Eh    ::
         :: repulsion energy           1.657114805349 Eh    ::

    * Orbital Energies and Occupations

         #    Occupation            Energy/Eh            Energy/eV
      -------------------------------------------------------------
         1        2.0000           -0.7300071             -19.8645
       ...           ...                  ...                  ...
        78        2.0000           -0.4309783             -11.7275
        79        2.0000           -0.4236480             -11.5280
        80        2.0000           -0.4198203             -11.4239
        81        2.0000           -0.4179872             -11.3740
        82        2.0000           -0.4178926             -11.3714
        83        2.0000           -0.4147908             -11.2870
        84        2.0000           -0.4140692             -11.2674
        85        2.0000           -0.4117675             -11.2048
        86        2.0000           -0.3922930             -10.6748
        87        2.0000           -0.3804199             -10.3518
        88        2.0000           -0.3767044             -10.2506
        89        2.0000           -0.3703864             -10.0787
        90        2.0000           -0.3460411              -9.4163 (HOMO)
        91                         -0.3003416              -8.1727 (LUMO)
        92                         -0.2903125              -7.8998
        93                         -0.2798204              -7.6143
        94                         -0.2653500              -7.2205
        95                         -0.2510426              -6.8312
        96                         -0.2442678              -6.6469
        97                         -0.2403836              -6.5412
        98                         -0.2316889              -6.3046
        99                         -0.2270398              -6.1781
       100                         -0.2173314              -5.9139
       101                         -0.2099046              -5.7118
       ...                                ...                  ...
       172                          0.6774462              18.4343
      -------------------------------------------------------------
                  HL-Gap            0.0456995 Eh            1.2435 eV

     #   Z          covCN         q      C6AA      α(0)
     1   6 C        2.913    -0.037    28.920     8.818
     2   6 C        2.914     0.062    26.612     8.459
     3   7 N        1.835    -0.212    26.437     7.620
     4   6 C        2.916     0.063    26.587     8.455
     5   6 C        2.980    -0.008    28.201     8.711
     6   6 C        2.946     0.183    24.079     8.048
     7   7 N        1.851    -0.266    27.757     7.808
     8   6 C        2.966     0.113    25.500     8.283
     9   6 C        2.979     0.000    28.023     8.683
    10   6 C        2.926    -0.024    28.596     8.770
    11   6 C        2.919    -0.039    28.979     8.828
    12   6 C        2.921     0.070    26.431     8.431
    13   7 N        2.751    -0.069    22.576     7.057
    14   6 C        2.922     0.042    27.057     8.530
    15   6 C        2.924    -0.060    29.486     8.905
    16   6 C        2.919    -0.039    28.960     8.825
    17   6 C        2.919    -0.040    28.985     8.829
    18   6 C        2.920    -0.056    29.389     8.890
    19   6 C        2.884     0.125    25.251     8.238
    20   8 O        1.709    -0.254    18.203     5.760
    21   6 C        2.884     0.125    25.256     8.239
    22   6 C        2.920    -0.056    29.385     8.889
    23   6 C        2.919    -0.039    28.978     8.828
    24   6 C        2.919    -0.038    28.949     8.823
    25   6 C        2.924    -0.060    29.480     8.904
    26   6 C        2.922     0.042    27.058     8.530
    27   6 C        2.920    -0.041    29.013     8.833
    28   6 C        2.922    -0.030    28.761     8.795
    29   6 C        2.912    -0.065    29.605     8.922
    30   6 C        2.971     0.108    25.612     8.301
    31   6 C        2.969    -0.012    28.317     8.729
    32   6 C        2.939     0.085    26.116     8.381
    33   7 N        1.833    -0.222    26.692     7.656
    34   6 C        2.926     0.151    24.718     8.153
    35   7 N        1.834    -0.226    26.782     7.669
    36   6 C        2.935     0.077    26.279     8.407
    37   7 N        1.850    -0.271    27.896     7.828
    38   6 C        2.932    -0.009    28.238     8.715
    39   1 H        0.926     0.042     2.422     2.434
    40   1 H        0.925     0.045     2.384     2.415
    41   1 H        0.926     0.060     2.203     2.321
    42   1 H        0.926     0.063     2.161     2.299
    43   1 H        0.926     0.048     2.344     2.394
    44   1 H        0.926     0.034     2.536     2.490
    45   1 H        0.926     0.036     2.501     2.473
    46   1 H        0.926     0.039     2.462     2.454
    47   1 H        0.926     0.051     2.302     2.373
    48   1 H        0.926     0.051     2.303     2.373
    49   1 H        0.926     0.039     2.457     2.451
    50   1 H        0.926     0.038     2.480     2.462
    51   1 H        0.926     0.036     2.501     2.473
    52   1 H        0.926     0.045     2.385     2.415
    53   1 H        0.926     0.039     2.464     2.455
    54   1 H        0.926     0.036     2.496     2.471
    55   1 H        0.925     0.063     2.167     2.302
    56   1 H        0.925     0.055     2.261     2.351
    57   1 H        0.925     0.046     2.376     2.411
    58   1 H        0.926     0.058     2.228     2.334

molecular dipole:
                 x           y           z       tot (Debye)
 q only:       -0.124      -0.045      -0.080
   full:       -0.201       0.384       0.050       1.109

 projected vibrational frequencies (cm⁻¹)
eigval :       -0.00    -0.00     0.00     0.00     0.00     0.00
eigval :        8.52    16.90    21.32    23.86    34.79    39.44
eigval :       47.77    52.46    61.34    63.07    92.73    98.43
eigval :      115.93   135.76   146.79   177.35   191.19   201.92
eigval :      210.58   242.18   252.77   259.47   266.90   283.53
eigval :      318.14   332.84   350.22   352.92   365.13   376.29
eigval :      378.44   395.17   413.11   420.69   427.30   432.30
eigval :      440.83   447.63   486.85   509.92   522.63   543.84
eigval :      546.76   579.28   586.49   596.80   608.05   609.44
eigval :      630.63   634.98   636.52   638.26   660.36   661.76
eigval :      675.10   684.58   700.57   704.68   705.92   743.99
eigval :      778.96   779.41   797.80   798.86   815.90   827.40
eigval :      838.17   845.01   855.63   863.11   863.47   866.34
eigval :      873.70   897.36   898.81   902.46   913.58   915.34
eigval :      917.13   920.21   921.20   923.18   924.80   925.47
eigval :      931.04   933.94   997.21  1014.70  1021.68  1029.06
eigval :     1087.53  1090.57  1090.94  1091.68  1108.38  1109.57
eigval :     1121.80  1127.01  1137.16  1137.42  1171.48  1175.65
eigval :     1177.47  1182.26  1184.98  1194.26  1197.94  1202.22
eigval :     1222.87  1228.73  1234.03  1243.37  1248.96  1252.37
eigval :     1254.47  1262.43  1266.18  1289.10  1310.66  1312.24
eigval :     1318.15  1338.89  1341.69  1352.38  1357.10  1386.66
eigval :     1397.78  1406.57  1412.78  1424.32  1442.34  1443.10
eigval :     1452.19  1482.42  1487.63  1504.81  1511.84  1526.71
eigval :     1550.25  1556.70  1558.98  1567.45  1568.19  1575.50
eigval :     1580.62  1588.06  1592.15  1603.14  3044.81  3058.66
eigval :     3065.34  3067.79  3079.57  3083.94  3088.29  3089.08
eigval :     3090.00  3090.69  3095.40  3099.13  3099.37  3100.01
eigval :     3105.69  3107.36  3111.53  3112.62  3113.55  3114.07

   temp. (K)  partition function   enthalpy   heat capacity  entropy
                                   cal/mol     cal/K/mol   cal/K/mol   J/K/mol
 298.15  VIB  0.607E+14            16972.530    105.423    106.281
         ROT  0.565E+08              888.752      2.981     38.454
         INT  0.343E+22            17861.282    108.404    144.735
         TR   0.106E+29             1481.254      4.968     44.450
         TOT                       19342.5364   113.3720   189.1857   791.5529

       T/K    H(0)-H(T)+PV         H(T)/Eh          T*S/Eh         G(T)/Eh
   ------------------------------------------------------------------------
    298.15    0.308243E-01    0.458695E+00    0.898882E-01    0.368806E+00
   ------------------------------------------------------------------------

         :::::::::::::::::::::::::::::::::::::::::::::::::::::
         ::                  THERMODYNAMIC                  ::
         :::::::::::::::::::::::::::::::::::::::::::::::::::::
         :: total free energy         -97.831562190764 Eh   ::
         ::.................................................::
         :: total energy              -98.200368668677 Eh   ::
         :: zero point energy           0.427870405170 Eh   ::
         :: G(RRHO) w/o ZPVE           -0.059063927257 Eh   ::
         :: G(RRHO) contrib.            0.368806477913 Eh   ::
         :::::::::::::::::::::::::::::::::::::::::::::::::::::

           -------------------------------------------------
          | TOTAL ENERGY              -98.200368668677 Eh   |
          | TOTAL ENTHALPY            -97.741673969728 Eh   |
          | TOTAL FREE ENERGY         -97.831562190764 Eh   |
          | GRADIENT NORM               0.000047859411 Eh/α |
          | HOMO-LUMO GAP               1.243547242655 eV   |
           -------------------------------------------------

 * finished run on 2025/09/07 at 20:31:58.159
