   * xtb version 6.7.1 (edcfbbe) compiled by 'albert@albert-system' on 2024-07-22

   ID    Z sym.   atoms
    1    6 C      1-22, 24-32, 34-48
    2    7 N      23, 33
    3    1 H      49-86

          program call               : xtb data2507/toluene/DMTAC/DMTAC.xyz --gfn 2 --gbsa toluene --ohess vtight --parallel 40 --molden --ceasefiles --namespace data2507/toluene/DMTAC/DMTAC_toluene_S0_preOpt
      * Solvation model:               GBSA
        Solvent                        toluene
        Solvent mass                       9.2140E+01 g/mol
          :  Hamiltonian                  GFN2-xTB          :
 * total energy  :  -123.7813046 Eh     change       -0.4269310E-08 Eh
 * total energy  :  -123.7982891 Eh     change       -0.1698452E-01 Eh
 * total energy  :  -123.8050555 Eh     change       -0.6766363E-02 Eh
 * total energy  :  -123.8074813 Eh     change       -0.2425779E-02 Eh
 * total energy  :  -123.8084741 Eh     change       -0.9928077E-03 Eh
 * total energy  :  -123.8088256 Eh     change       -0.3515074E-03 Eh
 * total energy  :  -123.8091560 Eh     change       -0.3304305E-03 Eh
 * total energy  :  -123.8094904 Eh     change       -0.3344230E-03 Eh
 * total energy  :  -123.8098354 Eh     change       -0.3449202E-03 Eh
 * total energy  :  -123.8101534 Eh     change       -0.3180598E-03 Eh
 * total energy  :  -123.8116889 Eh     change       -0.5074075E-06 Eh
 * total energy  :  -123.8116895 Eh     change       -0.5662236E-06 Eh
 * total energy  :  -123.8116902 Eh     change       -0.6838050E-06 Eh
 * total energy  :  -123.8116907 Eh     change       -0.5828657E-06 Eh
 * total energy  :  -123.8116911 Eh     change       -0.3791579E-06 Eh
 * total energy  :  -123.8116914 Eh     change       -0.2917881E-06 Eh
 * total energy  :  -123.8116916 Eh     change       -0.2067388E-06 Eh
 * total energy  :  -123.8116917 Eh     change       -0.1243178E-06 Eh
 * total energy  :  -123.8116917 Eh     change       -0.8718786E-08 Eh
   *** GEOMETRY OPTIMIZATION CONVERGED AFTER 58 ITERATIONS ***

 final structure:
================
86
 xtb: 6.7.1 (edcfbbe)
C            4.95026414351188        4.09087969595781        0.13111438949246
C            3.93245841305867        2.99106040041147        0.10601240650816
C            3.80458100115818        2.12872856240127        1.18588210318805
C            2.87050667184800        1.11023915272172        1.18754833592457
C            2.03306651401123        0.93210361036837        0.09401533881823
C            1.02128338338681       -0.14674232674592        0.07836867769000
C            1.44801110026188       -1.48579948508971        0.13784555252308
C            2.88350046756757       -1.78516353450036        0.34056813482216
C            3.82259675438660       -1.41295839665147       -0.61521023513030
C            5.16334667404473       -1.69354043554744       -0.42734905693702
C            5.58406972741400       -2.34536237173608        0.71977860233700
C            4.65631495442104       -2.71431718884254        1.67917949273798
C            3.31466915500952       -2.43698150702361        1.49073386681438
C            0.53968633906606       -2.51369444366957       -0.04864580403491
C            1.07818899856769       -3.89182335032742        0.03969439715491
C            1.98988922536197       -4.37514488883348       -0.89595716743799
C            2.54227180556893       -5.63465340787326       -0.74851273482830
C            2.20184494293585       -6.42301198273673        0.33865415516174
C            1.29947280289574       -5.94951198966174        1.27741003437012
C            0.74149345459433       -4.69233074961133        1.13150626150597
C           -0.83528180180580       -2.22789806497606       -0.23630383441269
C           -1.79781927168050       -3.19947852288134       -0.67795337665176
N           -1.41048951437390       -4.42258827519121       -1.19083539659355
C           -3.12665854903817       -2.86480106276331       -0.74003800698387
C           -3.62522496950618       -1.62735173698388       -0.28906098986384
C           -5.03364838929795       -1.34062351944740       -0.22444573928047
C           -6.00262548603368       -2.22297862168643       -0.73631049462034
C           -7.34409436067795       -1.94949468746889       -0.66476170671850
C           -7.78579495625547       -0.77101933343349       -0.06204534292847
C           -6.87063254817477        0.11498435021793        0.44242511548625
C           -5.48804517337597       -0.13491894257612        0.37058340649014
C           -4.52190252899904        0.77757488457778        0.90356942546281
N           -4.92227926167583        1.88789540051028        1.63584743549445
C           -3.18669614010822        0.50970058761391        0.76355742058298
C           -2.70205384279716       -0.65156043654991        0.12774858884124
C           -1.29059654658215       -0.89772813903507       -0.02635178751109
C           -0.33263732973446        0.14596350115122        0.01743925520975
C           -0.71137531543643        1.56596757231259       -0.14423374688608
C           -1.41408824706419        1.96533407713054       -1.27635747357383
C           -1.68762723053356        3.30325144214570       -1.48605259357402
C           -1.26919842047967        4.27724027270647       -0.58905589159228
C           -1.56312502135574        5.72368959449693       -0.84883686515787
C           -0.56725011281790        3.88446474079566        0.55532347971750
C           -0.09010194496991        4.90127850822792        1.54752917283291
C           -0.30086305416733        2.54005227171575        0.76015524322013
C            2.16414040901579        1.79053936845996       -0.99098371885088
C            3.09540062244698        2.81638647755490       -1.00077167725341
C            3.19270259676062        3.72878570068290       -2.18573110965390
H            5.51300025601562        4.07260530779562        1.06124196551806
H            5.64873641108912        3.98668541155507       -0.69885434636946
H            4.46762544659907        5.06344523231529        0.03634628707750
H            4.44737947218090        2.25716945194631        2.04620574533729
H            2.78105866844219        0.45944177381399        2.04578324648902
H            3.49523311241598       -0.90669943138523       -1.51210438739031
H            5.88275667684871       -1.40169357660194       -1.17910191631450
H            6.63200121117112       -2.56357924813380        0.86674693971835
H            4.97845310750816       -3.22015392862122        2.57828492066387
H            2.59280865766812       -2.72000858528810        2.24388977989800
H            2.25643618533628       -3.75938138687537       -1.74211303784226
H            3.24667286970017       -5.99916888596726       -1.48177185698623
H            2.64020027906715       -7.40300810766435        0.45599966177616
H            1.03437989389480       -6.55824915208786        2.12974323367684
H            0.04080671063344       -4.31686756819950        1.86482855015632
H           -0.50512066428581       -4.77089984834434       -0.92476694100494
H           -2.13612626362265       -5.11985655869721       -1.23669525437692
H           -3.80367788463674       -3.61539150198301       -1.11725216416498
H           -5.69326210426535       -3.13888537991933       -1.21409194145317
H           -8.06170384066816       -2.64614634740064       -1.07401928344229
H           -8.84345079914783       -0.55982492072315        0.00246266416034
H           -7.22797603289865        1.02039460869491        0.91063837411292
H           -4.18974093387551        2.56709480703917        1.77805342009630
H           -5.79698717739196        2.30763292128559        1.36453109315920
H           -2.48641281837957        1.19947385665864        1.20489389412606
H           -1.73845783726182        1.22390272573003       -1.99285075723267
H           -2.23149560765092        3.59857701172844       -2.37311109005971
H           -2.12580221566489        5.84213752562412       -1.77162538957422
H           -0.63717945534329        6.29243904864873       -0.93166842323687
H           -2.14184247675851        6.15363030668485       -0.03154351376346
H           -0.92652553015844        5.46867598155303        1.95539769060612
H            0.58782013288171        5.60801838604331        1.06995164390227
H            0.43726926314114        4.41888784084613        2.36675202346864
H            0.23332610168786        2.23708244193076        1.65001890768810
H            1.51965134152685        1.65132447532307       -1.84830216475922
H            2.45472480208460        3.46021925016053       -2.93759968011710
H            4.18450458412198        3.67393198953164       -2.63424988900776
H            3.02126331763393        4.76240230268488       -1.88673254646160

          :  Hamiltonian                  GFN2-xTB          :
         :: gradient norm              0.000112534236 Eh/a0 ::
         :: HOMO-LUMO gap              2.051626849956 eV    ::
         :: SCC energy              -126.131688583165 Eh    ::
         :: -> dispersion             -0.129726451949 Eh    ::
         :: -> Gsolv                  -0.047692034650 Eh    ::
         :: repulsion energy           2.319996839123 Eh    ::

    * Orbital Energies and Occupations

         #    Occupation            Energy/Eh            Energy/eV
      -------------------------------------------------------------
         1        2.0000           -0.6530933             -17.7716
       ...           ...                  ...                  ...
       104        2.0000           -0.4053022             -11.0288
       105        2.0000           -0.4015190             -10.9259
       106        2.0000           -0.3983268             -10.8390
       107        2.0000           -0.3974789             -10.8160
       108        2.0000           -0.3928402             -10.6897
       109        2.0000           -0.3906771             -10.6309
       110        2.0000           -0.3861233             -10.5069
       111        2.0000           -0.3850441             -10.4776
       112        2.0000           -0.3819160             -10.3925
       113        2.0000           -0.3768191             -10.2538
       114        2.0000           -0.3702569             -10.0752
       115        2.0000           -0.3641919              -9.9102
       116        2.0000           -0.3310745              -9.0090 (HOMO)
       117                         -0.2556785              -6.9574 (LUMO)
       118                         -0.2445533              -6.6546
       119                         -0.2357990              -6.4164
       120                         -0.2277531              -6.1975
       121                         -0.2243675              -6.1054
       122                         -0.2199711              -5.9857
       123                         -0.2185881              -5.9481
       124                         -0.2141721              -5.8279
       125                         -0.2114276              -5.7532
       126                         -0.2080139              -5.6603
       127                         -0.2060240              -5.6062
       ...                                ...                  ...
       230                          0.7229342              19.6720
      -------------------------------------------------------------
                  HL-Gap            0.0753959 Eh            2.0516 eV

     #   Z          covCN         q      C6AA      α(0)
     1   6 C        3.757    -0.107    22.590     6.776
     2   6 C        2.970     0.004    27.920     8.667
     3   6 C        2.923    -0.044    29.089     8.845
     4   6 C        2.923    -0.040    28.993     8.830
     5   6 C        2.976     0.008    27.843     8.655
     6   6 C        2.984    -0.005    28.129     8.700
     7   6 C        2.986    -0.006    28.169     8.706
     8   6 C        2.978     0.015    27.675     8.629
     9   6 C        2.925    -0.032    28.793     8.800
    10   6 C        2.919    -0.031    28.771     8.796
    11   6 C        2.920    -0.033    28.831     8.805
    12   6 C        2.919    -0.032    28.788     8.799
    13   6 C        2.925    -0.033    28.833     8.806
    14   6 C        2.977    -0.008    28.223     8.714
    15   6 C        2.979     0.013    27.722     8.637
    16   6 C        2.922    -0.036    28.900     8.816
    17   6 C        2.918    -0.031    28.779     8.797
    18   6 C        2.920    -0.034    28.837     8.806
    19   6 C        2.918    -0.032    28.807     8.801
    20   6 C        2.924    -0.037    28.916     8.818
    21   6 C        2.981    -0.017    28.428     8.746
    22   6 C        2.891     0.069    26.458     8.433
    23   7 N        2.643    -0.301    27.753     7.824
    24   6 C        2.926    -0.079    29.974     8.978
    25   6 C        2.979    -0.008    28.222     8.714
    26   6 C        2.980     0.001    28.007     8.681
    27   6 C        2.921    -0.037    28.920     8.819
    28   6 C        2.916    -0.036    28.906     8.816
    29   6 C        2.916    -0.036    28.907     8.817
    30   6 C        2.920    -0.038    28.949     8.823
    31   6 C        2.985    -0.009    28.230     8.716
    32   6 C        2.892     0.064    26.562     8.450
    33   7 N        2.641    -0.295    27.605     7.803
    34   6 C        2.924    -0.075    29.882     8.964
    35   6 C        2.980    -0.006    28.154     8.704
    36   6 C        2.982    -0.005    28.137     8.701
    37   6 C        2.978    -0.004    28.124     8.699
    38   6 C        2.977     0.012    27.752     8.641
    39   6 C        2.924    -0.040    28.982     8.828
    40   6 C        2.922    -0.044    29.099     8.846
    41   6 C        2.970     0.003    27.957     8.673
    42   6 C        3.757    -0.107    22.596     6.777
    43   6 C        2.969     0.004    27.926     8.668
    44   6 C        3.758    -0.106    22.575     6.774
    45   6 C        2.928    -0.046    29.143     8.853
    46   6 C        2.930    -0.044    29.093     8.846
    47   6 C        2.969     0.006    27.886     8.662
    48   6 C        3.758    -0.106    22.570     6.773
    49   1 H        0.925     0.039     2.456     2.451
    50   1 H        0.925     0.047     2.363     2.404
    51   1 H        0.925     0.047     2.355     2.400
    52   1 H        0.925     0.025     2.659     2.550
    53   1 H        0.926     0.019     2.756     2.596
    54   1 H        0.926     0.027     2.633     2.537
    55   1 H        0.926     0.030     2.584     2.514
    56   1 H        0.926     0.030     2.586     2.515
    57   1 H        0.926     0.029     2.600     2.521
    58   1 H        0.926     0.024     2.668     2.554
    59   1 H        0.926     0.031     2.569     2.506
    60   1 H        0.926     0.034     2.531     2.488
    61   1 H        0.926     0.034     2.528     2.486
    62   1 H        0.926     0.034     2.526     2.485
    63   1 H        0.925     0.029     2.600     2.521
    64   1 H        0.860     0.173     1.258     1.757
    65   1 H        0.860     0.160     1.335     1.810
    66   1 H        0.926     0.022     2.707     2.573
    67   1 H        0.926     0.030     2.580     2.512
    68   1 H        0.926     0.026     2.637     2.539
    69   1 H        0.926     0.027     2.634     2.538
    70   1 H        0.926     0.027     2.633     2.538
    71   1 H        0.860     0.160     1.334     1.809
    72   1 H        0.860     0.164     1.312     1.794
    73   1 H        0.926     0.027     2.631     2.537
    74   1 H        0.926     0.020     2.736     2.586
    75   1 H        0.925     0.026     2.647     2.544
    76   1 H        0.925     0.040     2.453     2.449
    77   1 H        0.925     0.047     2.353     2.399
    78   1 H        0.925     0.046     2.370     2.407
    79   1 H        0.925     0.047     2.362     2.404
    80   1 H        0.925     0.047     2.356     2.400
    81   1 H        0.925     0.039     2.469     2.457
    82   1 H        0.926     0.022     2.697     2.568
    83   1 H        0.925     0.021     2.714     2.576
    84   1 H        0.925     0.039     2.468     2.457
    85   1 H        0.925     0.047     2.356     2.401
    86   1 H        0.925     0.047     2.359     2.402

molecular dipole:
                 x           y           z       tot (Debye)
 q only:        0.428       0.776      -0.027
   full:        0.493       0.773      -0.024       2.331

 projected vibrational frequencies (cm⁻¹)
eigval :       -0.00     0.00     0.00     0.00     0.00     0.00
eigval :       14.01    20.42    24.30    28.23    32.90    41.56
eigval :       45.59    46.76    55.34    63.03    64.93    68.63
eigval :       75.19    83.34   108.42   110.69   116.53   119.88
eigval :      128.75   132.11   149.93   166.36   169.53   173.33
eigval :      174.55   189.09   193.38   205.55   206.36   211.26
eigval :      219.74   229.90   236.76   247.91   275.03   280.59
eigval :      300.37   301.80   305.34   310.77   327.68   340.14
eigval :      351.08   370.10   371.93   376.48   380.74   389.94
eigval :      396.46   400.12   413.44   415.63   420.40   428.62
eigval :      455.49   476.30   480.34   490.67   495.01   508.70
eigval :      513.40   519.13   522.94   527.86   544.68   549.44
eigval :      559.77   565.73   573.61   578.09   587.87   592.91
eigval :      599.68   611.22   616.79   624.46   646.95   650.49
eigval :      657.01   667.54   668.70   677.40   688.61   694.83
eigval :      716.11   720.22   726.39   734.07   759.19   760.41
eigval :      766.46   774.51   784.23   785.36   789.75   810.22
eigval :      823.94   825.78   840.20   855.63   861.14   862.33
eigval :      875.93   879.05   886.44   889.93   892.56   900.00
eigval :      903.70   903.89   917.33   918.47   919.83   926.91
eigval :      929.63   930.09   932.18   944.58   966.47   986.69
eigval :      993.77  1008.98  1010.79  1013.18  1015.11  1021.09
eigval :     1023.41  1033.04  1033.61  1033.89  1044.95  1065.49
eigval :     1081.53  1083.24  1094.64  1105.10  1113.66  1116.49
eigval :     1119.93  1133.12  1137.38  1153.52  1178.69  1179.22
eigval :     1181.32  1186.88  1188.78  1194.33  1198.68  1200.48
eigval :     1207.41  1225.00  1234.20  1248.91  1250.26  1266.80
eigval :     1270.41  1271.71  1277.44  1278.30  1282.64  1286.67
eigval :     1303.83  1308.02  1313.60  1315.06  1316.31  1321.05
eigval :     1328.71  1368.91  1381.34  1387.26  1394.23  1395.45
eigval :     1398.59  1399.38  1405.50  1407.11  1410.14  1420.41
eigval :     1423.56  1427.32  1428.21  1431.78  1466.17  1471.28
eigval :     1472.20  1472.38  1477.93  1478.69  1480.69  1484.72
eigval :     1485.01  1486.28  1489.05  1490.32  1491.20  1500.34
eigval :     1502.01  1503.34  1520.74  1533.16  1540.76  1569.09
eigval :     1573.76  1574.50  1575.60  1583.20  1588.43  1596.05
eigval :     1601.87  1602.44  1606.02  1609.07  2992.86  2993.60
eigval :     2995.62  2995.87  3007.01  3007.63  3012.11  3012.19
eigval :     3040.17  3040.53  3041.47  3041.95  3057.63  3057.97
eigval :     3065.08  3065.13  3065.93  3066.33  3067.05  3069.34
eigval :     3071.50  3073.02  3073.96  3075.29  3075.95  3078.05
eigval :     3078.56  3082.85  3085.77  3086.09  3087.45  3093.61
eigval :     3103.18  3117.93  3446.79  3456.57  3493.66  3514.16

   temp. (K)  partition function   enthalpy   heat capacity  entropy
                                   cal/mol     cal/K/mol   cal/K/mol   J/K/mol
 298.15  VIB  0.356E+19            25073.350    156.521    155.283
         ROT  0.639E+08              888.752      2.981     38.698
         INT  0.227E+27            25962.103    159.502    193.981
         TR   0.149E+29             1481.254      4.968     45.130
         TOT                       27443.3567   164.4700   239.1112  1000.4412

       T/K    H(0)-H(T)+PV         H(T)/Eh          T*S/Eh         G(T)/Eh
   ------------------------------------------------------------------------
    298.15    0.437338E-01    0.730151E+00    0.113609E+00    0.616541E+00
   ------------------------------------------------------------------------

         :::::::::::::::::::::::::::::::::::::::::::::::::::::
         ::                  THERMODYNAMIC                  ::
         :::::::::::::::::::::::::::::::::::::::::::::::::::::
         :: total free energy        -123.195150580416 Eh   ::
         ::.................................................::
         :: total energy             -123.811691743363 Eh   ::
         :: zero point energy           0.686416824529 Eh   ::
         :: G(RRHO) w/o ZPVE           -0.069875661582 Eh   ::
         :: G(RRHO) contrib.            0.616541162947 Eh   ::
         :::::::::::::::::::::::::::::::::::::::::::::::::::::

           -------------------------------------------------
          | TOTAL ENERGY             -123.811691743363 Eh   |
          | TOTAL ENTHALPY           -123.081541146094 Eh   |
          | TOTAL FREE ENERGY        -123.195150580416 Eh   |
          | GRADIENT NORM               0.000112519765 Eh/α |
          | HOMO-LUMO GAP               2.051627242560 eV   |
           -------------------------------------------------

 * finished run on 2025/08/24 at 23:31:21.910
