   * xtb version 6.7.1 (edcfbbe) compiled by 'albert@albert-system' on 2024-07-22

   ID    Z sym.   atoms
    1    6 C      1-22, 24-32, 34-48
    2    7 N      23, 33
    3    1 H      49-86

          program call               : xtb data2507/toluene/DMTAC/DMTAC_toluene_T1_crest.xyz --gfn 2 --uhf 2 --gbsa toluene --ohess vtight --parallel 40 --molden --ceasefiles --namespace data2507/toluene/DMTAC/DMTAC_toluene_T1_finalOpt
      * Solvation model:               GBSA
        Solvent                        toluene
        Solvent mass                       9.2140E+01 g/mol
          :  Hamiltonian                  GFN2-xTB          :
 * total energy  :  -123.7416817 Eh     change       -0.8253451E-08 Eh
 * total energy  :  -123.7417532 Eh     change       -0.7151819E-04 Eh
 * total energy  :  -123.7418206 Eh     change       -0.6734437E-04 Eh
 * total energy  :  -123.7418452 Eh     change       -0.2465639E-04 Eh
 * total energy  :  -123.7419051 Eh     change       -0.5986294E-04 Eh
 * total energy  :  -123.7419160 Eh     change       -0.1089278E-04 Eh
 * total energy  :  -123.7419311 Eh     change       -0.1509497E-04 Eh
 * total energy  :  -123.7419355 Eh     change       -0.4445192E-05 Eh
 * total energy  :  -123.7419410 Eh     change       -0.5505991E-05 Eh
 * total energy  :  -123.7419445 Eh     change       -0.3441412E-05 Eh
 * total energy  :  -123.7419650 Eh     change       -0.2117003E-06 Eh
 * total energy  :  -123.7419657 Eh     change       -0.6298374E-06 Eh
 * total energy  :  -123.7419659 Eh     change       -0.2036050E-06 Eh
 * total energy  :  -123.7419663 Eh     change       -0.4581649E-06 Eh
 * total energy  :  -123.7419667 Eh     change       -0.4024885E-06 Eh
 * total energy  :  -123.7419670 Eh     change       -0.2148987E-06 Eh
 * total energy  :  -123.7419672 Eh     change       -0.2163373E-06 Eh
 * total energy  :  -123.7419674 Eh     change       -0.1774076E-06 Eh
 * total energy  :  -123.7419674 Eh     change       -0.3022201E-07 Eh
   *** GEOMETRY OPTIMIZATION CONVERGED AFTER 30 ITERATIONS ***

 final structure:
================
86
 xtb: 6.7.1 (edcfbbe)
C            4.40206644034475        5.18321300912189       -0.10491731001764
C            3.58584172752644        3.92608686938159       -0.09843489504491
C            3.73781335316618        2.99481676440816        0.91994412454003
C            2.99249460104312        1.83228738534992        0.95113634399535
C            2.06505963817531        1.56781253987702       -0.05147049216089
C            1.24583343024294        0.34363847563608       -0.03749306230547
C            1.84847458779428       -0.90941687340350       -0.00850667905389
C            3.32126304282745       -1.00277203321371        0.10007299174250
C            4.13956837806181       -0.46981869557832       -0.89103386755463
C            5.51573634404131       -0.55046816370826       -0.78437756466373
C            6.09410772762706       -1.16048163667857        0.31614796907293
C            5.28767806662786       -1.68946241472885        1.31011788810969
C            3.91144837216347       -1.61320760580834        1.20227379626314
C            1.07969601084750       -2.08013796712842       -0.09119070266824
C            1.75899590490492       -3.37641988590575        0.03076245213668
C            2.81245207168762       -3.73789249247229       -0.81426379070011
C            3.47062261646854       -4.94060701658046       -0.64488533525261
C            3.09963938818532       -5.80509584074373        0.37355289294500
C            2.05580446882810       -5.45896533454348        1.21940614938664
C            1.39094101991799       -4.26140843073637        1.05117523293435
C           -0.33857566444368       -1.98404375736548       -0.21026612384926
C           -1.17181768620816       -3.04744766455362       -0.63263729998993
N           -0.68445588770314       -4.26660835005792       -1.02689711000722
C           -2.57802338088497       -2.87055667830401       -0.72776156904150
C           -3.20530008738314       -1.72473798909239       -0.31412113700460
C           -4.64936726468846       -1.55532012713304       -0.31629204343387
C           -5.48411199404681       -2.38864850735281       -1.05443896009690
C           -6.86509468487516       -2.24789239077726       -1.02502842080689
C           -7.43747739932893       -1.25820662967536       -0.24371183169693
C           -6.63524633022541       -0.40054452998729        0.48104817018934
C           -5.23232674114477       -0.51275394970380        0.45388331454423
C           -4.37516427489640        0.37873914727698        1.16541502350247
N           -4.87386477899052        1.33889381219520        2.01058415642230
C           -2.98314939273013        0.28840139255763        1.01271182017731
C           -2.38731399532227       -0.66577059068702        0.22100528158308
C           -0.95032134989423       -0.71047673422240       -0.00098278837913
C           -0.17110629110765        0.44233299291526       -0.00595989450830
C           -0.77847776696424        1.78496681300355       -0.05101401001834
C           -1.67242791576344        2.11353235097761       -1.06680013741211
C           -2.19600684197133        3.38827617828899       -1.14845470132975
C           -1.84677729037122        4.37503801173102       -0.23458630815812
C           -2.41764937974252        5.75592629082995       -0.35411252109006
C           -0.95054547148084        4.05645519726114        0.79052003449140
C           -0.53801124250181        5.08979093066375        1.79530783430754
C           -0.43389262192023        2.77297406596362        0.86764726277719
C            1.91597225528425        2.50080503001758       -1.07403879841238
C            2.65649124083704        3.67025467802764       -1.11212472944593
C            2.45273163386993        4.64984824361765       -2.22848677597520
H            4.99029950707683        5.25501411305564       -1.01953067580999
H            3.75705136839003        6.06068253726479       -0.05749927458233
H            5.07985859617168        5.20569629098039        0.74505540658290
H            4.45140818287410        3.18552124916323        1.71042445529931
H            3.11772153239456        1.13299013212201        1.76549714664480
H            3.68997628029762        0.00412970809751       -1.75231448510534
H            6.13940329440843       -0.13512658779916       -1.56337403120494
H            7.16968164999212       -1.22289530605148        0.39936037154285
H            5.73241423599266       -2.16439057226413        2.17331303717298
H            3.28413624953759       -2.02180327387166        1.98213560961663
H            3.10132803651842       -3.07272670354345       -1.61537305918958
H            4.28057969723206       -5.20458203239903       -1.31009566579204
H            3.62150750376036       -6.74104755103944        0.50849358715813
H            1.76660372233734       -6.12509535960629        2.01984065118746
H            0.58349174074614       -3.98742598346285        1.71534747278704
H            0.30130843769269       -4.34902163821366       -1.21453697149280
H           -1.30215638411994       -4.84783499035998       -1.56990932316749
H           -3.14745003468974       -3.70910220924472       -1.09888465559393
H           -5.05770585880954       -3.15801201443259       -1.67932121938941
H           -7.48642561693853       -2.91126541865362       -1.60842861323083
H           -8.51207047187473       -1.15010732852106       -0.20518816433252
H           -7.10718570570059        0.36450961623220        1.07954008232326
H           -4.23092787643094        2.06195778749873        2.29162495799223
H           -5.82938362717625        1.63151487345729        1.89294427623987
H           -2.37451580395434        1.00972332939553        1.53537974037461
H           -1.94786959586304        1.36472972738486       -1.79648318993774
H           -2.88517919800427        3.62663804030352       -1.94751447543393
H           -2.94691115029232        6.03677401410555        0.55628644886279
H           -3.11047759758165        5.81437336587315       -1.19009356261728
H           -1.62340004923726        6.48576048754224       -0.51123791969734
H            0.17120620224249        4.67133533715026        2.50535518918745
H           -1.40174366130462        5.46609732548348        2.34360004556559
H           -0.06741481268883        5.93719986668688        1.29780838756906
H            0.25062280562428        2.52769452461104        1.66794509163433
H            1.20403248968371        2.30044333411724       -1.86325008619409
H            1.67632228008384        4.30207600249957       -2.90566842844703
H            3.37417327330597        4.78721300167474       -2.79434053174528
H            2.15771933611871        5.62200915539924       -1.83473755572702

          :  Hamiltonian                  GFN2-xTB          :
         :: gradient norm              0.000125792559 Eh/a0 ::
         :: HOMO-LUMO gap              0.613885641036 eV    ::
         :: SCC energy              -126.050031323512 Eh    ::
         :: -> dispersion             -0.129819783228 Eh    ::
         :: -> Gsolv                  -0.047364547611 Eh    ::
         :: repulsion energy           2.308063942552 Eh    ::

    * Orbital Energies and Occupations

         #    Occupation            Energy/Eh            Energy/eV
      -------------------------------------------------------------
         1        2.0000           -0.6542752             -17.8037
       ...           ...                  ...                  ...
       105        2.0000           -0.3995917             -10.8734
       106        2.0000           -0.3979515             -10.8288
       107        2.0000           -0.3950380             -10.7495
       108        2.0000           -0.3919232             -10.6648
       109        2.0000           -0.3880775             -10.5601
       110        2.0000           -0.3851547             -10.4806
       111        2.0000           -0.3829350             -10.4202
       112        2.0000           -0.3808739             -10.3641
       113        2.0000           -0.3778097             -10.2807
       114        2.0000           -0.3668305              -9.9820
       115        2.0000           -0.3622164              -9.8564
       116        1.0000           -0.3271660              -8.9026
       117        1.0000           -0.2643688              -7.1938 (HOMO)
       118        0.0000           -0.2418090              -6.5800 (LUMO)
       119                         -0.2371469              -6.4531
       120                         -0.2203347              -5.9956
       121                         -0.2182835              -5.9398
       122                         -0.2170574              -5.9064
       123                         -0.2135111              -5.8099
       124                         -0.2111719              -5.7463
       125                         -0.2098643              -5.7107
       126                         -0.2051897              -5.5835
       127                         -0.2048192              -5.5734
       128                         -0.1873304              -5.0975
       ...                                ...                  ...
       230                          0.7353244              20.0092
      -------------------------------------------------------------
                  HL-Gap            0.0225599 Eh            0.6139 eV

     #   Z          covCN         q      C6AA      α(0)
     1   6 C        3.757    -0.106    22.568     6.773
     2   6 C        2.970     0.002    27.976     8.676
     3   6 C        2.922    -0.045    29.110     8.848
     4   6 C        2.923    -0.041    29.029     8.836
     5   6 C        2.975     0.007    27.850     8.656
     6   6 C        2.979    -0.013    28.336     8.732
     7   6 C        2.978    -0.006    28.170     8.706
     8   6 C        2.978     0.016    27.638     8.624
     9   6 C        2.925    -0.033    28.814     8.803
    10   6 C        2.919    -0.032    28.792     8.799
    11   6 C        2.920    -0.034    28.854     8.809
    12   6 C        2.919    -0.032    28.799     8.800
    13   6 C        2.925    -0.032    28.807     8.802
    14   6 C        2.974    -0.024    28.595     8.771
    15   6 C        2.975     0.006    27.878     8.661
    16   6 C        2.922    -0.042    29.049     8.839
    17   6 C        2.917    -0.035    28.867     8.810
    18   6 C        2.919    -0.039    28.981     8.828
    19   6 C        2.917    -0.033    28.834     8.805
    20   6 C        2.924    -0.038    28.940     8.822
    21   6 C        2.976    -0.022    28.539     8.763
    22   6 C        2.893     0.066    26.519     8.443
    23   7 N        2.643    -0.257    26.667     7.669
    24   6 C        2.922    -0.067    29.656     8.930
    25   6 C        2.974    -0.002    28.076     8.691
    26   6 C        2.979     0.003    27.958     8.673
    27   6 C        2.921    -0.042    29.044     8.838
    28   6 C        2.916    -0.040    28.996     8.830
    29   6 C        2.914    -0.034    28.858     8.809
    30   6 C        2.920    -0.047    29.158     8.855
    31   6 C        2.979    -0.008    28.218     8.714
    32   6 C        2.893     0.064    26.573     8.452
    33   7 N        2.641    -0.250    26.515     7.648
    34   6 C        2.920    -0.063    29.558     8.916
    35   6 C        2.979     0.000    28.014     8.682
    36   6 C        2.982    -0.005    28.135     8.701
    37   6 C        2.976    -0.015    28.373     8.737
    38   6 C        2.974     0.009    27.814     8.651
    39   6 C        2.924    -0.042    29.042     8.838
    40   6 C        2.922    -0.046    29.133     8.851
    41   6 C        2.970     0.000    28.022     8.683
    42   6 C        3.757    -0.106    22.581     6.775
    43   6 C        2.968     0.003    27.957     8.673
    44   6 C        3.758    -0.105    22.558     6.771
    45   6 C        2.929    -0.047    29.168     8.857
    46   6 C        2.930    -0.045    29.112     8.849
    47   6 C        2.969     0.004    27.927     8.668
    48   6 C        3.758    -0.105    22.549     6.770
    49   1 H        0.925     0.045     2.385     2.415
    50   1 H        0.925     0.046     2.376     2.410
    51   1 H        0.925     0.038     2.475     2.460
    52   1 H        0.925     0.022     2.708     2.573
    53   1 H        0.926     0.016     2.795     2.615
    54   1 H        0.926     0.024     2.676     2.558
    55   1 H        0.926     0.027     2.626     2.534
    56   1 H        0.926     0.028     2.621     2.532
    57   1 H        0.926     0.027     2.633     2.538
    58   1 H        0.926     0.023     2.682     2.561
    59   1 H        0.926     0.021     2.723     2.581
    60   1 H        0.926     0.024     2.676     2.558
    61   1 H        0.926     0.025     2.653     2.547
    62   1 H        0.926     0.028     2.615     2.529
    63   1 H        0.926     0.027     2.623     2.533
    64   1 H        0.860     0.179     1.219     1.729
    65   1 H        0.860     0.174     1.251     1.752
    66   1 H        0.926     0.031     2.577     2.511
    67   1 H        0.926     0.028     2.620     2.531
    68   1 H        0.926     0.025     2.663     2.552
    69   1 H        0.926     0.026     2.648     2.545
    70   1 H        0.926     0.023     2.685     2.562
    71   1 H        0.860     0.174     1.247     1.749
    72   1 H        0.860     0.176     1.238     1.743
    73   1 H        0.926     0.032     2.557     2.500
    74   1 H        0.926     0.017     2.785     2.610
    75   1 H        0.925     0.023     2.688     2.564
    76   1 H        0.925     0.045     2.384     2.415
    77   1 H        0.925     0.038     2.470     2.458
    78   1 H        0.925     0.045     2.383     2.414
    79   1 H        0.925     0.037     2.489     2.467
    80   1 H        0.925     0.045     2.378     2.412
    81   1 H        0.925     0.045     2.383     2.414
    82   1 H        0.925     0.020     2.736     2.586
    83   1 H        0.925     0.020     2.735     2.586
    84   1 H        0.925     0.037     2.485     2.465
    85   1 H        0.925     0.045     2.382     2.413
    86   1 H        0.925     0.045     2.379     2.412

molecular dipole:
                 x           y           z       tot (Debye)
 q only:       -1.049       0.801       0.056
   full:       -0.931       0.946      -0.165       3.398

 projected vibrational frequencies (cm⁻¹)
eigval :       -0.00    -0.00     0.00     0.00     0.00     0.00
eigval :       15.34    22.31    26.44    29.07    32.44    41.17
eigval :       45.92    47.44    56.86    61.08    65.70    74.31
eigval :       79.25    91.11   104.49   105.05   111.45   116.34
eigval :      130.01   132.90   151.41   161.98   167.37   168.28
eigval :      171.63   187.07   191.19   200.94   205.83   210.86
eigval :      221.87   232.62   235.87   250.67   267.78   283.34
eigval :      299.58   300.49   310.18   318.13   326.53   344.86
eigval :      349.48   373.16   375.26   375.74   382.31   391.12
eigval :      398.82   407.68   414.32   417.46   417.68   427.82
eigval :      447.99   458.58   470.55   477.83   484.87   491.08
eigval :      497.61   503.46   506.30   513.89   518.60   528.52
eigval :      543.46   552.04   555.35   564.31   569.83   584.32
eigval :      588.46   597.27   604.25   608.08   619.15   630.35
eigval :      649.80   658.56   663.62   671.86   675.69   689.81
eigval :      701.86   711.94   715.92   725.94   748.59   755.50
eigval :      756.33   770.31   783.28   784.74   787.38   799.31
eigval :      824.44   825.38   828.86   836.23   847.98   856.49
eigval :      874.60   877.23   882.38   885.74   888.17   890.35
eigval :      897.19   898.19   907.68   917.52   919.39   926.84
eigval :      927.42   928.06   929.68   938.00   963.35   980.76
eigval :      990.32   998.95  1004.72  1008.27  1010.55  1015.52
eigval :     1018.92  1021.79  1023.56  1033.37  1033.96  1054.49
eigval :     1080.41  1082.53  1090.13  1100.50  1112.68  1118.29
eigval :     1120.20  1130.73  1135.67  1145.98  1168.44  1174.93
eigval :     1178.47  1179.71  1185.90  1193.83  1196.83  1198.44
eigval :     1204.15  1223.92  1232.76  1244.34  1245.74  1253.11
eigval :     1262.30  1272.22  1272.98  1276.75  1280.92  1284.73
eigval :     1288.55  1305.31  1313.30  1315.69  1317.19  1320.37
eigval :     1321.57  1353.43  1361.81  1374.30  1379.77  1385.61
eigval :     1397.93  1398.55  1401.44  1404.91  1406.12  1407.69
eigval :     1412.35  1416.49  1420.86  1426.12  1431.57  1441.68
eigval :     1446.37  1465.05  1469.65  1471.17  1471.78  1474.69
eigval :     1478.79  1479.42  1484.85  1485.37  1485.77  1490.18
eigval :     1491.59  1492.30  1499.35  1501.55  1527.62  1534.30
eigval :     1539.03  1553.80  1563.86  1565.70  1570.32  1580.87
eigval :     1583.18  1599.71  1601.22  1603.60  2991.21  2991.74
eigval :     2994.01  2994.67  3006.00  3006.23  3011.35  3011.76
eigval :     3037.76  3038.84  3039.11  3040.30  3053.97  3054.82
eigval :     3062.27  3063.35  3064.06  3065.04  3065.50  3065.93
eigval :     3068.13  3071.89  3072.15  3073.35  3075.65  3076.12
eigval :     3077.05  3079.58  3080.33  3083.29  3085.28  3088.40
eigval :     3094.57  3097.82  3436.98  3452.78  3504.09  3510.30

   temp. (K)  partition function   enthalpy   heat capacity  entropy
                                   cal/mol     cal/K/mol   cal/K/mol   J/K/mol
 298.15  VIB  0.311E+19            25280.778    158.174    156.195
         ROT  0.639E+08              888.752      2.981     38.698
         INT  0.199E+27            26169.531    161.155    194.893
         TR   0.149E+29             1481.254      4.968     45.130
         TOT                       27650.7846   166.1227   240.0236  1004.2586

       T/K    H(0)-H(T)+PV         H(T)/Eh          T*S/Eh         G(T)/Eh
   ------------------------------------------------------------------------
    298.15    0.440643E-01    0.727077E+00    0.114043E+00    0.613034E+00
   ------------------------------------------------------------------------

         :::::::::::::::::::::::::::::::::::::::::::::::::::::
         ::                  THERMODYNAMIC                  ::
         :::::::::::::::::::::::::::::::::::::::::::::::::::::
         :: total free energy        -123.128933289404 Eh   ::
         ::.................................................::
         :: total energy             -123.741967381393 Eh   ::
         :: zero point energy           0.683012703113 Eh   ::
         :: G(RRHO) w/o ZPVE           -0.069978611124 Eh   ::
         :: G(RRHO) contrib.            0.613034091989 Eh   ::
         :::::::::::::::::::::::::::::::::::::::::::::::::::::

           -------------------------------------------------
          | TOTAL ENERGY             -123.741967381393 Eh   |
          | TOTAL ENTHALPY           -123.014890348284 Eh   |
          | TOTAL FREE ENERGY        -123.128933289404 Eh   |
          | GRADIENT NORM               0.000125918571 Eh/α |
          | HOMO-LUMO GAP               0.613884797475 eV   |
           -------------------------------------------------

 * finished run on 2025/08/24 at 23:40:43.186
