   * xtb version 6.7.1 (edcfbbe) compiled by 'albert@albert-system' on 2024-07-22

   ID    Z sym.   atoms
    1    6 C      1-22, 24-32, 34-48
    2    7 N      23, 33
    3    1 H      49-86

          program call               : xtb data2507/toluene/DMTAC/DMTAC_toluene_S0_crest.xyz --gfn 2 --gbsa toluene --ohess vtight --parallel 40 --molden --ceasefiles --namespace data2507/toluene/DMTAC/DMTAC_toluene_S0_finalOpt
      * Solvation model:               GBSA
        Solvent                        toluene
        Solvent mass                       9.2140E+01 g/mol
          :  Hamiltonian                  GFN2-xTB          :
 * total energy  :  -123.8121322 Eh     change       -0.2323006E-08 Eh
 * total energy  :  -123.8121825 Eh     change       -0.5026132E-04 Eh
 * total energy  :  -123.8122212 Eh     change       -0.3864264E-04 Eh
 * total energy  :  -123.8122434 Eh     change       -0.2222520E-04 Eh
 * total energy  :  -123.8122810 Eh     change       -0.3763454E-04 Eh
 * total energy  :  -123.8122925 Eh     change       -0.1152165E-04 Eh
 * total energy  :  -123.8122979 Eh     change       -0.5328488E-05 Eh
 * total energy  :  -123.8123011 Eh     change       -0.3212762E-05 Eh
 * total energy  :  -123.8123041 Eh     change       -0.2983413E-05 Eh
 * total energy  :  -123.8123064 Eh     change       -0.2295619E-05 Eh
 * total energy  :  -123.8123107 Eh     change       -0.6790088E-06 Eh
 * total energy  :  -123.8123112 Eh     change       -0.4274690E-06 Eh
 * total energy  :  -123.8123115 Eh     change       -0.3327331E-06 Eh
 * total energy  :  -123.8123118 Eh     change       -0.3205122E-06 Eh
 * total energy  :  -123.8123121 Eh     change       -0.3191441E-06 Eh
 * total energy  :  -123.8123124 Eh     change       -0.2766442E-06 Eh
 * total energy  :  -123.8123126 Eh     change       -0.1990787E-06 Eh
 * total energy  :  -123.8123127 Eh     change       -0.1129722E-06 Eh
 * total energy  :  -123.8123127 Eh     change       -0.4231723E-08 Eh
   *** GEOMETRY OPTIMIZATION CONVERGED AFTER 22 ITERATIONS ***

 final structure:
================
86
 xtb: 6.7.1 (edcfbbe)
C            4.60301187863482        4.98292751982415        0.04727429281792
C            3.72235298755544        3.77041755783592        0.03320612315403
C            3.74724622280623        2.87264431305695        1.09126861163884
C            2.93908976192182        1.75167990670739        1.10382978187399
C            2.07792611771003        1.50251816146507        0.04300286711693
C            1.19544873528113        0.31553349348713        0.04313456786744
C            1.77047346454604       -0.96798949541836        0.06090597225370
C            3.23793715653824       -1.10720404211418        0.19617035253533
C            4.09052893515394       -0.59981179501700       -0.77847247473571
C            5.46089311412836       -0.73029207155580       -0.64871977114223
C            5.99797472028531       -1.36465220553571        0.45881367014434
C            5.15659411121317       -1.86805757719134        1.43662818800968
C            3.78585236475251       -1.74146367510262        1.30597611312882
C            0.97392898785045       -2.09034010507145       -0.09559798399380
C            1.66105894683213       -3.40206493640670       -0.07458304150147
C            2.58497291141808       -3.74608886510137       -1.05806015279936
C            3.27324987724941       -4.94392525971900       -0.98462838370501
C            3.05514994808430       -5.80756329368083        0.07569865704310
C            2.13931246515038       -5.47198069044512        1.05981628884125
C            1.44592012734052       -4.27852566007837        0.98647206945271
C           -0.43180188918755       -1.95877722239938       -0.21148306257272
C           -1.29678186265854       -3.03378227574453       -0.61002625576378
N           -0.80071981607524       -4.28093455486807       -0.95080459815724
C           -2.65296980864898       -2.83634586895456       -0.66091547722644
C           -3.27098741629750       -1.65393829173004       -0.20857143345138
C           -4.70063826304985       -1.50292422206683       -0.14818143334255
C           -5.58437992931366       -2.46603735677701       -0.66790621908140
C           -6.94440483052774       -2.29270876651393       -0.63780089756231
C           -7.49140143569144       -1.13361544400890       -0.08550643316860
C           -6.66177640247067       -0.17745003109827        0.43903895819630
C           -5.26482452620458       -0.33896892867006        0.43364414962097
C           -4.39159467639860        0.63350512645930        1.01693134114496
N           -4.91453257525263        1.74113083566640        1.67174732043567
C           -3.03739060106306        0.50145708852317        0.87172865302188
C           -2.44775280595035       -0.58950056861045        0.19931247768585
C           -1.02185278371378       -0.68566914255277        0.01419500729207
C           -0.18423886498393        0.45681055601650        0.03588871362487
C           -0.72850189976852        1.82606899189963       -0.08525278361425
C           -1.51916142721925        2.15814707047722       -1.18013142348849
C           -1.96404201772705        3.45536768187752       -1.34557420958441
C           -1.63422365349335        4.45471182193304       -0.44006244463606
C           -2.12100591913032        5.85672201858388       -0.64778880183022
C           -0.83953318602795        4.13022524696985        0.66412998721371
C           -0.45110418488301        5.17874127302719        1.66221800107386
C           -0.40115491499391        2.82559292437478        0.82500921653974
C            2.05810390232952        2.39594033542028       -1.02144588938311
C            2.86139128737326        3.52462572742013       -1.04119430244693
C            2.79452755234512        4.47144168583050       -2.20098241496851
H            5.27197057130722        4.98173801493351       -0.81302433427807
H            4.00458427223055        5.89246680091386       -0.00094554540339
H            5.20408978403095        5.01124019291121        0.95284347618616
H            4.41051298547949        3.05490639544209        1.92593300072406
H            2.96684242343097        1.07400273900171        1.94528714630583
H            3.67396105146958       -0.10624103413603       -1.64500607168054
H            6.11208823873103       -0.33438618304283       -1.41498074629103
H            7.06895725182776       -1.46562798829018        0.56017218834328
H            5.56909495456904       -2.36134303943870        2.30530313536123
H            3.13129941125857       -2.13063866902191        2.07287097972128
H            2.75752230036710       -3.07134268769889       -1.88474979805449
H            3.98627762706898       -5.19989219995755       -1.75502084723431
H            3.59887838525368       -6.73892794363061        0.13584122260683
H            1.96842501287471       -6.14175046756658        1.89007933697577
H            0.73252512859870       -4.01248298866444        1.75309369581596
H            0.13093630025955       -4.31376209928088       -1.32994481982469
H           -1.46223945670273       -4.87378792180436       -1.42809473988326
H           -3.25747046788850       -3.65687334175287       -1.01613702134307
H           -5.19363643681253       -3.36329826701421       -1.12109701439163
H           -7.59526557401406       -3.04940763273830       -1.05218322649013
H           -8.56248578013367       -0.99165473243528       -0.07839754372590
H           -7.08840477157439        0.72928291128454        0.84159796163825
H           -4.22876090202326        2.26741471563627        2.19260092418874
H           -5.76745257230563        1.58710371631023        2.18658711961308
H           -2.40334118949225        1.23924277262971        1.33552663930880
H           -1.77928470547860        1.39690682871087       -1.90215966020319
H           -2.57738991468712        3.69810539737474       -2.20248664762223
H           -2.73095391544984        6.18076637752787        0.19520306449400
H           -2.71856207596198        5.92564399219379       -1.55336557647559
H           -1.28119153927126        6.54612838689729       -0.73205472903174
H            0.16621625844117        4.75036010500080        2.44812435802841
H           -1.33447044612021        5.62813534618290        2.11547283845188
H            0.11296342877621        5.97461916339617        1.17684700293592
H            0.20323986398374        2.57342364417743        1.68561487790555
H            1.39557153145715        2.20255196868276       -1.85411640685156
H            2.06461703632830        4.13139077783156       -2.93151098553431
H            3.76561846665251        4.55396218105518       -2.68878464723510
H            2.50752410315048        5.46708087145468       -1.86415083452326

          :  Hamiltonian                  GFN2-xTB          :
         :: gradient norm              0.000045507703 Eh/a0 ::
         :: HOMO-LUMO gap              2.069788244312 eV    ::
         :: SCC energy              -126.132949927568 Eh    ::
         :: -> dispersion             -0.129921845996 Eh    ::
         :: -> Gsolv                  -0.047441336962 Eh    ::
         :: repulsion energy           2.320637192703 Eh    ::

    * Orbital Energies and Occupations

         #    Occupation            Energy/Eh            Energy/eV
      -------------------------------------------------------------
         1        2.0000           -0.6514480             -17.7268
       ...           ...                  ...                  ...
       104        2.0000           -0.4035789             -10.9819
       105        2.0000           -0.4014203             -10.9232
       106        2.0000           -0.3978553             -10.8262
       107        2.0000           -0.3968093             -10.7977
       108        2.0000           -0.3919858             -10.6665
       109        2.0000           -0.3896392             -10.6026
       110        2.0000           -0.3852075             -10.4820
       111        2.0000           -0.3843865             -10.4597
       112        2.0000           -0.3814011             -10.3785
       113        2.0000           -0.3768285             -10.2540
       114        2.0000           -0.3701870             -10.0733
       115        2.0000           -0.3633519              -9.8873
       116        2.0000           -0.3325079              -9.0480 (HOMO)
       117                         -0.2564446              -6.9782 (LUMO)
       118                         -0.2446288              -6.6567
       119                         -0.2348804              -6.3914
       120                         -0.2241636              -6.0998
       121                         -0.2212460              -6.0204
       122                         -0.2192902              -5.9672
       123                         -0.2171558              -5.9091
       124                         -0.2126861              -5.7875
       125                         -0.2107670              -5.7353
       126                         -0.2069677              -5.6319
       127                         -0.2050557              -5.5798
       ...                                ...                  ...
       230                          0.7224408              19.6586
      -------------------------------------------------------------
                  HL-Gap            0.0760633 Eh            2.0698 eV

     #   Z          covCN         q      C6AA      α(0)
     1   6 C        3.757    -0.107    22.590     6.776
     2   6 C        2.970     0.004    27.919     8.667
     3   6 C        2.923    -0.044    29.090     8.845
     4   6 C        2.923    -0.040    28.993     8.830
     5   6 C        2.976     0.008    27.843     8.655
     6   6 C        2.983    -0.005    28.133     8.700
     7   6 C        2.985    -0.006    28.172     8.707
     8   6 C        2.978     0.015    27.670     8.629
     9   6 C        2.925    -0.032    28.797     8.800
    10   6 C        2.919    -0.031    28.776     8.797
    11   6 C        2.920    -0.033    28.831     8.805
    12   6 C        2.919    -0.031    28.785     8.798
    13   6 C        2.925    -0.033    28.826     8.805
    14   6 C        2.977    -0.008    28.223     8.714
    15   6 C        2.979     0.014    27.695     8.632
    16   6 C        2.923    -0.039    28.979     8.828
    17   6 C        2.918    -0.033    28.818     8.803
    18   6 C        2.920    -0.034    28.836     8.806
    19   6 C        2.918    -0.030    28.755     8.793
    20   6 C        2.924    -0.030    28.757     8.794
    21   6 C        2.981    -0.017    28.421     8.745
    22   6 C        2.891     0.069    26.465     8.434
    23   7 N        2.642    -0.297    27.663     7.811
    24   6 C        2.925    -0.079    29.963     8.977
    25   6 C        2.979    -0.008    28.224     8.714
    26   6 C        2.980     0.001    28.011     8.682
    27   6 C        2.921    -0.037    28.918     8.819
    28   6 C        2.916    -0.036    28.903     8.816
    29   6 C        2.916    -0.036    28.902     8.816
    30   6 C        2.920    -0.039    28.974     8.827
    31   6 C        2.987    -0.009    28.231     8.716
    32   6 C        2.893     0.064    26.559     8.450
    33   7 N        2.640    -0.294    27.575     7.799
    34   6 C        2.923    -0.075    29.864     8.962
    35   6 C        2.981    -0.005    28.139     8.701
    36   6 C        2.982    -0.006    28.156     8.704
    37   6 C        2.978    -0.004    28.124     8.699
    38   6 C        2.977     0.011    27.762     8.643
    39   6 C        2.924    -0.038    28.954     8.824
    40   6 C        2.923    -0.043    29.058     8.840
    41   6 C        2.970     0.005    27.918     8.667
    42   6 C        3.757    -0.107    22.602     6.778
    43   6 C        2.969     0.005    27.918     8.667
    44   6 C        3.758    -0.106    22.575     6.774
    45   6 C        2.928    -0.046    29.146     8.854
    46   6 C        2.930    -0.044    29.092     8.846
    47   6 C        2.969     0.006    27.886     8.662
    48   6 C        3.758    -0.106    22.570     6.773
    49   1 H        0.925     0.046     2.364     2.405
    50   1 H        0.925     0.047     2.353     2.399
    51   1 H        0.925     0.039     2.457     2.451
    52   1 H        0.925     0.025     2.661     2.551
    53   1 H        0.926     0.018     2.757     2.596
    54   1 H        0.926     0.026     2.646     2.544
    55   1 H        0.926     0.030     2.593     2.518
    56   1 H        0.926     0.030     2.590     2.517
    57   1 H        0.926     0.029     2.598     2.521
    58   1 H        0.926     0.025     2.655     2.548
    59   1 H        0.926     0.025     2.660     2.550
    60   1 H        0.926     0.030     2.580     2.512
    61   1 H        0.926     0.032     2.554     2.499
    62   1 H        0.926     0.034     2.528     2.486
    63   1 H        0.926     0.032     2.551     2.498
    64   1 H        0.860     0.168     1.285     1.776
    65   1 H        0.860     0.160     1.336     1.811
    66   1 H        0.926     0.021     2.719     2.579
    67   1 H        0.926     0.030     2.591     2.517
    68   1 H        0.926     0.026     2.639     2.540
    69   1 H        0.926     0.027     2.631     2.537
    70   1 H        0.926     0.031     2.578     2.511
    71   1 H        0.860     0.160     1.337     1.811
    72   1 H        0.860     0.164     1.309     1.792
    73   1 H        0.926     0.026     2.641     2.541
    74   1 H        0.926     0.019     2.753     2.595
    75   1 H        0.925     0.026     2.638     2.540
    76   1 H        0.925     0.047     2.357     2.401
    77   1 H        0.925     0.040     2.448     2.447
    78   1 H        0.925     0.047     2.356     2.400
    79   1 H        0.925     0.038     2.478     2.461
    80   1 H        0.925     0.047     2.358     2.401
    81   1 H        0.925     0.047     2.361     2.403
    82   1 H        0.925     0.021     2.715     2.577
    83   1 H        0.925     0.021     2.716     2.577
    84   1 H        0.925     0.039     2.469     2.457
    85   1 H        0.925     0.047     2.358     2.401
    86   1 H        0.925     0.047     2.357     2.401

molecular dipole:
                 x           y           z       tot (Debye)
 q only:        0.193       0.799       0.097
   full:        0.272       0.717       0.089       1.961

 projected vibrational frequencies (cm⁻¹)
eigval :       -0.00    -0.00    -0.00     0.00     0.00     0.00
eigval :       15.21    21.14    24.05    26.60    33.07    39.30
eigval :       46.22    48.42    54.84    58.72    61.71    74.61
eigval :       77.87    83.96   111.87   113.13   118.58   124.66
eigval :      128.41   131.85   150.37   166.92   171.25   173.13
eigval :      178.42   190.79   192.80   206.55   207.06   211.16
eigval :      221.63   231.45   236.92   248.07   268.59   283.62
eigval :      289.89   300.00   302.34   312.93   346.90   349.99
eigval :      365.59   371.53   371.90   374.55   385.53   392.47
eigval :      395.92   403.40   412.37   415.03   419.79   427.38
eigval :      457.21   475.71   482.17   487.91   495.53   507.55
eigval :      512.62   517.49   522.73   537.42   547.90   556.33
eigval :      566.56   570.08   573.31   584.64   589.09   593.55
eigval :      600.60   613.09   616.96   625.32   648.68   653.63
eigval :      661.07   666.27   668.94   677.22   687.87   696.55
eigval :      716.24   721.03   727.26   735.32   759.35   761.41
eigval :      768.90   774.05   784.15   785.42   790.12   810.61
eigval :      819.47   822.64   840.57   854.17   861.72   863.83
eigval :      876.43   878.15   886.22   887.30   891.40   901.01
eigval :      901.48   906.46   913.07   914.28   921.38   926.73
eigval :      929.12   929.44   931.04   944.60   966.79   987.88
eigval :      993.89  1008.87  1010.77  1013.24  1015.52  1022.07
eigval :     1024.02  1033.70  1034.19  1038.53  1047.25  1068.56
eigval :     1082.00  1083.98  1094.58  1104.52  1109.73  1117.12
eigval :     1122.12  1132.82  1136.97  1154.11  1179.05  1179.20
eigval :     1180.52  1185.90  1188.01  1195.30  1199.28  1202.08
eigval :     1207.10  1225.19  1234.10  1246.71  1250.26  1267.38
eigval :     1269.43  1271.24  1277.49  1279.39  1283.77  1286.27
eigval :     1304.81  1310.72  1313.61  1315.43  1316.90  1321.40
eigval :     1329.17  1369.03  1381.91  1387.43  1394.75  1395.91
eigval :     1398.93  1399.42  1405.93  1407.54  1409.45  1421.12
eigval :     1423.60  1428.48  1428.89  1433.12  1469.30  1471.93
eigval :     1472.48  1472.89  1478.16  1478.71  1484.79  1485.76
eigval :     1485.87  1486.48  1489.55  1490.93  1492.24  1500.62
eigval :     1501.18  1502.60  1517.85  1533.11  1541.57  1569.96
eigval :     1573.73  1575.63  1578.09  1583.30  1589.36  1597.60
eigval :     1601.71  1601.85  1606.62  1608.98  2993.39  2994.38
eigval :     2995.62  2998.14  3007.40  3008.67  3012.44  3013.24
eigval :     3039.53  3039.70  3041.15  3041.83  3057.76  3058.99
eigval :     3064.32  3065.10  3065.52  3066.17  3067.05  3068.13
eigval :     3070.15  3073.20  3074.15  3074.79  3075.70  3076.79
eigval :     3079.01  3081.02  3082.73  3085.72  3087.44  3090.12
eigval :     3099.95  3113.34  3439.41  3448.22  3487.04  3504.02

   temp. (K)  partition function   enthalpy   heat capacity  entropy
                                   cal/mol     cal/K/mol   cal/K/mol   J/K/mol
 298.15  VIB  0.291E+19            25005.322    156.276    154.615
         ROT  0.638E+08              888.752      2.981     38.694
         INT  0.186E+27            25894.074    159.257    193.310
         TR   0.149E+29             1481.254      4.968     45.130
         TOT                       27375.3282   164.2255   238.4400   997.6330

       T/K    H(0)-H(T)+PV         H(T)/Eh          T*S/Eh         G(T)/Eh
   ------------------------------------------------------------------------
    298.15    0.436254E-01    0.730246E+00    0.113291E+00    0.616955E+00
   ------------------------------------------------------------------------

         :::::::::::::::::::::::::::::::::::::::::::::::::::::
         ::                  THERMODYNAMIC                  ::
         :::::::::::::::::::::::::::::::::::::::::::::::::::::
         :: total free energy        -123.195357569334 Eh   ::
         ::.................................................::
         :: total energy             -123.812312729865 Eh   ::
         :: zero point energy           0.686620335844 Eh   ::
         :: G(RRHO) w/o ZPVE           -0.069665175313 Eh   ::
         :: G(RRHO) contrib.            0.616955160531 Eh   ::
         :::::::::::::::::::::::::::::::::::::::::::::::::::::

           -------------------------------------------------
          | TOTAL ENERGY             -123.812312729865 Eh   |
          | TOTAL ENTHALPY           -123.082067031712 Eh   |
          | TOTAL FREE ENERGY        -123.195357569334 Eh   |
          | GRADIENT NORM               0.000045514589 Eh/α |
          | HOMO-LUMO GAP               2.069788379616 eV   |
           -------------------------------------------------

 * finished run on 2025/08/24 at 23:35:56.133
