   * xtb version 6.7.1 (edcfbbe) compiled by 'albert@albert-system' on 2024-07-22

   ID    Z sym.   atoms
    1    6 C      1-22, 24-32, 34-48
    2    7 N      23, 33
    3    1 H      49-86

          program call               : xtb data2507/toluene/DMTAC/DMTAC_toluene_S0_finalOpt.xtbopt.xyz --gfn 2 --uhf 2 --gbsa toluene --ohess vtight --parallel 40 --molden --ceasefiles --namespace data2507/toluene/DMTAC/DMTAC_toluene_T1_preOpt
      * Solvation model:               GBSA
        Solvent                        toluene
        Solvent mass                       9.2140E+01 g/mol
          :  Hamiltonian                  GFN2-xTB          :
 * total energy  :  -123.7321410 Eh     change       -0.3248900E-08 Eh
 * total energy  :  -123.7380188 Eh     change       -0.5877773E-02 Eh
 * total energy  :  -123.7400658 Eh     change       -0.2047079E-02 Eh
 * total energy  :  -123.7403746 Eh     change       -0.3087945E-03 Eh
 * total energy  :  -123.7406911 Eh     change       -0.3164612E-03 Eh
 * total energy  :  -123.7408550 Eh     change       -0.1639124E-03 Eh
 * total energy  :  -123.7409955 Eh     change       -0.1405171E-03 Eh
 * total energy  :  -123.7410835 Eh     change       -0.8795203E-04 Eh
 * total energy  :  -123.7411435 Eh     change       -0.5999163E-04 Eh
 * total energy  :  -123.7411934 Eh     change       -0.4993862E-04 Eh
 * total energy  :  -123.7416918 Eh     change       -0.1389652E-05 Eh
 * total energy  :  -123.7416929 Eh     change       -0.1117133E-05 Eh
 * total energy  :  -123.7416939 Eh     change       -0.9980020E-06 Eh
 * total energy  :  -123.7416948 Eh     change       -0.9252929E-06 Eh
 * total energy  :  -123.7416957 Eh     change       -0.9212953E-06 Eh
 * total energy  :  -123.7416967 Eh     change       -0.9426735E-06 Eh
 * total energy  :  -123.7416976 Eh     change       -0.9159994E-06 Eh
 * total energy  :  -123.7416985 Eh     change       -0.8664768E-06 Eh
 * total energy  :  -123.7416985 Eh     change       -0.1337902E-07 Eh
   *** GEOMETRY OPTIMIZATION CONVERGED AFTER 44 ITERATIONS ***

 final structure:
================
86
 xtb: 6.7.1 (edcfbbe)
C            4.58298238970245        5.03520828521228       -0.03402417363535
C            3.72587671953909        3.80572325095011       -0.04982135821777
C            3.82625931984119        2.86663772001541        0.96773181385489
C            3.04197314320959        1.72980182153993        0.97909561653227
C            2.12672382572331        1.49952275593804       -0.04301053986013
C            1.26866463475781        0.30203615806127       -0.04482803529919
C            1.83185835141580       -0.96823185281615       -0.00485674180109
C            3.30003622589435       -1.10603125468341        0.11747254271571
C            4.14376335434926       -0.59597360180409       -0.86446905849130
C            5.51590007765234       -0.71582159772628       -0.74373598827452
C            6.06537152971735       -1.34289073358509        0.36197558759106
C            5.23382750358675       -1.85002746736505        1.34658454802725
C            3.86151485389383       -1.73471381528164        1.22451324780947
C            1.02723793763599       -2.11595503977373       -0.08787838229616
C            1.66619720533467       -3.43155006066178        0.04024261552523
C            2.71609349587591       -3.82427659638026       -0.79550997075583
C            3.33573252978832       -5.04661781295813       -0.62207654541844
C            2.92941541121229       -5.90091060892432        0.39155099719234
C            1.88947841583557       -5.52365451041829        1.22893761735808
C            1.26318221326679       -4.30617469989168        1.05669106034386
C           -0.38678939461174       -1.97651776949081       -0.21098804460367
C           -1.25151813614720       -3.01897080561606       -0.62302563668308
N           -0.79997261749571       -4.25327678148689       -1.01413434566508
C           -2.65310783234642       -2.80597512058154       -0.70771180624998
C           -3.24671148368249       -1.63830521720986       -0.30578944113251
C           -4.68594042435478       -1.42978864358920       -0.30252890246553
C           -5.55215749001912       -2.26410681213114       -1.00314758806966
C           -6.92653545782562       -2.06829001398843       -0.98433224363259
C           -7.46120532500028       -1.01231466346808       -0.26555881287673
C           -6.62767639126873       -0.15721752467533        0.42653348154315
C           -5.23276688150664       -0.34111071480303        0.42781755031231
C           -4.34748779047705        0.52512058748680        1.13722173456185
N           -4.82245550845788        1.55714332101835        1.90637685819133
C           -2.96078338666276        0.39930168794338        0.97177773029351
C           -2.39572320512317       -0.58868253628292        0.19769891912067
C           -0.96056243167808       -0.68275823470389       -0.01911528350255
C           -0.14520875074530        0.44562267751951       -0.03199505387992
C           -0.71234924048531        1.80413038491059       -0.10694037351831
C           -1.58305882782658        2.13768960310369       -1.14105667135467
C           -2.07519030239705        3.42261274920419       -1.24994817504925
C           -1.71731502134728        4.41438015820934       -0.34529100161392
C           -2.25731561389352        5.80486045256036       -0.49179669468994
C           -0.84352007348642        4.09123090708295        0.69742028506416
C           -0.42474984532406        5.12981645992105        1.69433125608345
C           -0.35672470740399        2.79808333731279        0.80102351851877
C            2.02908402804435        2.44016714588001       -1.06464504679758
C            2.80922987094706        3.58426071195240       -1.08300985725079
C            2.66128772754260        4.57413257917833       -2.19908256169045
H            5.19236861150552        5.09102075207490       -0.93576501960893
H            3.96607044534811        5.93307605683015        0.00381162139415
H            5.24299647208230        5.03225042026999        0.83016932231264
H            4.52974630688482        3.03046966177766        1.77316868438564
H            3.12700579903938        1.02406990200279        1.79314029234302
H            3.71735908918613       -0.10832378854286       -1.72984384721502
H            6.15904947962203       -0.31744855453422       -1.51573528020500
H            7.13783573483850       -1.43551038474928        0.45658903227558
H            5.65577407866612       -2.33800057669788        2.21394911861179
H            3.21517667823282       -2.12647031584109        1.99745124046533
H            3.03235541357235       -3.16759528407979       -1.59327340470480
H            4.14327662297881       -5.33421283628517       -1.28042694550063
H            3.42087580498375       -6.85278569552986        0.52933115953785
H            1.57302427336912       -6.18157090345832        2.02589776168649
H            0.45888504747368       -4.00862763224255        1.71451652910298
H            0.18131799008434       -4.36075057646528       -1.21246747189386
H           -1.43675934376011       -4.81757598139325       -1.55318828471840
H           -3.24678833264783       -3.63473062747983       -1.06241068164530
H           -5.15677399708298       -3.07724627209530       -1.59177215092036
H           -7.57222591311595       -2.73537064777907       -1.53634204104061
H           -8.52969362238936       -0.85105601158303       -0.25062818894582
H           -7.06317249528506        0.67509181245381        0.95890322490394
H           -4.15204891766448        2.03082746064634        2.48961449204391
H           -5.75909497082052        1.49839628647627        2.26816136054299
H           -2.32978426037215        1.11166149009692        1.47986485982260
H           -1.86583417278359        1.38382468563930       -1.86272703884418
H           -2.74768339367359        3.66409143595967       -2.06196412281103
H           -2.81073753271278        6.09988875935382        0.39948367163627
H           -2.92256822783484        5.86971319740089       -1.34935136754530
H           -1.44561619982140        6.51954559135008       -0.62782551999247
H            0.26124941228289        4.70610303617688        2.42394092098636
H           -1.28997345638599        5.53411671688280        2.21964308177073
H            0.07477012863496        5.95853156415512        1.19353203308520
H            0.31008744920318        2.54917346894540        1.61529990253361
H            1.32669648708188        2.26671051509520       -1.86856461594234
H            1.88722879758641        4.25549732304638       -2.89304035550186
H            3.59816593306968        4.68212953174491       -2.74566779375853
H            2.39170646535911        5.55433203981022       -1.80712162604365

          :  Hamiltonian                  GFN2-xTB          :
         :: gradient norm              0.000073871263 Eh/a0 ::
         :: HOMO-LUMO gap              0.602101773571 eV    ::
         :: SCC energy              -126.049870607478 Eh    ::
         :: -> dispersion             -0.129798911359 Eh    ::
         :: -> Gsolv                  -0.047481314199 Eh    ::
         :: repulsion energy           2.308172134435 Eh    ::

    * Orbital Energies and Occupations

         #    Occupation            Energy/Eh            Energy/eV
      -------------------------------------------------------------
         1        2.0000           -0.6543039             -17.8045
       ...           ...                  ...                  ...
       105        2.0000           -0.3988663             -10.8537
       106        2.0000           -0.3976562             -10.8208
       107        2.0000           -0.3947837             -10.7426
       108        2.0000           -0.3910919             -10.6422
       109        2.0000           -0.3870164             -10.5313
       110        2.0000           -0.3847002             -10.4682
       111        2.0000           -0.3820578             -10.3963
       112        2.0000           -0.3803830             -10.3507
       113        2.0000           -0.3771202             -10.2620
       114        2.0000           -0.3665403              -9.9741
       115        2.0000           -0.3612550              -9.8302
       116        1.0000           -0.3273432              -8.9075
       117        1.0000           -0.2637561              -7.1772 (HOMO)
       118        0.0000           -0.2416293              -6.5751 (LUMO)
       119                         -0.2367410              -6.4421
       120                         -0.2200734              -5.9885
       121                         -0.2181373              -5.9358
       122                         -0.2165452              -5.8925
       123                         -0.2132601              -5.8031
       124                         -0.2097804              -5.7084
       125                         -0.2087190              -5.6795
       126                         -0.2045340              -5.5657
       127                         -0.2039832              -5.5507
       128                         -0.1868775              -5.0852
       ...                                ...                  ...
       230                          0.7350941              20.0029
      -------------------------------------------------------------
                  HL-Gap            0.0221268 Eh            0.6021 eV

     #   Z          covCN         q      C6AA      α(0)
     1   6 C        3.757    -0.106    22.569     6.773
     2   6 C        2.970     0.002    27.974     8.676
     3   6 C        2.922    -0.045    29.112     8.848
     4   6 C        2.923    -0.041    29.031     8.836
     5   6 C        2.975     0.008    27.848     8.656
     6   6 C        2.979    -0.013    28.328     8.731
     7   6 C        2.978    -0.007    28.178     8.707
     8   6 C        2.978     0.016    27.639     8.624
     9   6 C        2.925    -0.033    28.815     8.803
    10   6 C        2.919    -0.032    28.793     8.799
    11   6 C        2.920    -0.034    28.856     8.809
    12   6 C        2.919    -0.032    28.801     8.801
    13   6 C        2.925    -0.032    28.808     8.802
    14   6 C        2.974    -0.024    28.606     8.773
    15   6 C        2.974     0.006    27.883     8.662
    16   6 C        2.922    -0.042    29.050     8.839
    17   6 C        2.917    -0.035    28.869     8.811
    18   6 C        2.919    -0.040    28.988     8.829
    19   6 C        2.917    -0.034    28.838     8.806
    20   6 C        2.924    -0.038    28.944     8.823
    21   6 C        2.975    -0.022    28.539     8.763
    22   6 C        2.893     0.066    26.524     8.444
    23   7 N        2.643    -0.257    26.676     7.671
    24   6 C        2.922    -0.067    29.656     8.930
    25   6 C        2.974    -0.003    28.085     8.693
    26   6 C        2.979     0.003    27.964     8.674
    27   6 C        2.921    -0.042    29.046     8.838
    28   6 C        2.916    -0.040    28.992     8.829
    29   6 C        2.914    -0.034    28.859     8.809
    30   6 C        2.920    -0.047    29.169     8.857
    31   6 C        2.981    -0.008    28.219     8.714
    32   6 C        2.893     0.064    26.571     8.451
    33   7 N        2.642    -0.248    26.473     7.642
    34   6 C        2.920    -0.063    29.570     8.917
    35   6 C        2.979    -0.000    28.026     8.684
    36   6 C        2.982    -0.005    28.140     8.702
    37   6 C        2.976    -0.015    28.378     8.738
    38   6 C        2.974     0.009    27.817     8.651
    39   6 C        2.924    -0.041    29.021     8.834
    40   6 C        2.922    -0.044    29.098     8.846
    41   6 C        2.970     0.002    27.989     8.678
    42   6 C        3.757    -0.106    22.584     6.776
    43   6 C        2.969     0.003    27.948     8.671
    44   6 C        3.758    -0.105    22.558     6.771
    45   6 C        2.929    -0.047    29.170     8.857
    46   6 C        2.930    -0.044    29.105     8.847
    47   6 C        2.969     0.004    27.923     8.668
    48   6 C        3.758    -0.105    22.551     6.770
    49   1 H        0.925     0.045     2.384     2.415
    50   1 H        0.925     0.046     2.373     2.409
    51   1 H        0.925     0.038     2.476     2.461
    52   1 H        0.925     0.022     2.710     2.574
    53   1 H        0.926     0.016     2.800     2.617
    54   1 H        0.926     0.024     2.675     2.558
    55   1 H        0.926     0.027     2.627     2.535
    56   1 H        0.926     0.027     2.623     2.533
    57   1 H        0.926     0.026     2.637     2.539
    58   1 H        0.926     0.023     2.686     2.563
    59   1 H        0.926     0.020     2.727     2.583
    60   1 H        0.926     0.023     2.681     2.560
    61   1 H        0.926     0.025     2.659     2.550
    62   1 H        0.926     0.028     2.621     2.532
    63   1 H        0.926     0.027     2.630     2.536
    64   1 H        0.860     0.179     1.220     1.730
    65   1 H        0.860     0.173     1.252     1.753
    66   1 H        0.926     0.030     2.581     2.512
    67   1 H        0.926     0.027     2.624     2.533
    68   1 H        0.926     0.025     2.665     2.553
    69   1 H        0.926     0.026     2.649     2.545
    70   1 H        0.926     0.025     2.656     2.548
    71   1 H        0.860     0.174     1.247     1.749
    72   1 H        0.860     0.177     1.233     1.739
    73   1 H        0.926     0.032     2.553     2.499
    74   1 H        0.925     0.016     2.789     2.612
    75   1 H        0.925     0.023     2.681     2.561
    76   1 H        0.925     0.046     2.375     2.410
    77   1 H        0.925     0.039     2.468     2.457
    78   1 H        0.925     0.045     2.385     2.415
    79   1 H        0.925     0.036     2.496     2.471
    80   1 H        0.925     0.046     2.374     2.409
    81   1 H        0.925     0.045     2.388     2.416
    82   1 H        0.925     0.019     2.751     2.594
    83   1 H        0.925     0.020     2.730     2.584
    84   1 H        0.925     0.037     2.483     2.464
    85   1 H        0.925     0.045     2.382     2.413
    86   1 H        0.925     0.046     2.376     2.411

molecular dipole:
                 x           y           z       tot (Debye)
 q only:       -1.092       0.738       0.288
   full:       -0.970       0.685       0.310       3.119

 projected vibrational frequencies (cm⁻¹)
eigval :       -0.00    -0.00    -0.00    -0.00     0.00     0.00
eigval :       16.79    21.94    26.39    28.41    33.66    37.46
eigval :       46.42    48.47    58.82    59.03    65.29    75.55
eigval :       79.18    92.48   105.11   106.59   116.06   122.93
eigval :      130.29   133.89   150.66   164.96   167.73   171.29
eigval :      180.66   187.56   191.38   201.81   206.00   211.15
eigval :      222.00   233.48   237.19   250.71   266.87   285.90
eigval :      292.03   300.45   301.93   318.09   332.91   346.94
eigval :      348.49   371.79   373.76   375.88   380.74   390.42
eigval :      393.49   408.08   412.88   415.64   419.38   426.19
eigval :      441.85   449.98   462.86   472.39   480.34   485.51
eigval :      491.10   503.24   505.75   513.07   517.72   526.61
eigval :      543.21   550.02   555.93   565.61   569.97   584.05
eigval :      588.39   597.44   604.11   608.03   619.36   629.87
eigval :      650.03   657.86   663.74   671.64   675.82   689.96
eigval :      702.55   712.53   716.62   726.11   749.02   756.43
eigval :      757.08   770.74   783.39   784.58   787.16   799.04
eigval :      825.18   826.43   830.17   835.70   847.78   856.81
eigval :      874.65   876.72   884.21   886.14   890.84   891.72
eigval :      897.38   898.89   907.83   919.56   921.87   927.05
eigval :      927.54   929.46   930.02   937.82   962.98   981.22
eigval :      989.44  1002.35  1003.92  1009.25  1010.76  1015.71
eigval :     1018.77  1022.03  1024.56  1033.39  1035.18  1054.35
eigval :     1080.47  1082.57  1089.89  1100.29  1110.51  1118.78
eigval :     1120.46  1130.99  1136.34  1146.00  1168.59  1175.08
eigval :     1179.66  1180.01  1186.37  1194.69  1197.62  1199.06
eigval :     1205.44  1223.58  1232.28  1244.11  1245.17  1252.38
eigval :     1261.02  1272.79  1273.15  1276.75  1280.98  1284.44
eigval :     1288.36  1305.67  1313.47  1315.89  1317.59  1320.70
eigval :     1321.44  1352.36  1360.48  1374.11  1379.70  1385.16
eigval :     1397.94  1398.78  1401.92  1403.80  1406.06  1408.22
eigval :     1412.19  1416.88  1420.84  1426.15  1431.39  1440.85
eigval :     1444.99  1464.88  1469.91  1471.60  1472.73  1473.27
eigval :     1478.74  1480.12  1484.79  1485.93  1486.21  1490.05
eigval :     1492.56  1492.85  1499.12  1501.87  1527.13  1534.97
eigval :     1538.82  1552.80  1564.31  1565.86  1571.54  1580.62
eigval :     1582.86  1599.31  1601.73  1603.73  2991.72  2992.11
eigval :     2994.43  2995.67  3006.20  3006.92  3011.49  3012.11
eigval :     3038.04  3038.92  3039.29  3039.82  3054.61  3055.99
eigval :     3062.50  3063.83  3064.46  3064.62  3065.32  3066.07
eigval :     3066.12  3071.29  3072.32  3074.24  3075.73  3076.16
eigval :     3076.92  3079.26  3081.04  3083.83  3085.29  3088.36
eigval :     3095.71  3099.47  3437.06  3458.00  3503.01  3517.32

   temp. (K)  partition function   enthalpy   heat capacity  entropy
                                   cal/mol     cal/K/mol   cal/K/mol   J/K/mol
 298.15  VIB  0.266E+19            25277.696    158.246    155.882
         ROT  0.639E+08              888.752      2.981     38.698
         INT  0.170E+27            26166.448    161.227    194.580
         TR   0.149E+29             1481.254      4.968     45.130
         TOT                       27647.7019   166.1952   239.7106  1002.9493

       T/K    H(0)-H(T)+PV         H(T)/Eh          T*S/Eh         G(T)/Eh
   ------------------------------------------------------------------------
    298.15    0.440594E-01    0.727099E+00    0.113894E+00    0.613204E+00
   ------------------------------------------------------------------------

         :::::::::::::::::::::::::::::::::::::::::::::::::::::
         ::                  THERMODYNAMIC                  ::
         :::::::::::::::::::::::::::::::::::::::::::::::::::::
         :: total free energy        -123.128494167781 Eh   ::
         ::.................................................::
         :: total energy             -123.741698470617 Eh   ::
         :: zero point energy           0.683039146122 Eh   ::
         :: G(RRHO) w/o ZPVE           -0.069834843286 Eh   ::
         :: G(RRHO) contrib.            0.613204302836 Eh   ::
         :::::::::::::::::::::::::::::::::::::::::::::::::::::

           -------------------------------------------------
          | TOTAL ENERGY             -123.741698470617 Eh   |
          | TOTAL ENTHALPY           -123.014599907026 Eh   |
          | TOTAL FREE ENERGY        -123.128494167781 Eh   |
          | GRADIENT NORM               0.000073815771 Eh/α |
          | HOMO-LUMO GAP               0.602101199967 eV   |
           -------------------------------------------------

 * finished run on 2025/08/24 at 23:36:04.598
