   * xtb version 6.7.1 (edcfbbe) compiled by 'albert@albert-system' on 2024-07-22

   ID    Z sym.   atoms
    1    6 C      1-18, 20-28
    2    8 O      19
    3    1 H      29-74

          program call               : xtb data2507/gas/DCE/DCE_gas_S0_crest.xyz --gfn 2 --ohess vtight --parallel 40 --molden --ceasefiles --namespace data2507/gas/DCE/DCE_gas_S0_finalOpt
          :  Hamiltonian                  GFN2-xTB          :
 * total energy  :   -85.4309782 Eh     change       -0.4832259E-09 Eh
 * total energy  :   -85.4309804 Eh     change       -0.2215963E-05 Eh
 * total energy  :   -85.4309819 Eh     change       -0.1505962E-05 Eh
 * total energy  :   -85.4309843 Eh     change       -0.2399199E-05 Eh
 * total energy  :   -85.4309878 Eh     change       -0.3481079E-05 Eh
 * total energy  :   -85.4309926 Eh     change       -0.4751676E-05 Eh
 * total energy  :   -85.4309970 Eh     change       -0.4385748E-05 Eh
 * total energy  :   -85.4309999 Eh     change       -0.2909511E-05 Eh
 * total energy  :   -85.4310022 Eh     change       -0.2302763E-05 Eh
 * total energy  :   -85.4310048 Eh     change       -0.2636545E-05 Eh
 * total energy  :   -85.4310359 Eh     change       -0.3172716E-06 Eh
 * total energy  :   -85.4310362 Eh     change       -0.3141882E-06 Eh
 * total energy  :   -85.4310365 Eh     change       -0.3462112E-06 Eh
 * total energy  :   -85.4310369 Eh     change       -0.3842794E-06 Eh
 * total energy  :   -85.4310373 Eh     change       -0.3692625E-06 Eh
 * total energy  :   -85.4310376 Eh     change       -0.3085626E-06 Eh
 * total energy  :   -85.4310378 Eh     change       -0.2536503E-06 Eh
 * total energy  :   -85.4310381 Eh     change       -0.2164867E-06 Eh
 * total energy  :   -85.4310381 Eh     change       -0.1258456E-08 Eh
   *** GEOMETRY OPTIMIZATION CONVERGED AFTER 44 ITERATIONS ***

 final structure:
================
74
 xtb: 6.7.1 (edcfbbe)
C            9.37110497075165       -0.96239461163759       -0.50015629283879
C            8.27200219453900       -0.15262807322202        0.18611756725082
C            8.69757816513869        1.30989799603246        0.29277928927039
C            6.95424448269800       -0.30865331745701       -0.58079341291205
C            5.74558064931057        0.28191818552974        0.14244002049150
C            4.44574647613825       -0.02926687412877       -0.59861984854985
C            3.20090413704825        0.55496436872852        0.09269900664462
C            3.12117170285305        2.05155689283698       -0.20719020176500
C            1.94134353584974       -0.20040317198292       -0.36600254334191
C            2.01290994995016       -1.70969379034655       -0.01512198417460
C            0.58173878605750       -2.17271075889965        0.30771717161584
C           -0.27799517054504       -0.99979989593501       -0.15004818854907
C           -1.72192832528464       -0.94478143376622        0.33603531765242
C           -2.47410902674187       -2.19333614821647       -0.12188281796958
C           -3.95264660670357       -2.03228501028102       -0.00538613493500
C           -4.58350303248539       -0.87876058755267        0.16010818009980
C           -6.08195683562295       -0.84875591290436        0.29046592465064
C           -6.71362293845371        0.13704145641309       -0.69779480471417
O           -8.12047930769927        0.15466257108211       -0.59700132376606
C           -6.09704051656876        1.51690718869579       -0.47748972657533
C           -4.58787376083109        1.45796281303571       -0.68254496667482
C           -3.86557842979458        0.45517858152898        0.24300436775178
C           -3.92136418512332        0.95515666931591        1.69527544749061
C           -2.40081177076599        0.30162052280167       -0.25327390038274
C           -1.55943258526506        1.56162427641233       -0.00957026816248
C           -0.10535128450075        1.42489960012359       -0.47001598586486
C            0.56936726963558        0.23394837771600        0.21247882286875
C            0.67804218429288        0.45717039354771        1.72257435780190
H            9.53267891712029       -0.59760968995908       -1.51250558885825
H            9.09899795657633       -2.01421761143627       -0.55438646900970
H           10.30735984872660       -0.87915455915396        0.04729510854284
H            8.13119466428565       -0.54891079159324        1.19851818500641
H            8.79469106921829        1.74853527026004       -0.69834133926704
H            9.65864124336153        1.38734731162015        0.79668643818584
H            7.97347336536785        1.88986641105625        0.85857222235523
H            7.05360384165359        0.16162317483057       -1.56208853075808
H            6.77313195462888       -1.37422378314520       -0.74489393780636
H            5.69110823188138       -0.13657625167335        1.15077758801526
H            5.86964964483839        1.36059111117529        0.23775562714389
H            4.35545945925881       -1.11259580555270       -0.67280122575305
H            4.50396697239552        0.36452243954861       -1.61602841696496
H            3.32015220042114        0.41922320039854        1.17202481474233
H            2.81456852463987        2.21557793026156       -1.23785850238884
H            4.09239878399766        2.51824458958528       -0.06326536511010
H            2.41765141393450        2.55426976930752        0.44892577750461
H            1.88232570338482       -0.09730669799122       -1.45559271091378
H            2.67255286728154       -1.86970585533386        0.83801970282838
H            2.41400090008238       -2.27882521339960       -0.85314805644985
H            0.33038258611503       -3.09584675809394       -0.21282692678135
H            0.45124288470067       -2.34608942119519        1.37619339574656
H           -0.31702118088713       -1.03495587540748       -1.24656392280347
H           -1.75105027784219       -0.90687893968861        1.42734474966572
H           -2.22597311712578       -2.40873694927475       -1.16767255990035
H           -2.15690877188472       -3.05897999637178        0.46473298690520
H           -4.52480268893101       -2.94909804100540       -0.07266422653228
H           -6.36615194104273       -0.54838708660008        1.30516763246170
H           -6.48973543280549       -1.84644633826817        0.11910729106141
H           -6.51437926403964       -0.19594830975473       -1.72215526245660
H           -8.35952512311306        0.43951667307196        0.29289385780711
H           -6.33380446802633        1.86337082334295        0.53191139941827
H           -6.53492875067479        2.22670131670421       -1.18276343792384
H           -4.17371282342614        2.45541488594121       -0.52852396051538
H           -4.39621732707995        1.17266196560086       -1.71993906150232
H           -3.61493669418060        1.99593935609801        1.76118700103983
H           -3.27607651481099        0.35537113897084        2.33175369867495
H           -4.92982696756771        0.88152278809344        2.09111033204824
H           -2.45006845131410        0.14130163262000       -1.33771686737027
H           -1.55999030711960        1.80872301959696        1.05018265317601
H           -2.00567778428607        2.40149219744900       -0.54499167966500
H           -0.07877757030136        1.27936990522615       -1.55291641722037
H            0.41013304198973        2.35906214602862       -0.24952391085248
H            1.15575447028967        1.41184876182834        1.92834647979148
H            1.26894243543408       -0.32491832504271        2.18867758715884
H           -0.29823102499695        0.46567099836135        2.19623859454750

          :  Hamiltonian                  GFN2-xTB          :
         :: gradient norm              0.000027513315 Eh/a0 ::
         :: HOMO-LUMO gap              5.018448832045 eV    ::
         :: SCC energy               -86.648936668922 Eh    ::
         :: -> dispersion             -0.078268831789 Eh    ::
         :: repulsion energy           1.217898616631 Eh    ::

    * Orbital Energies and Occupations

         #    Occupation            Energy/Eh            Energy/eV
      -------------------------------------------------------------
         1        2.0000           -0.6828207             -18.5805
       ...           ...                  ...                  ...
        68        2.0000           -0.4248540             -11.5609
        69        2.0000           -0.4231225             -11.5137
        70        2.0000           -0.4199042             -11.4262
        71        2.0000           -0.4176790             -11.3656
        72        2.0000           -0.4157980             -11.3144
        73        2.0000           -0.4119387             -11.2094
        74        2.0000           -0.4099355             -11.1549
        75        2.0000           -0.4077770             -11.0962
        76        2.0000           -0.4047165             -11.0129
        77        2.0000           -0.4039751             -10.9927
        78        2.0000           -0.3936442             -10.7116
        79        2.0000           -0.3874413             -10.5428
        80        2.0000           -0.3742194             -10.1830 (HOMO)
        81                         -0.1897948              -5.1646 (LUMO)
        82                          0.0106232               0.2891
        83                          0.0238280               0.6484
        84                          0.0323234               0.8796
        85                          0.0447200               1.2169
        86                          0.0528426               1.4379
        87                          0.0561121               1.5269
        88                          0.0686998               1.8694
        89                          0.0770965               2.0979
        90                          0.0846415               2.3032
        91                          0.0894295               2.4335
       ...                                ...                  ...
       158                          0.6521552              17.7460
      -------------------------------------------------------------
                  HL-Gap            0.1844246 Eh            5.0184 eV

     #   Z          covCN         q      C6AA      α(0)
     1   6 C        3.757    -0.106    22.582     6.775
     2   6 C        3.849    -0.010    20.720     6.474
     3   6 C        3.756    -0.105    22.566     6.773
     4   6 C        3.806    -0.063    21.709     6.633
     5   6 C        3.801    -0.056    21.588     6.615
     6   6 C        3.807    -0.066    21.764     6.641
     7   6 C        3.849    -0.018    20.870     6.498
     8   6 C        3.755    -0.103    22.530     6.768
     9   6 C        3.879    -0.031    21.073     6.527
    10   6 C        3.824    -0.060    21.629     6.618
    11   6 C        3.818    -0.059    21.627     6.618
    12   6 C        3.906    -0.026    20.983     6.511
    13   6 C        3.857    -0.021    20.905     6.503
    14   6 C        3.812    -0.058    21.609     6.617
    15   6 C        2.899    -0.054    29.339     8.881
    16   6 C        2.954    -0.009    28.235     8.715
    17   6 C        3.813    -0.074    21.902     6.661
    18   6 C        3.730     0.115    18.787     6.187
    19   8 O        1.655    -0.448    21.804     6.303
    20   6 C        3.805    -0.069    21.823     6.651
    21   6 C        3.812    -0.062    21.672     6.626
    22   6 C        3.904     0.013    20.296     6.404
    23   6 C        3.758    -0.101    22.477     6.759
    24   6 C        3.861    -0.027    21.015     6.519
    25   6 C        3.804    -0.062    21.692     6.631
    26   6 C        3.811    -0.061    21.662     6.625
    27   6 C        3.925     0.014    20.281     6.400
    28   6 C        3.756    -0.105    22.558     6.772
    29   1 H        0.925     0.034     2.525     2.485
    30   1 H        0.925     0.031     2.569     2.507
    31   1 H        0.925     0.033     2.540     2.493
    32   1 H        0.924     0.026     2.651     2.546
    33   1 H        0.925     0.034     2.527     2.486
    34   1 H        0.925     0.032     2.555     2.500
    35   1 H        0.925     0.033     2.546     2.495
    36   1 H        0.924     0.031     2.577     2.510
    37   1 H        0.924     0.029     2.603     2.523
    38   1 H        0.924     0.026     2.649     2.545
    39   1 H        0.925     0.031     2.573     2.508
    40   1 H        0.925     0.033     2.543     2.494
    41   1 H        0.924     0.030     2.581     2.512
    42   1 H        0.924     0.032     2.556     2.500
    43   1 H        0.925     0.032     2.553     2.499
    44   1 H        0.925     0.035     2.521     2.483
    45   1 H        0.925     0.031     2.568     2.506
    46   1 H        0.924     0.025     2.659     2.550
    47   1 H        0.924     0.030     2.593     2.518
    48   1 H        0.925     0.025     2.656     2.549
    49   1 H        0.925     0.025     2.656     2.549
    50   1 H        0.924     0.029     2.606     2.524
    51   1 H        0.924     0.027     2.630     2.536
    52   1 H        0.924     0.030     2.583     2.513
    53   1 H        0.924     0.037     2.486     2.466
    54   1 H        0.924     0.036     2.507     2.476
    55   1 H        0.925     0.023     2.682     2.561
    56   1 H        0.924     0.033     2.549     2.497
    57   1 H        0.924     0.040     2.443     2.444
    58   1 H        0.924     0.041     2.440     2.443
    59   1 H        0.805     0.283     0.774     1.382
    60   1 H        0.924     0.031     2.573     2.508
    61   1 H        0.924     0.037     2.485     2.465
    62   1 H        0.924     0.035     2.515     2.480
    63   1 H        0.924     0.031     2.579     2.511
    64   1 H        0.925     0.035     2.510     2.478
    65   1 H        0.925     0.034     2.535     2.490
    66   1 H        0.925     0.034     2.527     2.486
    67   1 H        0.924     0.029     2.606     2.525
    68   1 H        0.925     0.039     2.465     2.455
    69   1 H        0.924     0.027     2.632     2.537
    70   1 H        0.924     0.025     2.658     2.549
    71   1 H        0.925     0.032     2.553     2.499
    72   1 H        0.925     0.032     2.557     2.501
    73   1 H        0.925     0.039     2.468     2.457
    74   1 H        0.925     0.036     2.508     2.477

molecular dipole:
                 x           y           z       tot (Debye)
 q only:        0.541       0.278       0.485
   full:        0.586       0.312       0.624       2.316

 projected vibrational frequencies (cm⁻¹)
eigval :       -0.00    -0.00    -0.00     0.00     0.00     0.00
eigval :       15.85    19.37    25.96    40.81    53.43    73.96
eigval :       78.03    88.63    98.02   108.37   113.52   138.22
eigval :      163.06   175.21   180.36   205.02   206.87   213.96
eigval :      224.12   230.98   240.72   245.63   248.81   268.50
eigval :      275.37   280.83   289.43   303.38   315.11   317.71
eigval :      336.48   346.11   365.89   374.41   376.65   399.34
eigval :      413.91   425.23   427.35   448.89   457.30   459.43
eigval :      471.32   485.91   499.03   514.99   546.85   566.11
eigval :      580.02   604.49   620.53   643.43   706.06   757.99
eigval :      770.80   772.69   819.73   839.09   844.00   860.63
eigval :      870.38   878.64   884.69   890.89   902.91   912.46
eigval :      940.47   945.17   946.90   954.38   962.99   971.66
eigval :      973.71   981.49   990.76  1002.85  1012.98  1021.40
eigval :     1024.92  1035.99  1046.69  1051.48  1055.90  1059.54
eigval :     1070.85  1074.50  1080.06  1081.84  1099.61  1102.83
eigval :     1106.84  1109.97  1119.87  1127.71  1130.58  1140.60
eigval :     1143.80  1146.97  1151.02  1154.85  1160.11  1166.83
eigval :     1177.72  1179.92  1187.58  1193.62  1197.10  1203.18
eigval :     1207.95  1215.87  1221.23  1227.82  1242.34  1247.51
eigval :     1251.81  1256.83  1269.03  1272.68  1281.48  1282.53
eigval :     1288.35  1291.03  1295.55  1299.18  1309.39  1314.98
eigval :     1315.80  1316.55  1329.73  1334.47  1335.38  1339.15
eigval :     1341.91  1343.11  1347.06  1349.13  1356.23  1359.94
eigval :     1364.57  1367.56  1370.81  1375.80  1387.09  1408.11
eigval :     1409.87  1411.66  1419.99  1422.76  1478.72  1479.79
eigval :     1481.49  1486.14  1487.47  1489.27  1491.83  1494.90
eigval :     1497.35  1498.94  1501.57  1503.58  1507.29  1508.14
eigval :     1509.31  1510.05  1514.12  1516.31  1518.06  1522.28
eigval :     1525.05  1743.93  2896.74  2905.33  2914.67  2916.29
eigval :     2920.53  2922.11  2940.16  2941.94  2954.48  2957.31
eigval :     2957.55  2959.91  2962.29  2966.27  2970.00  2970.28
eigval :     2973.37  2975.87  2977.19  2980.48  2987.91  2989.77
eigval :     2991.69  2995.62  2996.32  3002.63  3007.02  3011.16
eigval :     3019.89  3024.69  3026.50  3029.69  3030.59  3032.98
eigval :     3034.60  3035.37  3036.85  3038.52  3039.26  3044.13
eigval :     3046.59  3054.41  3056.31  3056.79  3065.38  3531.29

   temp. (K)  partition function   enthalpy   heat capacity  entropy
                                   cal/mol     cal/K/mol   cal/K/mol   J/K/mol
 298.15  VIB  0.826E+12            16836.406    108.191    102.692
         ROT  0.206E+08              888.752      2.981     36.451
         INT  0.170E+20            17725.158    111.172    139.143
         TR   0.736E+28             1481.254      4.968     43.729
         TOT                       19206.4122   116.1403   182.8722   765.1374

       T/K    H(0)-H(T)+PV         H(T)/Eh          T*S/Eh         G(T)/Eh
   ------------------------------------------------------------------------
    298.15    0.306074E-01    0.706762E+00    0.868885E-01    0.619874E+00
   ------------------------------------------------------------------------

         :::::::::::::::::::::::::::::::::::::::::::::::::::::
         ::                  THERMODYNAMIC                  ::
         :::::::::::::::::::::::::::::::::::::::::::::::::::::
         :: total free energy         -84.811164492661 Eh   ::
         ::.................................................::
         :: total energy              -85.431038052290 Eh   ::
         :: zero point energy           0.676154694577 Eh   ::
         :: G(RRHO) w/o ZPVE           -0.056281134948 Eh   ::
         :: G(RRHO) contrib.            0.619873559629 Eh   ::
         :::::::::::::::::::::::::::::::::::::::::::::::::::::

           -------------------------------------------------
          | TOTAL ENERGY              -85.431038052290 Eh   |
          | TOTAL ENTHALPY            -84.724275991583 Eh   |
          | TOTAL FREE ENERGY         -84.811164492661 Eh   |
          | GRADIENT NORM               0.000027514564 Eh/α |
          | HOMO-LUMO GAP               5.018448874623 eV   |
           -------------------------------------------------

 * finished run on 2025/09/13 at 01:58:48.933
