   * xtb version 6.7.1 (edcfbbe) compiled by 'albert@albert-system' on 2024-07-22

   ID    Z sym.   atoms
    1    6 C      1-18, 20-28
    2    8 O      19
    3    1 H      29-74

          program call               : xtb data2507/gas/DCE/DCE.xyz --gfn 2 --ohess vtight --parallel 40 --molden --ceasefiles --namespace data2507/gas/DCE/DCE_gas_S0_preOpt
          :  Hamiltonian                  GFN2-xTB          :
 * total energy  :   -85.4074272 Eh     change       -0.4291820E-09 Eh
 * total energy  :   -85.4142105 Eh     change       -0.6783309E-02 Eh
 * total energy  :   -85.4156152 Eh     change       -0.1404648E-02 Eh
 * total energy  :   -85.4160290 Eh     change       -0.4137685E-03 Eh
 * total energy  :   -85.4163228 Eh     change       -0.2938656E-03 Eh
 * total energy  :   -85.4164984 Eh     change       -0.1756172E-03 Eh
 * total energy  :   -85.4166269 Eh     change       -0.1284187E-03 Eh
 * total energy  :   -85.4167063 Eh     change       -0.7941985E-04 Eh
 * total energy  :   -85.4167561 Eh     change       -0.4985464E-04 Eh
 * total energy  :   -85.4167978 Eh     change       -0.4168112E-04 Eh
 * total energy  :   -85.4169730 Eh     change       -0.4047821E-05 Eh
 * total energy  :   -85.4169768 Eh     change       -0.3792251E-05 Eh
 * total energy  :   -85.4169800 Eh     change       -0.3259842E-05 Eh
 * total energy  :   -85.4169826 Eh     change       -0.2562457E-05 Eh
 * total energy  :   -85.4169845 Eh     change       -0.1896610E-05 Eh
 * total energy  :   -85.4169858 Eh     change       -0.1357115E-05 Eh
 * total energy  :   -85.4169868 Eh     change       -0.9649688E-06 Eh
 * total energy  :   -85.4169875 Eh     change       -0.7169768E-06 Eh
 * total energy  :   -85.4169875 Eh     change       -0.5857871E-08 Eh
   *** GEOMETRY OPTIMIZATION CONVERGED AFTER 44 ITERATIONS ***

 final structure:
================
74
 xtb: 6.7.1 (edcfbbe)
C            7.10158685189286        0.61404384760180        1.16263254164568
C            6.24828426063905        1.54693215015969        0.30654183607241
C            7.14052092131939        2.57511327702277       -0.38727841306240
C            5.43440706723206        0.77505296946155       -0.73765326397334
C            4.35856752675456       -0.12961924125812       -0.13631798050931
C            3.48775358908815       -0.72659252425875       -1.24086703098277
C            2.52167654256879       -1.86928344107260       -0.88020614552061
C            3.31104777089654       -3.07578410681165       -0.35995180928495
C            1.31648078809917       -1.63320612121910        0.05140859119218
C            1.59973163639376       -1.31333995590964        1.53670128143084
C            0.33731949627716       -0.59951498286874        2.06476594042052
C           -0.66650511577343       -0.73892876029490        0.92037441959221
C           -1.90167310236661        0.15576878052195        0.91424579675005
C           -2.71921372891120       -0.07580724207594        2.18490769092380
C           -4.12961182157221        0.39425143565427        2.05686029773919
C           -4.70869197309315        0.73369997909113        0.91595593616185
C           -6.17148669031902        1.05590688167283        0.84119852472121
C           -6.90491542171029       -0.12700672821655        0.17475034148956
O           -8.05391627180531        0.30286677367825       -0.52977534760208
C           -5.97623616394920       -0.82601747686587       -0.82415034026751
C           -5.00794654986250        0.16615444319177       -1.45901835236117
C           -4.00165202415691        0.72264238118769       -0.42330418062901
C           -3.65124431187353        2.16979869632349       -0.80596833445141
C           -2.73718038339294       -0.17023697462292       -0.33876498937944
C           -1.86942134094316       -0.09365459388367       -1.60390893723757
C           -0.63494978277262       -0.99552482116511       -1.53474370824126
C            0.22103442484988       -0.61056872571436       -0.33110635094113
C            0.77350897109454        0.80707050650536       -0.50287585621600
H            7.76880548226847        0.02862268110755        0.53323283668143
H            6.48176036688332       -0.06832913877902        1.73803804171573
H            7.70660081024877        1.18950388879675        1.86006203744503
H            5.55149147491350        2.08177217666251        0.96280977009659
H            6.54407961177219        3.26939430145484       -0.97518620851954
H            7.84269122126491        2.07761656178096       -1.05318482926028
H            7.70815765515808        3.14615929369767        0.34410073311881
H            4.94843790350435        1.49653399383958       -1.40012867434031
H            6.11421230489807        0.17566707808499       -1.34807823950408
H            4.83037922198691       -0.92837519547649        0.43434370454519
H            3.75572401823401        0.46971992393684        0.54700100201486
H            4.16419780735608       -1.13972114225747       -1.99661215080413
H            2.93703147710433        0.07645680648536       -1.72689971064104
H            2.07783744191945       -2.16808761129908       -1.84011134123320
H            2.66786957253045       -3.95005354837577       -0.28512181625300
H            3.72454744742433       -2.87736059023673        0.62470694446335
H            4.13001084623016       -3.31360311205135       -1.03528993912890
H            0.80316008904816       -2.60475111227426        0.04218039603624
H            2.47732007355143       -0.68464163140334        1.65371618227719
H            1.78478496078655       -2.23341634540166        2.09081064814791
H           -0.02550243387747       -1.05168450053832        2.98706400469616
H            0.53656685857591        0.45364504221976        2.26528499650745
H           -1.03855506589071       -1.77151263626140        0.93736351764348
H           -1.60823538521781        1.20741377008578        0.89133592890224
H           -2.74199804811243       -1.14739922850846        2.41703576972028
H           -2.23785927005030        0.41994491412576        3.03192205383100
H           -4.70133675496781        0.40743630044493        2.97668166847079
H           -6.33569627920639        1.94250060172304        0.22517061425413
H           -6.57990775139648        1.24824936675987        1.83511591356543
H           -7.20609291941195       -0.85031041237069        0.95036422377067
H           -8.62387710548678        0.79144869299626        0.07325547921297
H           -6.59878886793961       -1.28805768164446       -1.59087838571672
H           -5.41964668323663       -1.61103369219443       -0.31023321760063
H           -5.58947542471922        0.98357867229940       -1.88679797697997
H           -4.47890041223631       -0.31840429398495       -2.27851397528762
H           -2.86206961452380        2.56449598417312       -0.17188982852244
H           -4.52140222697533        2.81106881889644       -0.68626210547750
H           -3.33470156162613        2.22744534477163       -1.84412172577060
H           -3.08492977716632       -1.20525447070908       -0.23240950097688
H           -1.53994136876440        0.93146801677633       -1.76205401272374
H           -2.46049396999949       -0.38623523198556       -2.47339931773470
H           -0.94935106325942       -2.03846705734565       -1.44275802511297
H           -0.06564798368451       -0.90098982205487       -2.46257939203095
H            0.02907335578746        1.55608442320727       -0.25126596114913
H            1.06757375656170        0.97564926918570       -1.53603504037262
H            1.63482204518563        0.97159810570832        0.13376175055486

          :  Hamiltonian                  GFN2-xTB          :
         :: gradient norm              0.000057558872 Eh/a0 ::
         :: HOMO-LUMO gap              5.001712263274 eV    ::
         :: SCC energy               -86.633343981686 Eh    ::
         :: -> dispersion             -0.079659196436 Eh    ::
         :: repulsion energy           1.216356458953 Eh    ::

    * Orbital Energies and Occupations

         #    Occupation            Energy/Eh            Energy/eV
      -------------------------------------------------------------
         1        2.0000           -0.6819835             -18.5577
       ...           ...                  ...                  ...
        68        2.0000           -0.4217930             -11.4776
        69        2.0000           -0.4199544             -11.4275
        70        2.0000           -0.4181063             -11.3773
        71        2.0000           -0.4138104             -11.2604
        72        2.0000           -0.4133815             -11.2487
        73        2.0000           -0.4105292             -11.1711
        74        2.0000           -0.4061538             -11.0520
        75        2.0000           -0.4047110             -11.0127
        76        2.0000           -0.4004391             -10.8965
        77        2.0000           -0.4000332             -10.8855
        78        2.0000           -0.3941744             -10.7260
        79        2.0000           -0.3860072             -10.5038
        80        2.0000           -0.3718289             -10.1180 (HOMO)
        81                         -0.1880194              -5.1163 (LUMO)
        82                          0.0166168               0.4522
        83                          0.0309198               0.8414
        84                          0.0420140               1.1433
        85                          0.0441494               1.2014
        86                          0.0506267               1.3776
        87                          0.0591704               1.6101
        88                          0.0623687               1.6971
        89                          0.0672747               1.8306
        90                          0.0797072               2.1689
        91                          0.0809928               2.2039
       ...                                ...                  ...
       158                          0.6621036              18.0168
      -------------------------------------------------------------
                  HL-Gap            0.1838095 Eh            5.0017 eV

     #   Z          covCN         q      C6AA      α(0)
     1   6 C        3.756    -0.105    22.563     6.773
     2   6 C        3.849    -0.010    20.712     6.473
     3   6 C        3.757    -0.106    22.579     6.775
     4   6 C        3.807    -0.063    21.712     6.633
     5   6 C        3.800    -0.055    21.556     6.610
     6   6 C        3.804    -0.063    21.708     6.633
     7   6 C        3.846    -0.016    20.836     6.493
     8   6 C        3.756    -0.104    22.549     6.771
     9   6 C        3.890    -0.031    21.072     6.526
    10   6 C        3.821    -0.061    21.654     6.622
    11   6 C        3.821    -0.059    21.624     6.618
    12   6 C        3.911    -0.026    20.984     6.511
    13   6 C        3.856    -0.021    20.909     6.503
    14   6 C        3.811    -0.057    21.583     6.613
    15   6 C        2.897    -0.055    29.377     8.887
    16   6 C        2.960    -0.005    28.153     8.703
    17   6 C        3.811    -0.075    21.921     6.664
    18   6 C        3.729     0.122    18.682     6.170
    19   8 O        1.656    -0.447    21.781     6.300
    20   6 C        3.804    -0.060    21.660     6.626
    21   6 C        3.812    -0.065    21.736     6.636
    22   6 C        3.906     0.013    20.302     6.405
    23   6 C        3.759    -0.101    22.488     6.761
    24   6 C        3.859    -0.026    20.995     6.516
    25   6 C        3.805    -0.061    21.677     6.628
    26   6 C        3.810    -0.058    21.609     6.617
    27   6 C        3.930     0.013    20.294     6.402
    28   6 C        3.756    -0.105    22.559     6.772
    29   1 H        0.925     0.034     2.527     2.486
    30   1 H        0.925     0.033     2.544     2.494
    31   1 H        0.925     0.032     2.560     2.502
    32   1 H        0.924     0.024     2.667     2.554
    33   1 H        0.925     0.031     2.571     2.508
    34   1 H        0.925     0.034     2.530     2.487
    35   1 H        0.925     0.033     2.545     2.495
    36   1 H        0.924     0.028     2.610     2.526
    37   1 H        0.924     0.029     2.601     2.522
    38   1 H        0.925     0.034     2.534     2.489
    39   1 H        0.924     0.026     2.639     2.540
    40   1 H        0.924     0.028     2.622     2.532
    41   1 H        0.925     0.036     2.505     2.475
    42   1 H        0.923     0.027     2.635     2.538
    43   1 H        0.925     0.028     2.608     2.526
    44   1 H        0.925     0.036     2.507     2.476
    45   1 H        0.925     0.033     2.545     2.495
    46   1 H        0.923     0.026     2.639     2.540
    47   1 H        0.925     0.034     2.528     2.487
    48   1 H        0.925     0.025     2.660     2.550
    49   1 H        0.925     0.024     2.679     2.560
    50   1 H        0.924     0.028     2.614     2.528
    51   1 H        0.924     0.025     2.660     2.550
    52   1 H        0.924     0.030     2.592     2.518
    53   1 H        0.924     0.036     2.505     2.475
    54   1 H        0.924     0.034     2.529     2.487
    55   1 H        0.925     0.020     2.739     2.588
    56   1 H        0.924     0.048     2.347     2.396
    57   1 H        0.924     0.024     2.668     2.554
    58   1 H        0.923     0.004     2.987     2.703
    59   1 H        0.805     0.282     0.776     1.384
    60   1 H        0.924     0.052     2.292     2.367
    61   1 H        0.924     0.031     2.577     2.511
    62   1 H        0.924     0.048     2.350     2.397
    63   1 H        0.925     0.034     2.536     2.490
    64   1 H        0.925     0.034     2.531     2.488
    65   1 H        0.925     0.033     2.540     2.492
    66   1 H        0.925     0.037     2.492     2.468
    67   1 H        0.924     0.029     2.596     2.520
    68   1 H        0.925     0.040     2.445     2.445
    69   1 H        0.924     0.027     2.632     2.537
    70   1 H        0.924     0.024     2.672     2.556
    71   1 H        0.924     0.025     2.657     2.549
    72   1 H        0.925     0.035     2.516     2.481
    73   1 H        0.925     0.030     2.589     2.516
    74   1 H        0.925     0.045     2.390     2.417

molecular dipole:
                 x           y           z       tot (Debye)
 q only:        0.317       0.198       0.194
   full:        0.224       0.198       0.454       1.382

 projected vibrational frequencies (cm⁻¹)
eigval :       -0.00     0.00     0.00     0.00     0.00     0.00
eigval :       14.73    20.13    28.21    34.88    59.03    65.67
eigval :       76.88    94.66    97.65   112.44   133.23   138.15
eigval :      156.50   179.83   199.51   205.50   212.11   218.73
eigval :      231.03   235.04   237.90   241.72   258.27   267.85
eigval :      280.35   288.43   295.59   307.23   318.35   321.46
eigval :      326.81   353.77   360.54   373.00   391.84   399.11
eigval :      414.18   426.06   432.45   435.17   443.77   456.16
eigval :      477.75   502.35   528.86   537.41   547.39   557.91
eigval :      604.69   618.24   647.86   658.27   705.49   747.23
eigval :      758.60   774.59   814.69   828.68   840.19   857.08
eigval :      869.01   877.31   881.37   883.25   894.73   927.05
eigval :      933.45   947.00   950.24   956.59   959.15   970.74
eigval :      980.23   981.90   985.66   989.05  1001.02  1014.01
eigval :     1021.64  1026.43  1035.68  1040.06  1050.47  1054.67
eigval :     1061.86  1064.17  1070.14  1080.27  1095.83  1098.51
eigval :     1103.59  1110.10  1117.38  1119.06  1134.04  1141.62
eigval :     1144.67  1147.38  1154.27  1159.80  1162.51  1173.23
eigval :     1178.48  1187.50  1189.50  1194.77  1206.93  1213.50
eigval :     1214.96  1221.94  1228.03  1230.07  1233.80  1246.71
eigval :     1254.85  1257.75  1269.70  1280.98  1284.84  1289.91
eigval :     1291.06  1293.19  1295.96  1300.79  1312.33  1313.63
eigval :     1317.88  1323.30  1326.41  1333.55  1337.36  1341.59
eigval :     1343.59  1345.21  1346.90  1349.46  1354.75  1358.36
eigval :     1363.15  1369.58  1376.74  1387.11  1406.83  1409.96
eigval :     1410.40  1415.90  1420.05  1422.88  1465.06  1475.01
eigval :     1480.19  1480.83  1485.72  1489.04  1493.07  1493.80
eigval :     1495.37  1500.92  1501.52  1503.39  1505.41  1507.74
eigval :     1508.40  1512.58  1513.79  1515.13  1518.21  1523.11
eigval :     1530.98  1753.17  2831.41  2882.03  2893.62  2898.16
eigval :     2907.99  2912.56  2919.39  2941.35  2952.74  2955.76
eigval :     2956.82  2962.82  2966.66  2967.92  2971.68  2977.42
eigval :     2978.21  2979.72  2981.45  2984.89  2993.06  2993.91
eigval :     3001.84  3004.12  3007.23  3011.50  3020.14  3024.07
eigval :     3025.11  3025.77  3026.58  3028.97  3030.20  3031.10
eigval :     3032.11  3033.20  3037.07  3039.52  3039.92  3046.24
eigval :     3047.05  3048.18  3050.69  3054.58  3082.91  3556.63

   temp. (K)  partition function   enthalpy   heat capacity  entropy
                                   cal/mol     cal/K/mol   cal/K/mol   J/K/mol
 298.15  VIB  0.640E+12            16716.999    107.875    101.648
         ROT  0.204E+08              888.752      2.981     36.429
         INT  0.131E+20            17605.752    110.856    138.077
         TR   0.736E+28             1481.254      4.968     43.729
         TOT                       19087.0056   115.8240   181.8062   760.6771

       T/K    H(0)-H(T)+PV         H(T)/Eh          T*S/Eh         G(T)/Eh
   ------------------------------------------------------------------------
    298.15    0.304171E-01    0.706894E+00    0.863820E-01    0.620512E+00
   ------------------------------------------------------------------------

         :::::::::::::::::::::::::::::::::::::::::::::::::::::
         ::                  THERMODYNAMIC                  ::
         :::::::::::::::::::::::::::::::::::::::::::::::::::::
         :: total free energy         -84.796475213403 Eh   ::
         ::.................................................::
         :: total energy              -85.416987522732 Eh   ::
         :: zero point energy           0.676477215197 Eh   ::
         :: G(RRHO) w/o ZPVE           -0.055964905868 Eh   ::
         :: G(RRHO) contrib.            0.620512309329 Eh   ::
         :::::::::::::::::::::::::::::::::::::::::::::::::::::

           -------------------------------------------------
          | TOTAL ENERGY              -85.416987522732 Eh   |
          | TOTAL ENTHALPY            -84.710093228041 Eh   |
          | TOTAL FREE ENERGY         -84.796475213403 Eh   |
          | GRADIENT NORM               0.000057560413 Eh/α |
          | HOMO-LUMO GAP               5.001712193472 eV   |
           -------------------------------------------------

 * finished run on 2025/09/13 at 01:50:52.530
