   * xtb version 6.7.1 (edcfbbe) compiled by 'albert@albert-system' on 2024-07-22

   ID    Z sym.   atoms
    1    6 C      1-18, 20-28
    2    8 O      19
    3    1 H      29-74

          program call               : xtb data2507/gas/DCE/DCE_gas_S0_finalOpt.xtbopt.xyz --gfn 2 --spinpol --tblite --uhf 2 --ohess vtight --parallel 40 --molden --ceasefiles --namespace data2507/gas/DCE/DCE_gas_T1_preOpt
 * total energy  :   -85.2620328 Eh     change       -0.1751303E-08 Eh
 * total energy  :   -85.2926853 Eh     change       -0.3065246E-01 Eh
 * total energy  :   -85.2957725 Eh     change       -0.3087268E-02 Eh
 * total energy  :   -85.2963937 Eh     change       -0.6211801E-03 Eh
 * total energy  :   -85.2964942 Eh     change       -0.1004608E-03 Eh
 * total energy  :   -85.2966623 Eh     change       -0.1681017E-03 Eh
 * total energy  :   -85.2967895 Eh     change       -0.1272480E-03 Eh
 * total energy  :   -85.2969437 Eh     change       -0.1541858E-03 Eh
 * total energy  :   -85.2970412 Eh     change       -0.9747425E-04 Eh
 * total energy  :   -85.2970507 Eh     change       -0.9570361E-05 Eh
 * total energy  :   -85.3115241 Eh     change       -0.5914932E-06 Eh
 * total energy  :   -85.3115247 Eh     change       -0.5900246E-06 Eh
 * total energy  :   -85.3115253 Eh     change       -0.6186757E-06 Eh
 * total energy  :   -85.3115260 Eh     change       -0.7253047E-06 Eh
 * total energy  :   -85.3115262 Eh     change       -0.1940439E-06 Eh
 * total energy  :   -85.3115264 Eh     change       -0.1945637E-06 Eh
 * total energy  :   -85.3115266 Eh     change       -0.1333960E-06 Eh
 * total energy  :   -85.3115267 Eh     change       -0.1051003E-06 Eh
 * total energy  :   -85.3115267 Eh     change       -0.7942361E-07 Eh
   *** GEOMETRY OPTIMIZATION CONVERGED AFTER 61 ITERATIONS ***

 final structure:
================
74
 xtb: 6.7.1 (edcfbbe)
C            9.36181908240746       -0.98854019752850       -0.49356453297480
C            8.26635718345408       -0.17039014795208        0.18858230275907
C            8.69123824082128        1.29385577782002        0.27231156739025
C            6.94403965536709       -0.33805488376447       -0.56794717096834
C            5.73924878697245        0.26194093168049        0.15398950793871
C            4.43631231294587       -0.05513172644185       -0.57904259012999
C            3.19474225112285        0.54365438375358        0.10571617004032
C            3.12294757652845        2.03705925274662       -0.21136293268507
C            1.93261446229141       -0.21200054564274       -0.34591584888924
C            1.99455644398469       -1.71590583340700        0.02962046630091
C            0.56089239625815       -2.16220422630885        0.36349438781415
C           -0.29119790860209       -0.99852829049554       -0.13135036006205
C           -1.73918890056882       -0.93233692939499        0.33712867899663
C           -2.48706929179295       -2.22520277834612       -0.11167329950894
C           -3.84782725826815       -1.87222407218250       -0.59139051832783
C           -4.53799329154898       -0.85781099125756        0.19259255066868
C           -5.99977822957015       -0.92858467513353        0.45157204807318
C           -6.73388800995963        0.00379105509966       -0.54162044609048
O           -8.12799680357558       -0.01469757393068       -0.34517880550932
C           -6.15581214601414        1.41755462471780       -0.43536069147348
C           -4.65376900027083        1.43741296990960       -0.70929856508088
C           -3.86650946681813        0.49688816080269        0.23438191801322
C           -3.91297829943851        1.05214482060819        1.66750207620385
C           -2.40313287727146        0.32607103003667       -0.26352871216294
C           -1.55315540990416        1.57883735888746       -0.02186240896242
C           -0.10177261083028        1.42560208103524       -0.48286923373113
C            0.56021288574658        0.23882626585242        0.21874348505382
C            0.66347881809125        0.48201309834804        1.72642960591218
H            9.51621710716582       -0.63781921870417       -1.51198205908110
H            9.09061515076741       -2.04130928233083       -0.53121458888255
H           10.30159860443714       -0.89660099650845        0.04638788016341
H            8.13233595995200       -0.55280974609154        1.20719835106257
H            8.77933559691732        1.71951250328962       -0.72528967323187
H            9.65653451878157        1.37883925052984        0.76680549574099
H            7.97152336385768        1.88061480379809        0.83671781954800
H            7.03722611722832        0.11876741657179       -1.55619665583186
H            6.76268123976929       -1.40587140110993       -0.71632839389585
H            5.68812327663210       -0.14544023058855        1.16701643248460
H            5.86550677370847        1.34134865953460        0.23700841006759
H            4.34171612572090       -1.13909900624409       -0.63740115025749
H            4.49361784650295        0.32373551115969       -1.60217487940822
H            3.31294178572899        0.42001760686798        1.18660987636458
H            2.81767006530644        2.19102685723500       -1.24396546045096
H            4.09662065920333        2.50008969127711       -0.07246870963172
H            2.42233203555031        2.55103580359371        0.43911025836232
H            1.87931517960108       -0.12566278693584       -1.43725093100095
H            2.65562813033073       -1.86777805903234        0.88310033632072
H            2.38853063852537       -2.30136403493393       -0.80054453484289
H            0.30743871203889       -3.10193101370032       -0.12501790522006
H            0.42611756287012       -2.30052394814832        1.43634227689226
H           -0.31685711116960       -1.05372002404207       -1.22734711274095
H           -1.77846566543130       -0.87352038789819        1.42654260713721
H           -1.93189046818083       -2.72787118724843       -0.90389384833673
H           -2.53988669681361       -2.90582808928329        0.74278655807436
H           -4.01301865566480       -1.88265114248185       -1.66567602727836
H           -6.25156362230247       -0.60411670687008        1.46748623291705
H           -6.36059957776430       -1.94978598935838        0.32424939983601
H           -6.59061042887243       -0.37742374496123       -1.55789850649849
H           -8.31729713544942        0.31556748492733        0.54111353031300
H           -6.36266581803733        1.81508751312628        0.56178049567850
H           -6.66503532470519        2.06052375200927       -1.15745268191665
H           -4.28635901222315        2.46072811926421       -0.60947193062221
H           -4.48329377952833        1.11732346894000       -1.73983251757882
H           -3.64295005030626        2.10508270497954        1.68342680396381
H           -3.23304349258626        0.50209669064947        2.31245907134032
H           -4.90941713549999        0.95783330034065        2.08675535490341
H           -2.44749580554094        0.16774400336522       -1.34825707833648
H           -1.55011235462758        1.83219394534883        1.03614530675601
H           -2.00036868758365        2.41692458063890       -0.56059608495166
H           -0.07689831581352        1.26365579735053       -1.56346689518572
H            0.42254601739267        2.35776742278947       -0.27588439643086
H            1.12777632946605        1.44573927798869        1.92060827376779
H            1.26495269775274       -0.28533482232436        2.20318837964686
H           -0.31311466034163        0.48235064303049        2.19957642402182

 projected vibrational frequencies (cm⁻¹)
eigval :       -0.00    -0.00    -0.00     0.00     0.00     0.00
eigval :       15.16    19.11    25.92    38.03    58.15    72.99
eigval :       79.11    85.74    91.82   106.26   112.13   138.49
eigval :      151.77   169.53   182.14   204.90   206.39   211.94
eigval :      222.78   225.64   236.08   241.32   252.85   262.12
eigval :      275.44   282.10   288.23   302.52   313.26   319.15
eigval :      338.39   344.63   364.13   371.42   377.78   385.91
eigval :      402.49   422.97   426.81   441.04   451.39   460.39
eigval :      463.44   470.10   490.89   500.77   518.46   542.54
eigval :      570.92   583.45   604.76   641.63   644.68   686.80
eigval :      759.78   768.03   771.40   831.85   843.23   851.96
eigval :      859.95   869.85   879.64   884.42   890.77   916.21
eigval :      929.59   934.25   943.29   946.84   961.29   966.65
eigval :      971.55   981.18   987.92  1000.19  1003.21  1007.69
eigval :     1019.12  1033.31  1035.06  1036.21  1044.98  1050.27
eigval :     1061.39  1067.24  1074.24  1078.38  1085.47  1095.59
eigval :     1101.79  1105.70  1111.16  1116.79  1118.70  1126.54
eigval :     1132.58  1139.29  1147.11  1152.06  1154.51  1163.96
eigval :     1168.59  1177.89  1186.93  1188.10  1193.74  1195.89
eigval :     1205.57  1210.77  1217.71  1219.22  1224.56  1237.87
eigval :     1242.39  1248.00  1251.87  1267.80  1270.71  1271.71
eigval :     1274.96  1281.00  1287.12  1290.23  1293.27  1297.31
eigval :     1299.41  1310.61  1315.04  1315.34  1328.57  1329.06
eigval :     1335.43  1336.92  1341.42  1345.48  1349.08  1352.68
eigval :     1354.12  1357.45  1362.08  1366.37  1375.63  1383.07
eigval :     1402.61  1409.52  1410.96  1419.53  1422.19  1474.84
eigval :     1475.54  1478.44  1484.76  1487.18  1488.86  1490.45
eigval :     1494.59  1495.68  1498.23  1501.33  1503.36  1506.39
eigval :     1507.33  1508.20  1509.51  1513.96  1515.54  1517.78
eigval :     1521.95  1525.97  2898.79  2907.12  2908.60  2916.55
eigval :     2922.36  2927.69  2939.00  2940.32  2945.59  2954.61
eigval :     2955.54  2959.63  2960.92  2962.44  2962.59  2970.03
eigval :     2971.96  2974.49  2975.76  2977.45  2978.53  2988.87
eigval :     2993.23  2995.90  2997.28  2997.41  3004.46  3009.01
eigval :     3011.34  3022.44  3024.71  3026.52  3029.80  3030.75
eigval :     3031.68  3033.18  3035.19  3037.36  3038.78  3040.29
eigval :     3046.41  3054.33  3056.83  3061.66  3065.82  3529.95

   temp. (K)  partition function   enthalpy   heat capacity  entropy
                                   cal/mol     cal/K/mol   cal/K/mol   J/K/mol
 298.15  VIB  0.123E+13            17059.871    109.615    104.120
         ROT  0.204E+08              888.752      2.981     36.433
         INT  0.251E+20            17948.623    112.595    140.553
         TR   0.736E+28             1481.254      4.968     43.729
         TOT                       19429.8774   117.5636   184.2822   771.0365

       T/K    H(0)-H(T)+PV         H(T)/Eh          T*S/Eh         G(T)/Eh
   ------------------------------------------------------------------------
    298.15    0.309635E-01    0.703497E+00    0.875584E-01    0.615938E+00
   ------------------------------------------------------------------------

         :::::::::::::::::::::::::::::::::::::::::::::::::::::
         ::                  THERMODYNAMIC                  ::
         :::::::::::::::::::::::::::::::::::::::::::::::::::::
         :: total free energy         -84.695588576581 Eh   ::
         ::.................................................::
         :: total energy              -85.311526745067 Eh   ::
         :: zero point energy           0.672533084022 Eh   ::
         :: G(RRHO) w/o ZPVE           -0.056594915536 Eh   ::
         :: G(RRHO) contrib.            0.615938168486 Eh   ::
         :::::::::::::::::::::::::::::::::::::::::::::::::::::

           -------------------------------------------------
          | TOTAL ENERGY              -85.311526745067 Eh   |
          | TOTAL ENTHALPY            -84.608030180503 Eh   |
          | TOTAL FREE ENERGY         -84.695588576581 Eh   |
          | GRADIENT NORM               0.000033019324 Eh/α |
           -------------------------------------------------

 * finished run on 2025/09/13 at 01:58:54.313
