   * xtb version 6.7.1 (edcfbbe) compiled by 'albert@albert-system' on 2024-07-22

   ID    Z sym.   atoms
    1    6 C      1-18, 20-28
    2    8 O      19
    3    1 H      29-74

          program call               : xtb data2507/gas/DCE/DCE_gas_T1_crest.xyz --gfn 2 --spinpol --tblite --uhf 2 --ohess vtight --parallel 40 --molden --ceasefiles --namespace data2507/gas/DCE/DCE_gas_T1_finalOpt
 * total energy  :   -85.3166381 Eh     change       -0.3258123E-08 Eh
 * total energy  :   -85.3167035 Eh     change       -0.6545952E-04 Eh
 * total energy  :   -85.3167171 Eh     change       -0.1359335E-04 Eh
 * total energy  :   -85.3167195 Eh     change       -0.2416677E-05 Eh
 * total energy  :   -85.3167226 Eh     change       -0.3074513E-05 Eh
 * total energy  :   -85.3167252 Eh     change       -0.2614054E-05 Eh
 * total energy  :   -85.3167273 Eh     change       -0.2094416E-05 Eh
 * total energy  :   -85.3167295 Eh     change       -0.2140287E-05 Eh
 * total energy  :   -85.3167322 Eh     change       -0.2729550E-05 Eh
 * total energy  :   -85.3167355 Eh     change       -0.3278791E-05 Eh
 * total energy  :   -85.3168324 Eh     change       -0.1948095E-05 Eh
 * total energy  :   -85.3168338 Eh     change       -0.1408750E-05 Eh
 * total energy  :   -85.3168351 Eh     change       -0.1281134E-05 Eh
 * total energy  :   -85.3168356 Eh     change       -0.4953504E-06 Eh
 * total energy  :   -85.3168359 Eh     change       -0.2725076E-06 Eh
 * total energy  :   -85.3168360 Eh     change       -0.1757461E-06 Eh
 * total energy  :   -85.3168361 Eh     change       -0.1070312E-06 Eh
 * total energy  :   -85.3168361 Eh     change        0.4516481E-07 Eh
 * total energy  :   -85.3168361 Eh     change       -0.9448584E-08 Eh
   *** GEOMETRY OPTIMIZATION CONVERGED AFTER 43 ITERATIONS ***

 final structure:
================
74
 xtb: 6.7.1 (edcfbbe)
C            8.41928612084367       -1.94203391409564       -0.53741413232489
C            6.92961640660634       -1.73818261099381       -0.80938802668282
C            6.15664157180543       -2.99617227988332       -0.42008090922945
C            6.42633864387628       -0.50356048834328       -0.05341523313156
C            5.00894290509343       -0.08098511523248       -0.43607325683090
C            4.61480633573975        1.21214487045879        0.27530856490789
C            3.22074404701324        1.76308165675171       -0.07934508944490
C            3.17494537293235        2.13962390403457       -1.56101368258039
C            2.10635083196003        0.78102420709146        0.31415903256905
C            2.18355458225793        0.39137760271556        1.81055777162677
C            0.74370633912956        0.12594498605573        2.28543969410888
C           -0.06774030596336        0.15094403988014        0.99404725010041
C           -1.57844694659962        0.33105247754354        1.09326265472121
C           -2.19786789563105       -0.75473782862579        2.00386665957766
C           -3.68289077468571       -0.67058860824201        1.92004052246336
C           -4.21853006702260       -0.71933714232925        0.57496274103483
C           -4.65656900213520       -2.00510583017038       -0.04605117356654
C           -5.83381289195874       -1.77984529848678       -1.01738386209401
O           -7.06888148543222       -1.87697048837294       -0.34306175598298
C           -5.69456516142203       -0.42428492278930       -1.73479277940274
C           -4.24991692779369        0.06884601757632       -1.77593983329087
C           -3.71386724081827        0.35210800233546       -0.36211169873639
C           -4.20279531711788        1.72766884125848        0.11176426408606
C           -2.15479559277686        0.24625246857440       -0.33071522402083
C           -1.47285537237785        1.26368502310769       -1.25200661466516
C            0.05225145714882        1.11658083400519       -1.26934466143580
C            0.63220123581618        1.23007615066751        0.14189514619177
C            0.44153302151502        2.64670556427237        0.68769406701558
H            8.58987605428999       -2.10917606565828        0.52420023782957
H            8.99059901282277       -1.06812015080170       -0.84267012475639
H            8.79466704446446       -2.80405917888954       -1.08441779793829
H            6.79454786879688       -1.56467185649096       -1.88338209450568
H            6.56570039313550       -3.86421594758833       -0.93263211290234
H            5.10683260233625       -2.91147682033356       -0.68754476712721
H            6.22832484252345       -3.16701594674060        0.65224592279151
H            6.46806131262948       -0.70081629827039        1.02072546817054
H            7.10418403372198        0.32899737061491       -0.25957986238724
H            4.96104157787543        0.06083287003985       -1.51679658891649
H            4.31028131645751       -0.87228183632548       -0.16643825671691
H            5.35000617031308        1.98242004740335        0.02571980339174
H            4.67835696935287        1.04948571895673        1.35243919444111
H            3.09757349133390        2.67984644038057        0.50716191187129
H            4.10561317981353        2.62251792066394       -1.85229598133141
H            2.36603011836603        2.83512378191696       -1.76423544847634
H            3.03398465608330        1.25997030416246       -2.18338458706798
H            2.23255608414437       -0.12139207060040       -0.29249608949663
H            2.63161108165675        1.20026720431783        2.38795668408271
H            2.80730713945542       -0.49143817388591        1.94496785476604
H            0.65928360635158       -0.82909094235271        2.80239051157746
H            0.40163831986927        0.90571151742010        2.96648486651712
H            0.10406118807629       -0.80708809412983        0.48642281014862
H           -1.80673675161389        1.30437322798600        1.53259241678752
H           -1.85933936795701       -1.73203796568522        1.64251604821958
H           -1.85080956320333       -0.62570018780860        3.02897230771533
H           -4.23985469440850       -0.23483451523920        2.73504872548993
H           -4.96455394899585       -2.71672057513217        0.72224219032600
H           -3.82999881107809       -2.46166127024677       -0.60677402115260
H           -5.86169685855361       -2.59556487276371       -1.74744204724938
H           -7.06124476829748       -1.24004851573449        0.38167415924312
H           -6.30949228600683        0.30679744937579       -1.20450436016346
H           -6.09024126800444       -0.50178586105692       -2.74826617892422
H           -4.20425655425559        0.97855614463883       -2.37682179538313
H           -3.63298429058512       -0.68685591292801       -2.26619004274630
H           -5.28993714100919        1.75040776143311        0.12555342613363
H           -3.85922536689023        2.51670005947017       -0.55213805736843
H           -3.85591857252207        1.93549187484455        1.11971613220144
H           -1.91195385297664       -0.75495886072416       -0.71099732702647
H           -1.72641280242591        2.27552242062675       -0.93940010720744
H           -1.84248391445970        1.13099097529063       -2.27018942277903
H            0.31497535375134        0.14186628926480       -1.68864290540589
H            0.46093802097234        1.88132176242212       -1.92908435175940
H            0.86353028010173        3.37108900632437       -0.00499183328036
H            0.93513616730849        2.76565869390902        1.64697717452255
H           -0.60824383548870        2.88876371082603        0.81895579594274

 projected vibrational frequencies (cm⁻¹)
eigval :       -0.00    -0.00     0.00     0.00     0.00     0.00
eigval :       15.67    17.05    22.79    27.45    55.59    61.20
eigval :       80.28    87.42    94.75   110.53   120.03   126.78
eigval :      153.20   166.26   186.69   196.58   203.90   214.92
eigval :      220.90   230.65   238.06   244.59   251.64   266.53
eigval :      278.19   285.88   290.73   297.52   327.75   336.86
eigval :      350.41   367.06   368.98   372.99   378.02   389.22
eigval :      405.70   411.61   429.16   434.86   437.97   454.64
eigval :      457.04   474.83   480.86   509.87   529.76   540.77
eigval :      555.35   573.90   586.25   622.68   644.88   662.17
eigval :      756.18   764.12   778.72   833.68   846.84   853.95
eigval :      861.50   863.54   877.19   884.06   894.74   896.05
eigval :      932.71   940.09   942.80   945.74   960.02   965.83
eigval :      974.11   981.41   986.59   994.73  1010.17  1011.52
eigval :     1021.95  1026.12  1032.53  1036.61  1040.86  1048.37
eigval :     1058.61  1068.49  1071.17  1074.87  1086.90  1094.53
eigval :     1099.33  1102.42  1105.75  1112.17  1126.33  1129.05
eigval :     1135.53  1145.31  1147.37  1158.20  1160.16  1164.16
eigval :     1169.46  1176.20  1181.54  1184.64  1186.55  1197.34
eigval :     1203.29  1211.80  1214.24  1220.60  1228.78  1232.98
eigval :     1244.20  1249.16  1258.22  1260.51  1265.89  1271.96
eigval :     1280.05  1281.08  1283.91  1288.75  1295.14  1296.14
eigval :     1301.72  1309.35  1314.98  1318.50  1326.27  1328.46
eigval :     1330.50  1335.13  1338.70  1340.21  1346.23  1351.46
eigval :     1353.97  1357.35  1364.06  1367.53  1377.53  1385.25
eigval :     1404.64  1407.70  1410.35  1417.50  1419.74  1456.84
eigval :     1472.90  1483.28  1484.99  1487.19  1489.23  1491.70
eigval :     1492.23  1495.95  1498.16  1499.97  1502.46  1503.01
eigval :     1504.85  1507.07  1509.20  1510.65  1511.99  1518.02
eigval :     1520.64  1523.48  2859.29  2892.72  2899.36  2914.31
eigval :     2922.41  2927.70  2933.86  2936.01  2952.58  2956.37
eigval :     2958.13  2963.15  2964.87  2972.20  2973.49  2974.01
eigval :     2980.77  2984.82  2985.50  2988.52  2990.71  2991.19
eigval :     2993.92  2995.32  3000.25  3000.96  3005.18  3008.60
eigval :     3011.25  3024.61  3024.81  3026.44  3028.98  3029.56
eigval :     3033.15  3033.45  3037.42  3038.23  3040.80  3046.50
eigval :     3046.58  3050.50  3052.75  3053.83  3065.26  3528.74

   temp. (K)  partition function   enthalpy   heat capacity  entropy
                                   cal/mol     cal/K/mol   cal/K/mol   J/K/mol
 298.15  VIB  0.214E+13            17074.434    109.391    104.249
         ROT  0.222E+08              888.752      2.981     36.597
         INT  0.475E+20            17963.186    112.372    140.845
         TR   0.736E+28             1481.254      4.968     43.729
         TOT                       19444.4400   117.3405   184.5746   772.2601

       T/K    H(0)-H(T)+PV         H(T)/Eh          T*S/Eh         G(T)/Eh
   ------------------------------------------------------------------------
    298.15    0.309867E-01    0.703285E+00    0.876973E-01    0.615588E+00
   ------------------------------------------------------------------------

         :::::::::::::::::::::::::::::::::::::::::::::::::::::
         ::                  THERMODYNAMIC                  ::
         :::::::::::::::::::::::::::::::::::::::::::::::::::::
         :: total free energy         -84.701248381540 Eh   ::
         ::.................................................::
         :: total energy              -85.316836113818 Eh   ::
         :: zero point energy           0.672298391774 Eh   ::
         :: G(RRHO) w/o ZPVE           -0.056710659496 Eh   ::
         :: G(RRHO) contrib.            0.615587732279 Eh   ::
         :::::::::::::::::::::::::::::::::::::::::::::::::::::

           -------------------------------------------------
          | TOTAL ENERGY              -85.316836113818 Eh   |
          | TOTAL ENTHALPY            -84.613551034524 Eh   |
          | TOTAL FREE ENERGY         -84.701248381540 Eh   |
          | GRADIENT NORM               0.000147500433 Eh/α |
           -------------------------------------------------

 * finished run on 2025/09/13 at 02:05:56.806
