   * xtb version 6.7.1 (edcfbbe) compiled by 'albert@albert-system' on 2024-07-22

   ID    Z sym.   atoms
    1    6 C      1-10, 12-27, 31-36, 38-57
    2    7 N      11, 37
    3   16 S      28
    4    8 O      29, 30
    5    1 H      58-113

          program call               : xtb data250606/toluene/2TCz-DPS/2TCz-DPS_toluene_T1_crest.xyz --gfn 2 --uhf 2 --gbsa toluene --ohess vtight --parallel 14 --molden --ceasefiles --namespace data250606/toluene/2TCz-DPS/2TCz-DPS_toluene_T1_finalOpt
      * Solvation model:               GBSA
        Solvent                        toluene
        Solvent mass                       9.2140E+01 g/mol
          :  Hamiltonian                  GFN2-xTB          :
 * total energy  :  -157.2190572 Eh     change        0.5613856E-09 Eh
 * total energy  :  -157.2195325 Eh     change       -0.4752409E-03 Eh
 * total energy  :  -157.2198898 Eh     change       -0.3573303E-03 Eh
 * total energy  :  -157.2199658 Eh     change       -0.7599654E-04 Eh
 * total energy  :  -157.2200830 Eh     change       -0.1172324E-03 Eh
 * total energy  :  -157.2201877 Eh     change       -0.1047046E-03 Eh
 * total energy  :  -157.2202723 Eh     change       -0.8456814E-04 Eh
 * total energy  :  -157.2203266 Eh     change       -0.5429060E-04 Eh
 * total energy  :  -157.2203600 Eh     change       -0.3345656E-04 Eh
 * total energy  :  -157.2203952 Eh     change       -0.3519618E-04 Eh
 * total energy  :  -157.2205677 Eh     change       -0.9985087E-06 Eh
 * total energy  :  -157.2205684 Eh     change       -0.6857466E-06 Eh
 * total energy  :  -157.2205691 Eh     change       -0.6372586E-06 Eh
 * total energy  :  -157.2205696 Eh     change       -0.5016599E-06 Eh
 * total energy  :  -157.2205700 Eh     change       -0.4217309E-06 Eh
 * total energy  :  -157.2205704 Eh     change       -0.3972543E-06 Eh
 * total energy  :  -157.2205707 Eh     change       -0.3357792E-06 Eh
 * total energy  :  -157.2205712 Eh     change       -0.5157576E-06 Eh
 * total energy  :  -157.2205712 Eh     change       -0.8326197E-08 Eh
   *** GEOMETRY OPTIMIZATION CONVERGED AFTER 44 ITERATIONS ***

 final structure:
================
113
 xtb: 6.7.1 (edcfbbe)
C            7.44556656111872        2.50063381866079        1.26020107103673
C            6.31779686271651        2.80618817320960        0.26212580456310
C            5.87013408011207        4.25523415337417        0.47626816415665
C            6.84726808201776        2.67813714636357       -1.17467104177943
C            5.19079156541179        1.80743310905439        0.46896679717986
C            3.90895736188957        2.19437592740119        0.84810752379051
C            2.92118519513707        1.23764846734995        1.01724783756928
C            3.20499598457766       -0.13250465098555        0.79602700938003
C            4.48895766480167       -0.53377875835147        0.44987145355794
C            5.45267441147124        0.44081418967447        0.28770557488784
N            2.07563394386218       -0.88264815903128        1.03912336235749
C            1.05686500073724       -0.02406770372432        1.39638503374697
C            1.53822066123360        1.30687619319192        1.41249787624709
C            0.69540422274283        2.34329674950745        1.76945896738764
C           -0.64095719358644        2.08561932449416        2.07764685731189
C           -1.10649710568988        0.77045259163672        1.98568937262160
C           -0.28002185668248       -0.28771703868601        1.65345653958658
C           -1.53191154718815        3.23166493432993        2.52749500565640
C           -1.52350220425748        4.34085648558405        1.46691562940129
C           -0.98077407773373        3.77937224470544        3.85436467233797
C           -2.98538175622168        2.80401857212175        2.74928464898293
C            1.92657538457841       -2.26133846316550        0.90625187822285
C            2.37722357978637       -2.93300827882063       -0.24746740225012
C            2.04944247142797       -4.24687375167956       -0.44840056162927
C            1.28743824541381       -4.94855571729047        0.50640089384363
C            0.93411858711391       -4.30568711702845        1.70877925677069
C            1.24707960185062       -2.98915278629106        1.90493346573852
S            0.18518898072615       -6.19449958752739       -0.08951512408354
O            0.77086444598204       -6.92838126218620       -1.19913372795012
O           -0.35109507592305       -6.98806746831986        1.00385571203708
C           -0.99518179412944       -5.00924130590708       -0.65906220034045
C           -1.80113534830030       -4.37970300077692        0.30995691250858
C           -2.20964021745226       -3.08431284658786        0.13958336994926
C           -1.80019834467288       -2.35817760660783       -0.99645707476882
C           -1.07760394575217       -3.01878402392816       -2.01151723536698
C           -0.68286851526816       -4.31727720858496       -1.84558708707732
N           -2.03031250248572       -0.98777378344402       -1.09404796879306
C           -3.20044514510553       -0.31127289641189       -0.82875378321918
C           -2.99621170971010        1.07890435271423       -1.00918588068806
C           -4.03641282379389        1.97194626328413       -0.80894475838212
C           -5.29266577359685        1.50081755553673       -0.43923195326080
C           -5.47569730631300        0.11646558023869       -0.30068592336519
C           -4.45831224043271       -0.79592937342787       -0.49379557835419
C           -6.47370096735755        2.42660872168860       -0.19732351276740
C           -7.58623677734906        2.09185858138955       -1.20308427839080
C           -6.99018375345287        2.22026482292110        1.23516299793812
C           -6.10900310950294        3.90495366166494       -0.36283912606079
C           -1.62056610202647        1.23913385790482       -1.40375064807990
C           -1.06349911205090       -0.06189040969771       -1.42688197378598
C            0.28577372091254       -0.24068795914600       -1.69203629648533
C            1.04914011706596        0.87223828532318       -1.99461160081124
C            0.50839972344321        2.16043205431889       -2.04913388150136
C           -0.83945449207242        2.33214418425068       -1.73130049988748
C            1.33054157791002        3.36745685820055       -2.46935523739403
C            0.74307543061943        3.91877668151222       -3.77903129028907
C            1.26345126691344        4.44515106713018       -1.37882196166730
C            2.80505540928770        3.02968635167053       -2.70712264839808
H            7.85317198677308        1.50489978376697        1.10918683148896
H            8.25318034885361        3.21976614937891        1.14079246694865
H            7.07399171718736        2.56547564006028        2.28111526022773
H            6.71203853143776        4.92185361084432        0.30088952899573
H            5.52645295300584        4.41354969415614        1.49590991595740
H            5.07823793699264        4.52598672219383       -0.21732336017732
H            6.05098581437754        2.87751885851881       -1.88841971902573
H            7.23884142934320        1.68367253011923       -1.36916492690022
H            7.64807048438739        3.39547787555267       -1.34094973106869
H            3.66801523903394        3.22916730000030        1.02258479474221
H            4.73439546527982       -1.57719265520459        0.32479159826698
H            6.44776816595409        0.12416556642720        0.01746918886401
H            1.08502334629021        3.34745106468668        1.81701323910210
H           -2.14275509658400        0.55229652337802        2.18044718493138
H           -0.66864349256991       -1.29228594782225        1.58708989417991
H           -0.52999285025667        4.75588339514961        1.32971145070296
H           -1.86666411879532        3.93897967640094        0.51772775457353
H           -2.18771936777124        5.14806005657153        1.76860443621426
H            0.03444947315862        4.14889692704395        3.73868681822299
H           -0.97465880016025        2.99792468185798        4.61186455978630
H           -1.60475819002587        4.59727039803004        4.20835423038299
H           -3.06297661748305        2.05714122701096        3.53620960400315
H           -3.57108795011415        3.66890114997655        3.05547009708652
H           -3.41758103398421        2.40575760254427        1.83350704625887
H            2.92971229336513       -2.38868357334866       -0.99862325599026
H            2.33506069759248       -4.76857574513636       -1.34875709264133
H            0.39933953585873       -4.87789724955267        2.45104063809803
H            0.99036959935319       -2.49554446760471        2.83056364503919
H           -2.05458670982459       -4.93951066716957        1.19698008793050
H           -2.79478726829974       -2.59316614252259        0.90257036512971
H           -0.85237553157742       -2.48865558978007       -2.92506506961828
H           -0.11368937622137       -4.83756556030084       -2.60040354874643
H           -3.85513756937745        3.02364700694846       -0.95202937746891
H           -6.45039470382927       -0.26452661267629       -0.03942135935595
H           -4.64302755738981       -1.85506848924898       -0.40026807971603
H           -7.22277529400718        2.21127372826113       -2.22197723981798
H           -7.93720860568358        1.07043703537172       -1.08459545988111
H           -8.43198253681833        2.76065631888689       -1.05801373294640
H           -7.82121852133155        2.89434787126999        1.43127655241155
H           -6.20040480747776        2.42774084264755        1.95381659372329
H           -7.33628732471271        1.20260866199116        1.39247565001321
H           -5.33139137954804        4.19615603529183        0.33860851866333
H           -6.98651569337552        4.51684387663363       -0.16412040166747
H           -5.77808673979369        4.11670074028276       -1.37697208476118
H            0.73189786246631       -1.22255132335844       -1.65410503822292
H            2.09582002095901        0.71986811423136       -2.19591352322980
H           -1.28587286703138        3.31336351127984       -1.74870448201968
H            0.78081469313528        3.16035143347571       -4.55867557125347
H           -0.29195716072377        4.22361244576283       -3.65095579024648
H            1.31590853945978        4.78226663645889       -4.11049435711250
H            1.62863179315384        4.03657990076072       -0.44080184624177
H            1.88321535839293        5.29462116288385       -1.65821545711752
H            0.24915467994372        4.80236684983898       -1.23102663602642
H            3.33834146270614        3.93392600081538       -2.99475229925153
H            3.26444452835553        2.63517617917296       -1.80301858274911
H            2.92120294941100        2.30768278827750       -3.51227127492128

          :  Hamiltonian                  GFN2-xTB          :
         :: gradient norm              0.000068408270 Eh/a0 ::
         :: HOMO-LUMO gap              0.429145575239 eV    ::
         :: SCC energy              -159.823388231230 Eh    ::
         :: -> dispersion             -0.172919594444 Eh    ::
         :: -> Gsolv                  -0.066086138282 Eh    ::
         :: repulsion energy           2.602816982782 Eh    ::

    * Orbital Energies and Occupations

         #    Occupation            Energy/Eh            Energy/eV
      -------------------------------------------------------------
         1        2.0000           -0.7533202             -20.4989
       ...           ...                  ...                  ...
       135        2.0000           -0.4142993             -11.2737
       136        2.0000           -0.4129152             -11.2360
       137        2.0000           -0.4097184             -11.1490
       138        2.0000           -0.4066588             -11.0657
       139        2.0000           -0.4062139             -11.0536
       140        2.0000           -0.4045937             -11.0096
       141        2.0000           -0.3977309             -10.8228
       142        2.0000           -0.3903219             -10.6212
       143        2.0000           -0.3856800             -10.4949
       144        2.0000           -0.3839477             -10.4477
       145        1.9062           -0.3683571             -10.0235
       146        1.0938           -0.3640466              -9.9062
       147        0.9997           -0.2685143              -7.3066 (HOMO)
       148        0.0002           -0.2527435              -6.8775 (LUMO)
       149        0.0000           -0.2502972              -6.8109
       150                         -0.2360989              -6.4246
       151                         -0.2353037              -6.4029
       152                         -0.2322496              -6.3198
       153                         -0.2290726              -6.2334
       154                         -0.2209434              -6.0122
       155                         -0.2021883              -5.5018
       156                         -0.1988564              -5.4112
       157                         -0.1942763              -5.2865
       158                         -0.1931029              -5.2546
       ...                                ...                  ...
       289                          1.1704535              31.8497
      -------------------------------------------------------------
                  HL-Gap            0.0157708 Eh            0.4291 eV

     #   Z          covCN         q      C6AA      α(0)
     1   6 C        3.761    -0.106    22.577     6.773
     2   6 C        3.903     0.027    20.056     6.366
     3   6 C        3.761    -0.111    22.667     6.787
     4   6 C        3.761    -0.108    22.605     6.778
     5   6 C        2.972     0.012    27.755     8.642
     6   6 C        2.916    -0.038    28.955     8.824
     7   6 C        3.063    -0.013    28.265     8.718
     8   6 C        3.078     0.042    26.982     8.516
     9   6 C        2.907    -0.043    29.058     8.839
    10   6 C        2.928    -0.038    28.949     8.824
    11   7 N        2.798    -0.001    21.274     6.850
    12   6 C        3.084     0.041    26.989     8.516
    13   6 C        3.059    -0.013    28.290     8.722
    14   6 C        2.919    -0.033    28.833     8.805
    15   6 C        2.972     0.013    27.719     8.636
    16   6 C        2.926    -0.042    29.032     8.836
    17   6 C        2.908    -0.042    29.037     8.836
    18   6 C        3.903     0.028    20.056     6.366
    19   6 C        3.762    -0.109    22.637     6.782
    20   6 C        3.762    -0.107    22.581     6.774
    21   6 C        3.761    -0.108    22.612     6.779
    22   6 C        2.912     0.036    27.204     8.553
    23   6 C        2.914    -0.043    29.059     8.840
    24   6 C        2.964    -0.041    29.014     8.835
    25   6 C        2.963    -0.107    30.701     9.088
    26   6 C        2.967    -0.041    29.004     8.834
    27   6 C        2.916    -0.042    29.054     8.839
    28  16 S        3.877     0.887   109.967    17.650
    29   8 O        0.860    -0.590    25.868     6.819
    30   8 O        0.860    -0.590    25.868     6.819
    31   6 C        2.963    -0.107    30.704     9.089
    32   6 C        2.964    -0.041    29.014     8.835
    33   6 C        2.914    -0.043    29.060     8.840
    34   6 C        2.912     0.035    27.206     8.553
    35   6 C        2.916    -0.042    29.054     8.839
    36   6 C        2.967    -0.041    29.005     8.834
    37   7 N        2.798    -0.000    21.272     6.850
    38   6 C        3.078     0.042    26.983     8.516
    39   6 C        3.063    -0.013    28.265     8.718
    40   6 C        2.916    -0.038    28.954     8.824
    41   6 C        2.972     0.012    27.754     8.641
    42   6 C        2.928    -0.038    28.949     8.824
    43   6 C        2.907    -0.043    29.057     8.839
    44   6 C        3.903     0.028    20.056     6.366
    45   6 C        3.761    -0.106    22.577     6.773
    46   6 C        3.761    -0.108    22.606     6.778
    47   6 C        3.761    -0.111    22.668     6.787
    48   6 C        3.059    -0.013    28.288     8.722
    49   6 C        3.084     0.041    26.989     8.516
    50   6 C        2.908    -0.042    29.039     8.836
    51   6 C        2.926    -0.042    29.033     8.836
    52   6 C        2.972     0.013    27.718     8.636
    53   6 C        2.919    -0.033    28.833     8.805
    54   6 C        3.903     0.028    20.056     6.366
    55   6 C        3.762    -0.107    22.581     6.774
    56   6 C        3.762    -0.109    22.638     6.782
    57   6 C        3.761    -0.108    22.611     6.779
    58   1 H        0.925     0.037     2.492     2.469
    59   1 H        0.925     0.041     2.431     2.438
    60   1 H        0.925     0.034     2.527     2.486
    61   1 H        0.925     0.039     2.459     2.452
    62   1 H        0.925     0.038     2.471     2.458
    63   1 H        0.925     0.044     2.401     2.423
    64   1 H        0.925     0.040     2.455     2.450
    65   1 H        0.925     0.037     2.489     2.467
    66   1 H        0.925     0.041     2.436     2.441
    67   1 H        0.926     0.055     2.263     2.352
    68   1 H        0.926     0.037     2.490     2.468
    69   1 H        0.926     0.040     2.443     2.444
    70   1 H        0.926     0.050     2.320     2.382
    71   1 H        0.926     0.046     2.375     2.410
    72   1 H        0.926     0.034     2.527     2.486
    73   1 H        0.925     0.043     2.406     2.426
    74   1 H        0.925     0.042     2.426     2.436
    75   1 H        0.925     0.041     2.429     2.437
    76   1 H        0.925     0.040     2.445     2.445
    77   1 H        0.925     0.032     2.551     2.498
    78   1 H        0.925     0.043     2.408     2.427
    79   1 H        0.925     0.034     2.537     2.491
    80   1 H        0.925     0.040     2.455     2.450
    81   1 H        0.925     0.040     2.448     2.447
    82   1 H        0.926     0.049     2.326     2.385
    83   1 H        0.926     0.034     2.531     2.488
    84   1 H        0.926     0.034     2.533     2.489
    85   1 H        0.926     0.048     2.349     2.397
    86   1 H        0.926     0.034     2.531     2.488
    87   1 H        0.926     0.049     2.327     2.386
    88   1 H        0.926     0.048     2.349     2.397
    89   1 H        0.926     0.034     2.533     2.489
    90   1 H        0.926     0.055     2.263     2.352
    91   1 H        0.926     0.041     2.442     2.444
    92   1 H        0.926     0.037     2.489     2.467
    93   1 H        0.925     0.034     2.527     2.486
    94   1 H        0.925     0.037     2.493     2.469
    95   1 H        0.925     0.041     2.430     2.438
    96   1 H        0.925     0.041     2.435     2.440
    97   1 H        0.925     0.039     2.456     2.451
    98   1 H        0.925     0.037     2.489     2.467
    99   1 H        0.925     0.044     2.399     2.422
   100   1 H        0.925     0.039     2.459     2.452
   101   1 H        0.925     0.038     2.471     2.458
   102   1 H        0.926     0.034     2.524     2.484
   103   1 H        0.926     0.046     2.374     2.410
   104   1 H        0.926     0.050     2.320     2.382
   105   1 H        0.925     0.033     2.551     2.498
   106   1 H        0.925     0.040     2.445     2.445
   107   1 H        0.925     0.043     2.408     2.427
   108   1 H        0.925     0.042     2.424     2.435
   109   1 H        0.925     0.042     2.429     2.437
   110   1 H        0.925     0.043     2.406     2.425
   111   1 H        0.925     0.039     2.456     2.451
   112   1 H        0.925     0.040     2.450     2.448
   113   1 H        0.925     0.034     2.535     2.490

molecular dipole:
                 x           y           z       tot (Debye)
 q only:       -0.279       9.086       0.113
   full:       -0.255       8.286       0.103      21.072

 projected vibrational frequencies (cm⁻¹)
eigval :       -0.00    -0.00    -0.00    -0.00     0.00     0.00
eigval :        8.35    17.70    26.66    28.46    31.13    33.04
eigval :       35.18    38.85    43.20    46.09    56.13    66.67
eigval :       69.15    70.02    77.21    83.45    88.53    98.42
eigval :      100.47   108.14   127.76   131.98   140.75   148.48
eigval :      160.54   162.39   163.61   167.76   177.31   183.49
eigval :      187.75   189.38   191.19   193.95   202.27   222.99
eigval :      228.63   229.17   232.83   235.52   237.99   245.64
eigval :      246.42   255.32   268.29   268.97   276.89   277.34
eigval :      288.64   306.24   306.67   310.04   317.86   319.45
eigval :      322.37   328.70   333.23   333.58   338.85   340.51
eigval :      352.56   353.17   354.79   357.76   374.29   376.79
eigval :      382.01   388.36   392.62   400.64   401.61   402.42
eigval :      404.47   411.50   413.27   421.01   429.17   440.35
eigval :      441.09   445.29   445.70   463.03   463.51   467.61
eigval :      468.39   489.09   489.48   515.99   516.25   524.28
eigval :      527.27   566.27   568.88   582.25   583.54   586.93
eigval :      587.46   596.07   597.79   615.32   620.28   633.42
eigval :      638.48   640.62   641.60   678.06   686.96   689.87
eigval :      690.90   703.74   704.62   714.08   714.32   736.12
eigval :      736.45   777.27   792.76   820.32   820.81   822.32
eigval :      823.93   830.39   830.89   837.95   844.18   866.90
eigval :      867.64   870.94   871.86   873.01   874.24   892.84
eigval :      897.69   902.03   903.59   908.08   909.54   916.03
eigval :      917.71   918.59   920.19   922.84   923.44   933.57
eigval :      935.38   958.05   958.23   960.66   961.29   961.61
eigval :      961.75   961.81   962.26   962.78   963.68   964.83
eigval :      967.53   979.45   980.13  1027.71  1029.38  1029.69
eigval :     1032.25  1032.57  1033.07  1033.17  1034.66  1037.59
eigval :     1037.67  1038.74  1039.57  1091.11  1102.38  1109.51
eigval :     1114.42  1117.77  1125.20  1126.02  1133.44  1137.16
eigval :     1152.64  1153.14  1167.27  1167.95  1174.71  1206.48
eigval :     1206.77  1219.44  1220.82  1221.02  1222.34  1222.61
eigval :     1224.17  1224.39  1225.43  1227.03  1227.66  1233.95
eigval :     1236.57  1240.14  1242.20  1250.59  1252.49  1274.36
eigval :     1275.90  1283.46  1283.91  1288.50  1293.42  1319.37
eigval :     1322.51  1329.13  1333.66  1345.95  1348.03  1360.82
eigval :     1360.98  1372.78  1397.25  1398.08  1398.68  1399.80
eigval :     1400.37  1400.57  1402.30  1403.03  1406.06  1406.49
eigval :     1408.65  1410.73  1413.05  1425.02  1425.33  1426.50
eigval :     1426.86  1438.81  1439.93  1441.31  1443.77  1448.95
eigval :     1449.28  1468.12  1468.54  1482.85  1485.71  1487.87
eigval :     1487.99  1488.12  1489.76  1491.09  1491.85  1495.21
eigval :     1496.13  1497.23  1498.89  1499.29  1501.04  1502.12
eigval :     1502.40  1502.90  1510.12  1510.30  1512.48  1512.86
eigval :     1516.37  1517.09  1519.28  1521.18  1548.04  1548.57
eigval :     1557.94  1558.94  1560.21  1560.78  1570.96  1576.45
eigval :     1584.31  3018.09  3018.75  3022.57  3022.79  3023.23
eigval :     3023.32  3023.39  3023.79  3024.69  3024.83  3026.42
eigval :     3026.58  3028.38  3028.58  3028.70  3028.84  3029.44
eigval :     3029.89  3032.59  3032.68  3034.38  3034.78  3035.65
eigval :     3035.87  3040.38  3041.45  3044.38  3045.82  3046.03
eigval :     3046.22  3049.67  3049.81  3051.36  3052.35  3056.68
eigval :     3058.57  3078.37  3078.76  3081.13  3081.71  3087.97
eigval :     3088.73  3091.17  3092.27  3093.03  3094.10  3095.59
eigval :     3096.93  3099.46  3100.55  3100.76  3101.23  3122.99
eigval :     3123.82  3127.40  3127.88

   temp. (K)  partition function   enthalpy   heat capacity  entropy
                                   cal/mol     cal/K/mol   cal/K/mol   J/K/mol
 298.15  VIB  0.702E+24            33112.518    206.382    202.933
         ROT  0.527E+08              888.752      2.981     38.315
         INT  0.370E+32            34001.270    209.363    241.248
         TR   0.208E+29             1481.254      4.968     45.794
         TOT                       35482.5241   214.3311   287.0418  1200.9827

       T/K    H(0)-H(T)+PV         H(T)/Eh          T*S/Eh         G(T)/Eh
   ------------------------------------------------------------------------
    298.15    0.565450E-01    0.985583E+00    0.136383E+00    0.849200E+00
   ------------------------------------------------------------------------

         :::::::::::::::::::::::::::::::::::::::::::::::::::::
         ::                  THERMODYNAMIC                  ::
         :::::::::::::::::::::::::::::::::::::::::::::::::::::
         :: total free energy        -156.371370788580 Eh   ::
         ::.................................................::
         :: total energy             -157.220571250485 Eh   ::
         :: zero point energy           0.929038263361 Eh   ::
         :: G(RRHO) w/o ZPVE           -0.079837801456 Eh   ::
         :: G(RRHO) contrib.            0.849200461905 Eh   ::
         :::::::::::::::::::::::::::::::::::::::::::::::::::::

           -------------------------------------------------
          | TOTAL ENERGY             -157.220571250485 Eh   |
          | TOTAL ENTHALPY           -156.234987985663 Eh   |
          | TOTAL FREE ENERGY        -156.371370788580 Eh   |
          | GRADIENT NORM               0.000066484159 Eh/α |
          | HOMO-LUMO GAP               0.429145693779 eV   |
           -------------------------------------------------

 * finished run on 2025/06/07 at 00:18:11.895
