   * xtb version 6.7.1 (edcfbbe) compiled by 'albert@albert-system' on 2024-07-22

   ID    Z sym.   atoms
    1    6 C      1-10, 12-27, 31-36, 38-57
    2    7 N      11, 37
    3   16 S      28
    4    8 O      29, 30
    5    1 H      58-113

          program call               : xtb data250606/toluene/2TCz-DPS/2TCz-DPS_toluene_S0_crest.xyz --gfn 2 --gbsa toluene --ohess vtight --parallel 14 --molden --ceasefiles --namespace data250606/toluene/2TCz-DPS/2TCz-DPS_toluene_S0_finalOpt
      * Solvation model:               GBSA
        Solvent                        toluene
        Solvent mass                       9.2140E+01 g/mol
          :  Hamiltonian                  GFN2-xTB          :
 * total energy  :  -157.3101956 Eh     change       -0.1459171E-08 Eh
 * total energy  :  -157.3103861 Eh     change       -0.1905693E-03 Eh
 * total energy  :  -157.3105432 Eh     change       -0.1570343E-03 Eh
 * total energy  :  -157.3105960 Eh     change       -0.5280049E-04 Eh
 * total energy  :  -157.3106751 Eh     change       -0.7916970E-04 Eh
 * total energy  :  -157.3107470 Eh     change       -0.7190152E-04 Eh
 * total energy  :  -157.3108083 Eh     change       -0.6129112E-04 Eh
 * total energy  :  -157.3108641 Eh     change       -0.5576395E-04 Eh
 * total energy  :  -157.3109109 Eh     change       -0.4679463E-04 Eh
 * total energy  :  -157.3109488 Eh     change       -0.3787452E-04 Eh
 * total energy  :  -157.3116403 Eh     change       -0.1878728E-06 Eh
 * total energy  :  -157.3116404 Eh     change       -0.1249799E-06 Eh
 * total energy  :  -157.3116405 Eh     change       -0.1062939E-06 Eh
 * total energy  :  -157.3116406 Eh     change       -0.1178298E-06 Eh
 * total energy  :  -157.3116408 Eh     change       -0.1537927E-06 Eh
 * total energy  :  -157.3116409 Eh     change       -0.1834967E-06 Eh
 * total energy  :  -157.3116411 Eh     change       -0.2022126E-06 Eh
 * total energy  :  -157.3116414 Eh     change       -0.2126108E-06 Eh
 * total energy  :  -157.3116414 Eh     change       -0.2358661E-08 Eh
   *** GEOMETRY OPTIMIZATION CONVERGED AFTER 94 ITERATIONS ***

 final structure:
================
113
 xtb: 6.7.1 (edcfbbe)
C            8.97375491942328        2.91488173668701       -0.55650555932469
C            7.56944169704483        3.51252497153166       -0.42538477587543
C            7.57362285701180        4.47873765076832        0.76890236980316
C            7.25925760683061        4.28425484697696       -1.71699313650538
C            6.49311296707129        2.45717496023786       -0.20576567810758
C            5.16939632046659        2.86050773739881       -0.07646496051226
C            4.17174113467314        1.91935719894302        0.12132747704444
C            4.49602937925884        0.54703306946268        0.18754182638734
C            5.81132636208550        0.13146901682619        0.07841322578147
C            6.78634816883678        1.09308094768298       -0.12134901934227
N            3.34870343145644       -0.18631316594518        0.43139844167970
C            2.27862937016479        0.69702001153987        0.48762083294506
C            2.74481615138875        2.01218266081538        0.29196288605830
C            1.85031891619919        3.07451194425020        0.24315967167375
C            0.49087045428270        2.83856660923535        0.37709057255297
C            0.05567032430439        1.52068936446979        0.56899460775990
C            0.92210185443288        0.44760557075325        0.62268125483171
C           -0.55062163974343        3.94596791981450        0.29859443586948
C            0.07388170353329        5.32750780758324        0.08002753628302
C           -1.34938375205820        3.98125193458915        1.60886580057972
C           -1.50035048501529        3.65714273230464       -0.87391095203925
C            3.19139057715482       -1.56995093210906        0.37645264360976
C            3.68125319152475       -2.30072300709630       -0.70703265355867
C            3.29556037604263       -3.61772269485328       -0.87591320423048
C            2.46163891105122       -4.21080608260266        0.05391090559409
C            2.07244402065036       -3.53180457366514        1.19738880236097
C            2.44205070866667       -2.21392565577620        1.36521227121177
S            1.46724129482410       -5.63237213761113       -0.40405744322677
O            1.92466770500973       -6.16865179943197       -1.66700393715487
O            1.32425454284137       -6.56419203965713        0.69308988028593
C           -0.04344669396462       -4.68119422576387       -0.59612733243652
C           -1.00011627428082       -4.69443956546264        0.40203917706150
C           -1.94854782408734       -3.69036839121738        0.45111538677284
C           -1.91286608090397       -2.64493267642077       -0.47601279276934
C           -0.98570753833358       -2.68579884890327       -1.52187055640847
C           -0.05419885660431       -3.70204903572565       -1.57603909189833
N           -2.75434394236578       -1.54774593267056       -0.32370122965447
C           -3.44474742185464       -0.88117542366296       -1.32499268103305
C           -4.10924895342099        0.23517124017406       -0.77405339499103
C           -4.89383657114528        1.04993224014157       -1.57442367179076
C           -5.03865745704565        0.76609507779486       -2.92659288616620
C           -4.39751652327800       -0.36437356351606       -3.44019203177842
C           -3.60914467310894       -1.19510778049522       -2.66298211265891
C           -5.90020286684293        1.68088433901450       -3.78694994193398
C           -7.33915207767161        1.66251354245162       -3.24924814025973
C           -5.33834129947122        3.10903221793567       -3.71893335568037
C           -5.93688213748518        1.25555467659201       -5.25799241388043
C           -3.79695333849931        0.24771437072969        0.63089282931506
C           -2.96268738470486       -0.86378852125939        0.86673605548327
C           -2.44435979503293       -1.08300816769834        2.13346223356916
C           -2.82337731958090       -0.22795333221929        3.14963200292038
C           -3.68910721855050        0.85546034247649        2.95230567140037
C           -4.15690058361863        1.09712029743812        1.66964722776580
C           -4.10776205800250        1.69471037624667        4.15183223459087
C           -2.87018741090144        2.22511677517819        4.88979398032905
C           -4.97099314806893        2.89609008387355        3.75448405145123
C           -4.92791040663588        0.80330356730825        5.09771253852283
H            9.69338318331942        3.71563740501550       -0.71658247703632
H            9.26056642615630        2.38374224795678        0.34842455569211
H            9.03423176840554        2.23614864654782       -1.40441748977065
H            6.61920810431557        4.98778957566636        0.87072194162006
H            8.34909796955017        5.23117340424690        0.64006691541498
H            7.76963669482315        3.93514707801927        1.69129731994705
H            8.02525434497310        5.03562109579940       -1.89803947599673
H            6.29768786044595        4.78654440548868       -1.65818737570575
H            7.23642077519172        3.60318460199121       -2.56570040394639
H            4.90078248246807        3.90446404029661       -0.12229820002152
H            6.07803938488768       -0.91247075222176        0.15271818524038
H            7.80584562203254        0.75577620820545       -0.20799739790447
H            2.23719608279653        4.06711006971857        0.08351674932580
H           -0.99935128212213        1.31992287773186        0.67408538994788
H            0.54112279198088       -0.55476573779588        0.74635091259601
H            0.74039867017164        5.58987524056964        0.89869160228641
H            0.62592558026091        5.36338994505001       -0.85651453701008
H           -0.71282765948427        6.07816267021918        0.03404353605675
H           -0.68121279886630        4.14966928004532        2.45177764636409
H           -1.88008158407026        3.04637509537446        1.76923857936047
H           -2.07792985202054        4.78930546969020        1.58049868374811
H           -0.94178101177879        3.59568239845882       -1.80598892951263
H           -2.03113170616321        2.71973891686375       -0.73251758995351
H           -2.23464037964379        4.45489687108785       -0.96447476322436
H            4.29405226206540       -1.81207647564344       -1.44886410956222
H            3.59005204704599       -4.18298156621894       -1.74667505100412
H            1.45577396428121       -4.03956116266125        1.92233931324521
H            2.12571530932112       -1.66054430131434        2.23581493709837
H           -0.97543276338889       -5.48391510344298        1.13729345762227
H           -2.70727332853380       -3.69746594892514        1.21804703976999
H           -0.96020103795002       -1.88682202094805       -2.24600632490266
H            0.69800660527011       -3.72732875786417       -2.34872313415750
H           -5.38908986614148        1.89853245372917       -1.12911322327881
H           -4.51170585255655       -0.62131197568973       -4.48023401707540
H           -3.15257734002294       -2.07143485154275       -3.09776076608964
H           -7.38401849935400        2.01950131309259       -2.22396559173541
H           -7.97628203036541        2.29911970237809       -3.85996451418645
H           -7.73745527777303        0.64980517149849       -3.27474069681105
H           -5.92118707367548        3.77167390244521       -4.35554345747205
H           -4.30472378429008        3.12394144708392       -4.05927784742516
H           -5.36888891297958        3.49900532160246       -2.70561860667719
H           -4.94000550384152        1.26338792283994       -5.69329062933614
H           -6.55411022186112        1.95362565781034       -5.82047276770176
H           -6.36886831523204        0.26359558446799       -5.37030071380188
H           -1.75871877421497       -1.89231642587080        2.33244611094389
H           -2.42956494391960       -0.41737238276855        4.13616782561001
H           -4.79997265301853        1.93332449195072        1.45229245834190
H           -2.25457916351592        1.41726350516384        5.27497914195847
H           -2.26228720248334        2.83037485705161        4.22192520985755
H           -3.17748435636495        2.84341068854677        5.73085577828307
H           -5.90170587534307        2.57573206606191        3.29165347155327
H           -5.22182426499634        3.47179525658452        4.64332058627340
H           -4.43563058948321        3.54988206928615        3.07005696208041
H           -4.33953105508104       -0.03872933421040        5.45317323094411
H           -5.26015705664661        1.37713605736494        5.96053152426231
H           -5.80496563489007        0.41322733849536        4.58433457163872

          :  Hamiltonian                  GFN2-xTB          :
         :: gradient norm              0.000034530874 Eh/a0 ::
         :: HOMO-LUMO gap              2.373402646462 eV    ::
         :: SCC energy              -159.933521897123 Eh    ::
         :: -> dispersion             -0.154127871196 Eh    ::
         :: -> Gsolv                  -0.062227372890 Eh    ::
         :: repulsion energy           2.621880538008 Eh    ::

    * Orbital Energies and Occupations

         #    Occupation            Energy/Eh            Energy/eV
      -------------------------------------------------------------
         1        2.0000           -0.7780619             -21.1721
       ...           ...                  ...                  ...
       134        2.0000           -0.4165423             -11.3347
       135        2.0000           -0.4155633             -11.3081
       136        2.0000           -0.4112620             -11.1910
       137        2.0000           -0.4093726             -11.1396
       138        2.0000           -0.4084341             -11.1141
       139        2.0000           -0.4075954             -11.0912
       140        2.0000           -0.4067902             -11.0693
       141        2.0000           -0.3972602             -10.8100
       142        2.0000           -0.3961154             -10.7788
       143        2.0000           -0.3764584             -10.2440
       144        2.0000           -0.3749080             -10.2018
       145        2.0000           -0.3620580              -9.8521
       146        2.0000           -0.3601333              -9.7997 (HOMO)
       147                         -0.2729124              -7.4263 (LUMO)
       148                         -0.2562267              -6.9723
       149                         -0.2492740              -6.7831
       150                         -0.2486235              -6.7654
       151                         -0.2419027              -6.5825
       152                         -0.2403629              -6.5406
       153                         -0.2203994              -5.9974
       154                         -0.2187375              -5.9522
       155                         -0.1949670              -5.3053
       156                         -0.1923063              -5.2329
       157                         -0.1851798              -5.0390
       ...                                ...                  ...
       289                          1.1791020              32.0850
      -------------------------------------------------------------
                  HL-Gap            0.0872209 Eh            2.3734 eV

     #   Z          covCN         q      C6AA      α(0)
     1   6 C        3.761    -0.107    22.590     6.775
     2   6 C        3.902     0.025    20.098     6.373
     3   6 C        3.761    -0.105    22.554     6.770
     4   6 C        3.761    -0.105    22.556     6.770
     5   6 C        2.972    -0.001    28.047     8.687
     6   6 C        2.920    -0.040    28.994     8.830
     7   6 C        3.064    -0.018    28.393     8.738
     8   6 C        3.070     0.042    26.999     8.520
     9   6 C        2.909    -0.055    29.364     8.886
    10   6 C        2.928    -0.044    29.093     8.846
    11   7 N        2.801    -0.043    22.071     6.977
    12   6 C        3.076     0.041    27.001     8.519
    13   6 C        3.062    -0.018    28.392     8.738
    14   6 C        2.918    -0.044    29.095     8.845
    15   6 C        2.972    -0.000    28.029     8.684
    16   6 C        2.931    -0.038    28.945     8.823
    17   6 C        2.909    -0.054    29.344     8.883
    18   6 C        3.903     0.025    20.103     6.373
    19   6 C        3.761    -0.107    22.589     6.775
    20   6 C        3.761    -0.102    22.495     6.761
    21   6 C        3.761    -0.104    22.531     6.766
    22   6 C        2.915     0.074    26.342     8.416
    23   6 C        2.923    -0.038    28.950     8.823
    24   6 C        2.952    -0.024    28.612     8.773
    25   6 C        2.970    -0.084    30.105     9.000
    26   6 C        2.974    -0.030    28.738     8.793
    27   6 C        2.924    -0.038    28.954     8.824
    28  16 S        3.838     0.947   108.195    17.507
    29   8 O        0.860    -0.571    25.425     6.760
    30   8 O        0.860    -0.571    25.416     6.759
    31   6 C        2.969    -0.084    30.111     9.001
    32   6 C        2.952    -0.025    28.631     8.776
    33   6 C        2.924    -0.041    29.007     8.832
    34   6 C        2.912     0.074    26.350     8.417
    35   6 C        2.923    -0.040    28.990     8.830
    36   6 C        2.968    -0.029    28.729     8.792
    37   7 N        2.799    -0.039    21.995     6.966
    38   6 C        3.068     0.041    27.007     8.521
    39   6 C        3.064    -0.018    28.382     8.736
    40   6 C        2.920    -0.040    28.986     8.829
    41   6 C        2.972     0.000    28.018     8.682
    42   6 C        2.928    -0.043    29.080     8.844
    43   6 C        2.909    -0.055    29.361     8.885
    44   6 C        3.903     0.025    20.095     6.372
    45   6 C        3.761    -0.105    22.552     6.770
    46   6 C        3.761    -0.106    22.566     6.772
    47   6 C        3.761    -0.107    22.591     6.776
    48   6 C        3.063    -0.018    28.384     8.736
    49   6 C        3.071     0.042    26.994     8.519
    50   6 C        2.909    -0.054    29.340     8.882
    51   6 C        2.931    -0.039    28.962     8.826
    52   6 C        2.972     0.000    28.021     8.683
    53   6 C        2.918    -0.044    29.092     8.845
    54   6 C        3.902     0.026    20.088     6.371
    55   6 C        3.761    -0.107    22.591     6.776
    56   6 C        3.761    -0.108    22.603     6.777
    57   6 C        3.762    -0.104    22.541     6.768
    58   1 H        0.925     0.037     2.492     2.469
    59   1 H        0.925     0.035     2.514     2.480
    60   1 H        0.925     0.035     2.514     2.480
    61   1 H        0.925     0.037     2.490     2.468
    62   1 H        0.925     0.038     2.479     2.462
    63   1 H        0.925     0.032     2.557     2.500
    64   1 H        0.925     0.038     2.480     2.463
    65   1 H        0.925     0.037     2.489     2.467
    66   1 H        0.925     0.032     2.556     2.500
    67   1 H        0.926     0.034     2.531     2.488
    68   1 H        0.926     0.027     2.636     2.539
    69   1 H        0.926     0.039     2.462     2.454
    70   1 H        0.926     0.041     2.439     2.442
    71   1 H        0.926     0.033     2.545     2.495
    72   1 H        0.926     0.022     2.702     2.571
    73   1 H        0.925     0.036     2.510     2.477
    74   1 H        0.925     0.035     2.512     2.479
    75   1 H        0.925     0.037     2.489     2.467
    76   1 H        0.925     0.030     2.585     2.514
    77   1 H        0.925     0.039     2.469     2.457
    78   1 H        0.925     0.037     2.492     2.469
    79   1 H        0.925     0.031     2.579     2.511
    80   1 H        0.925     0.037     2.487     2.466
    81   1 H        0.925     0.039     2.463     2.454
    82   1 H        0.926     0.067     2.124     2.279
    83   1 H        0.926     0.061     2.183     2.311
    84   1 H        0.926     0.055     2.258     2.350
    85   1 H        0.926     0.068     2.107     2.270
    86   1 H        0.926     0.060     2.201     2.320
    87   1 H        0.926     0.067     2.114     2.274
    88   1 H        0.926     0.067     2.117     2.275
    89   1 H        0.926     0.054     2.272     2.357
    90   1 H        0.926     0.036     2.503     2.474
    91   1 H        0.926     0.039     2.462     2.454
    92   1 H        0.926     0.028     2.621     2.532
    93   1 H        0.925     0.037     2.488     2.467
    94   1 H        0.925     0.038     2.479     2.462
    95   1 H        0.925     0.031     2.566     2.505
    96   1 H        0.925     0.037     2.485     2.465
    97   1 H        0.925     0.034     2.534     2.489
    98   1 H        0.925     0.038     2.469     2.457
    99   1 H        0.925     0.036     2.509     2.477
   100   1 H        0.925     0.037     2.495     2.470
   101   1 H        0.925     0.035     2.523     2.484
   102   1 H        0.926     0.027     2.627     2.534
   103   1 H        0.926     0.033     2.546     2.495
   104   1 H        0.926     0.042     2.420     2.433
   105   1 H        0.925     0.035     2.520     2.482
   106   1 H        0.925     0.038     2.475     2.460
   107   1 H        0.925     0.037     2.494     2.470
   108   1 H        0.925     0.035     2.512     2.479
   109   1 H        0.925     0.036     2.503     2.474
   110   1 H        0.925     0.039     2.461     2.453
   111   1 H        0.925     0.035     2.518     2.481
   112   1 H        0.925     0.038     2.479     2.462
   113   1 H        0.925     0.032     2.565     2.504

molecular dipole:
                 x           y           z       tot (Debye)
 q only:       -1.043       3.917       0.332
   full:       -0.929       3.403       0.276       8.992

 projected vibrational frequencies (cm⁻¹)
eigval :       -0.00    -0.00    -0.00     0.00     0.00     0.00
eigval :       10.85    16.28    17.73    20.96    25.69    28.72
eigval :       33.65    35.68    37.93    41.98    44.33    59.88
eigval :       63.08    69.15    74.91    76.12    79.20    92.48
eigval :       96.10   100.47   112.88   113.99   132.83   137.92
eigval :      153.69   162.24   165.44   169.20   173.83   177.13
eigval :      181.91   186.01   191.76   192.89   199.55   217.51
eigval :      220.93   223.38   235.85   237.61   241.94   244.18
eigval :      248.30   258.00   266.35   268.12   274.81   284.28
eigval :      295.74   297.74   306.66   315.57   316.67   318.49
eigval :      323.46   323.78   326.56   335.44   338.02   352.43
eigval :      356.62   357.52   360.72   372.83   375.95   378.56
eigval :      382.89   389.53   395.30   400.06   405.03   410.89
eigval :      412.19   412.74   419.69   441.53   442.81   444.57
eigval :      445.59   456.57   463.89   465.23   467.62   470.42
eigval :      473.64   486.31   507.84   519.26   521.40   522.45
eigval :      547.91   573.42   573.78   582.29   583.02   587.04
eigval :      590.15   598.92   600.82   626.90   627.37   640.45
eigval :      641.12   667.98   672.76   687.98   688.28   689.11
eigval :      697.80   706.68   708.31   720.40   721.15   743.09
eigval :      750.20   810.75   815.92   821.22   821.77   825.20
eigval :      827.54   831.50   832.32   867.88   869.16   872.81
eigval :      873.75   875.36   879.50   880.15   880.54   907.43
eigval :      908.91   912.23   915.27   916.11   918.44   922.90
eigval :      923.34   925.60   926.39   929.66   933.26   939.13
eigval :      940.88   958.43   958.86   959.70   960.43   960.91
eigval :      961.44   961.46   961.65   962.53   962.83   963.75
eigval :      970.76  1001.03  1004.35  1031.24  1032.98  1034.20
eigval :     1034.62  1035.37  1035.99  1036.28  1038.35  1038.90
eigval :     1040.73  1065.73  1102.22  1113.05  1114.02  1116.21
eigval :     1117.84  1120.24  1128.64  1130.54  1140.36  1143.14
eigval :     1168.49  1172.71  1177.32  1178.26  1195.23  1209.68
eigval :     1212.24  1224.04  1225.47  1225.68  1226.75  1227.13
eigval :     1227.30  1230.92  1231.98  1232.65  1234.24  1243.59
eigval :     1246.30  1247.03  1247.46  1257.75  1257.92  1283.20
eigval :     1283.47  1297.05  1297.21  1303.80  1306.12  1322.57
eigval :     1323.34  1343.94  1344.33  1353.82  1354.89  1365.76
eigval :     1369.40  1394.15  1395.00  1400.16  1400.90  1401.76
eigval :     1401.96  1402.45  1402.59  1403.10  1406.83  1412.19
eigval :     1412.82  1426.23  1426.27  1428.00  1430.67  1433.21
eigval :     1433.92  1467.31  1470.12  1472.57  1472.82  1478.91
eigval :     1479.76  1487.31  1488.82  1488.88  1489.50  1491.01
eigval :     1491.84  1492.75  1495.09  1497.13  1499.03  1499.10
eigval :     1500.78  1502.99  1503.49  1503.56  1505.27  1511.36
eigval :     1512.21  1512.26  1513.09  1517.57  1517.85  1517.92
eigval :     1519.13  1563.73  1565.20  1567.61  1568.13  1572.63
eigval :     1573.09  1582.64  1583.70  1602.24  1602.82  1614.64
eigval :     1615.03  3015.87  3018.03  3018.10  3018.56  3019.72
eigval :     3019.89  3020.14  3020.73  3022.00  3023.52  3023.57
eigval :     3023.71  3023.81  3024.71  3025.01  3025.92  3026.70
eigval :     3027.28  3027.41  3030.19  3030.30  3030.43  3031.94
eigval :     3034.63  3035.27  3035.63  3036.97  3040.29  3041.69
eigval :     3044.09  3044.26  3044.58  3047.70  3047.97  3050.43
eigval :     3051.12  3078.27  3079.66  3082.29  3083.19  3089.65
eigval :     3092.37  3093.88  3094.64  3095.83  3096.47  3097.46
eigval :     3098.23  3102.99  3104.62  3105.41  3108.65  3116.27
eigval :     3118.89  3119.43  3119.54

   temp. (K)  partition function   enthalpy   heat capacity  entropy
                                   cal/mol     cal/K/mol   cal/K/mol   J/K/mol
 298.15  VIB  0.541E+25            33099.690    203.634    204.200
         ROT  0.142E+09              888.752      2.981     40.282
         INT  0.768E+33            33988.443    206.615    244.482
         TR   0.208E+29             1481.254      4.968     45.794
         TOT                       35469.6966   211.5830   290.2751  1214.5112

       T/K    H(0)-H(T)+PV         H(T)/Eh          T*S/Eh         G(T)/Eh
   ------------------------------------------------------------------------
    298.15    0.565246E-01    0.989413E+00    0.137919E+00    0.851494E+00
   ------------------------------------------------------------------------

         :::::::::::::::::::::::::::::::::::::::::::::::::::::
         ::                  THERMODYNAMIC                  ::
         :::::::::::::::::::::::::::::::::::::::::::::::::::::
         :: total free energy        -156.460147651733 Eh   ::
         ::.................................................::
         :: total energy             -157.311641360509 Eh   ::
         :: zero point energy           0.932888234741 Eh   ::
         :: G(RRHO) w/o ZPVE           -0.081394525965 Eh   ::
         :: G(RRHO) contrib.            0.851493708776 Eh   ::
         :::::::::::::::::::::::::::::::::::::::::::::::::::::

           -------------------------------------------------
          | TOTAL ENERGY             -157.311641360509 Eh   |
          | TOTAL ENTHALPY           -156.322228566223 Eh   |
          | TOTAL FREE ENERGY        -156.460147651733 Eh   |
          | GRADIENT NORM               0.000034520018 Eh/α |
          | HOMO-LUMO GAP               2.373402535337 eV   |
           -------------------------------------------------

 * finished run on 2025/06/06 at 23:52:50.045
