   * xtb version 6.7.1 (edcfbbe) compiled by 'albert@albert-system' on 2024-07-22

   ID    Z sym.   atoms
    1    6 C      1-10, 12-27, 31-36, 38-57
    2    7 N      11, 37
    3   16 S      28
    4    8 O      29, 30
    5    1 H      58-113

          program call               : xtb data250606/toluene/2TCz-DPS/2TCz-DPS.xyz --gfn 2 --gbsa toluene --ohess vtight --parallel 14 --molden --ceasefiles --namespace data250606/toluene/2TCz-DPS/2TCz-DPS_toluene_S0_preOpt
      * Solvation model:               GBSA
        Solvent                        toluene
        Solvent mass                       9.2140E+01 g/mol
          :  Hamiltonian                  GFN2-xTB          :
 * total energy  :  -157.2932376 Eh     change       -0.1366402E-08 Eh
 * total energy  :  -157.3102289 Eh     change       -0.1699127E-01 Eh
 * total energy  :  -157.3151287 Eh     change       -0.4899791E-02 Eh
 * total energy  :  -157.3163098 Eh     change       -0.1181131E-02 Eh
 * total energy  :  -157.3168100 Eh     change       -0.5002025E-03 Eh
 * total energy  :  -157.3169353 Eh     change       -0.1252567E-03 Eh
 * total energy  :  -157.3170077 Eh     change       -0.7246960E-04 Eh
 * total energy  :  -157.3170588 Eh     change       -0.5106855E-04 Eh
 * total energy  :  -157.3171047 Eh     change       -0.4588515E-04 Eh
 * total energy  :  -157.3171535 Eh     change       -0.4879820E-04 Eh
 * total energy  :  -157.3174212 Eh     change       -0.1075890E-05 Eh
 * total energy  :  -157.3174224 Eh     change       -0.1220615E-05 Eh
 * total energy  :  -157.3174233 Eh     change       -0.9654171E-06 Eh
 * total energy  :  -157.3174239 Eh     change       -0.5512543E-06 Eh
 * total energy  :  -157.3174242 Eh     change       -0.3281259E-06 Eh
 * total energy  :  -157.3174245 Eh     change       -0.2764203E-06 Eh
 * total energy  :  -157.3174249 Eh     change       -0.3491428E-06 Eh
 * total energy  :  -157.3174253 Eh     change       -0.4120797E-06 Eh
 * total energy  :  -157.3174253 Eh     change       -0.1386323E-07 Eh
   *** GEOMETRY OPTIMIZATION CONVERGED AFTER 44 ITERATIONS ***

 final structure:
================
113
 xtb: 6.7.1 (edcfbbe)
C            5.52307188100825        3.64824358660616        4.44318088983056
C            5.78805907020417        3.83062090452448        2.94111296304988
C            4.87312754780833        4.93010080455462        2.38124593796173
C            7.23994190576731        4.28720541978670        2.76715574697837
C            5.49619943941451        2.52094090629005        2.22142721085913
C            6.45397792231237        1.84205797366386        1.48495525213100
C            6.12431754887077        0.64682766860484        0.85932402241655
C            4.82651403745950        0.10972174821157        0.97469815311670
C            3.85079136153787        0.79495056292147        1.68143238018779
C            4.20540187319570        1.98079660911607        2.29396671550219
N            4.74432166752735       -1.06458462237276        0.24183707416573
C            5.98262804412478       -1.29293240703529       -0.34040731043390
C            6.86920307069791       -0.25717372345305        0.02368639721784
C            8.18481142213695       -0.27589723212216       -0.41105803914124
C            8.64299992870530       -1.32234152387035       -1.20164214007329
C            7.75142126092937       -2.34801670654041       -1.52702662199186
C            6.43291122800260       -2.35456490989847       -1.10602258511404
C           10.09407796407437       -1.32035544656124       -1.66463679826937
C           11.01178340352141       -1.32812764480025       -0.43257478318429
C           10.35337650690569       -0.05575830670442       -2.49728337827624
C           10.44763635513346       -2.53669174905908       -2.52596802681662
C            3.63288674633713       -1.89778683554054        0.15100916656572
C            2.92390297135367       -2.24994564010849        1.30295288392561
C            1.83406361449569       -3.09315814521700        1.21437163640031
C            1.45430370216040       -3.59092017022490       -0.01919843027707
C            2.13922696780742       -3.24649039810092       -1.16989745247915
C            3.22719294676288       -2.39891419231888       -1.08861586836663
S            0.04135920304360       -4.68873299115276       -0.12231117638287
O            0.12181380560409       -5.42726343187211       -1.36572974497237
O           -0.02658309658748       -5.46322009315046        1.10012384630934
C           -1.38936312646657       -3.61158404311135       -0.18902307313219
C           -1.85071832800806       -3.16839951548695       -1.41528753471565
C           -2.95708350227570       -2.34346935009585       -1.47019920152095
C           -3.59797487024557       -1.95130374885513       -0.29160626807494
C           -3.10764378870110       -2.39474925297536        0.93978271164651
C           -2.00712566968036       -3.22788039592390        0.98735725122831
N           -4.72567822422566       -1.13730602384719       -0.34255138166288
C           -4.87849057435702        0.00499830237278       -1.11410599035284
C           -6.16641544686207        0.54050725028849       -0.91165978257226
C           -6.55850693335191        1.70595610663016       -1.55702498167847
C           -5.67311523948168        2.35708132986562       -2.40122560293231
C           -4.38854529555558        1.82087603456909       -2.56018083092478
C           -3.97260117132591        0.66460254169965       -1.92980449908003
C           -6.03778111549358        3.63114672829905       -3.15096429865827
C           -5.08521206122352        4.75916038745979       -2.72717983159195
C           -5.90706675381680        3.37941302180137       -4.66067767780909
C           -7.47187019743331        4.08994301461313       -2.86880999397800
C           -6.83121735950430       -0.33037306160533        0.02112113545140
C           -5.90956375638854       -1.34691644422509        0.35002912655086
C           -6.28726903930119       -2.38016376969716        1.19022563894844
C           -7.56382662606580       -2.35913933708493        1.72456929639230
C           -8.48435731773201       -1.34656604026692        1.44149440605569
C           -8.10401915066544       -0.33426107265935        0.56928672394383
C           -9.88564765302836       -1.32395856397915        2.03802882864168
C          -10.14366255663437       -2.48897804891793        2.99859528157191
C          -10.07816012801483       -0.01474739001779        2.81829803832897
C          -10.91477116761423       -1.40685176505710        0.90059213053909
H            5.74847511564843        4.56881406725799        4.97783214268184
H            4.48541352864228        3.38943001365517        4.63510267166624
H            6.15200573398173        2.85459949683372        4.84224565534816
H            5.03969417399763        5.04967055813588        1.31232465654820
H            5.08412360837198        5.87821332703287        2.87183733631026
H            3.82446818703773        4.69291859678704        2.53768637948107
H            7.47219441242717        4.46357237427314        1.71921954788589
H            7.93270218302505        3.55093536970843        3.16864893469766
H            7.39292624254563        5.22046607978676        3.30583268209483
H            7.45631016936867        2.22110797547606        1.37701747351350
H            2.83775521004223        0.42767261051284        1.74655592560036
H            3.44228157295677        2.50695491531684        2.84678310477085
H            8.84219547773155        0.52780711747716       -0.11797316408153
H            8.08443003880969       -3.18076777321438       -2.12403890007874
H            5.78678803346762       -3.18071360945502       -1.36193511003778
H           10.85622789306191       -0.44715954951996        0.18396213831573
H           10.81597642913193       -2.20872451285883        0.17647411461725
H           12.05481770236922       -1.34739668760374       -0.74213692435577
H            9.69370569680075       -0.03331697596292       -3.36271502251954
H           11.38340379898787       -0.04251850737924       -2.84801273041189
H           10.18104086424328        0.84504335586911       -1.91475632105342
H           10.31525879087953       -3.46266323286137       -1.97071049070963
H            9.84004120842054       -2.57001734493452       -3.42755289709278
H           11.49151162666156       -2.47406777491896       -2.82768152604419
H            3.25112300482461       -1.88187530830149        2.26286054561878
H            1.29074795860606       -3.40069472790253        2.09359213157903
H            1.81550852088299       -3.65883556202702       -2.11253982047160
H            3.76018516298372       -2.11013962574847       -1.98102175218841
H           -1.35536413807518       -3.50440239702053       -2.31244124418770
H           -3.34877389477911       -2.02165710066529       -2.42252199312224
H           -3.58665349229585       -2.07349182662657        1.85147562150965
H           -1.62391890922769       -3.59967052470914        1.92438342093917
H           -7.55137327881515        2.08407491961477       -1.38037670225222
H           -3.67995436014201        2.32640360434530       -3.19833990636824
H           -2.96528088325712        0.30120983851102       -2.06548922418875
H           -5.15407850725414        4.92659893355201       -1.65392648879561
H           -4.05315425102746        4.52060591602413       -2.96879031688392
H           -5.34886489025241        5.68292805549460       -3.23829237569299
H           -4.88987043093361        3.11104943230471       -4.93255156936181
H           -6.18241516262138        4.27446812759985       -5.21493648018784
H           -6.56638794016545        2.56859593224393       -4.96498067303339
H           -8.19181923399690        3.33353772247082       -3.17329702115503
H           -7.67960246094804        4.99711319132886       -3.43312595735864
H           -7.61111518082801        4.31274365827744       -1.81327011457669
H           -5.61842841659996       -3.19623704299559        1.41859188845927
H           -7.83925600605843       -3.16903963620975        2.37949951108776
H           -8.78963844298534        0.45460533655261        0.30167050933425
H          -10.06480710811388       -3.44550481830064        2.48673334234025
H           -9.44589097767670       -2.47088234372779        3.83287068638629
H          -11.15129019411998       -2.40805747571830        3.40201886902444
H           -9.97484743078770        0.85235513226656        2.17193894656567
H          -11.06925110797394        0.01177670829654        3.26684179298265
H           -9.33792303116004        0.06202798059051        3.61252170059677
H          -10.77150105239635       -2.32248896226755        0.32979304346378
H          -11.92409389790766       -1.40820599405620        1.30734049662049
H          -10.82281491230137       -0.56439894068283        0.22057191472213

          :  Hamiltonian                  GFN2-xTB          :
         :: gradient norm              0.000076243452 Eh/a0 ::
         :: HOMO-LUMO gap              2.463449161289 eV    ::
         :: SCC energy              -159.939949660168 Eh    ::
         :: -> dispersion             -0.141898895618 Eh    ::
         :: -> Gsolv                  -0.068257797616 Eh    ::
         :: repulsion energy           2.622524383227 Eh    ::

    * Orbital Energies and Occupations

         #    Occupation            Energy/Eh            Energy/eV
      -------------------------------------------------------------
         1        2.0000           -0.7752060             -21.0944
       ...           ...                  ...                  ...
       134        2.0000           -0.4170968             -11.3498
       135        2.0000           -0.4168905             -11.3442
       136        2.0000           -0.4104666             -11.1694
       137        2.0000           -0.4091923             -11.1347
       138        2.0000           -0.4091596             -11.1338
       139        2.0000           -0.4075357             -11.0896
       140        2.0000           -0.4069294             -11.0731
       141        2.0000           -0.3968661             -10.7993
       142        2.0000           -0.3967451             -10.7960
       143        2.0000           -0.3756733             -10.2226
       144        2.0000           -0.3755937             -10.2204
       145        2.0000           -0.3615226              -9.8375
       146        2.0000           -0.3606532              -9.8139 (HOMO)
       147                         -0.2701232              -7.3504 (LUMO)
       148                         -0.2541867              -6.9168
       149                         -0.2495729              -6.7912
       150                         -0.2487029              -6.7676
       151                         -0.2415615              -6.5732
       152                         -0.2405502              -6.5457
       153                         -0.2195925              -5.9754
       154                         -0.2194942              -5.9727
       155                         -0.1945096              -5.2929
       156                         -0.1920138              -5.2250
       157                         -0.1844153              -5.0182
       ...                                ...                  ...
       289                          1.1597815              31.5593
      -------------------------------------------------------------
                  HL-Gap            0.0905300 Eh            2.4634 eV

     #   Z          covCN         q      C6AA      α(0)
     1   6 C        3.761    -0.105    22.558     6.771
     2   6 C        3.902     0.025    20.097     6.372
     3   6 C        3.761    -0.105    22.560     6.771
     4   6 C        3.761    -0.107    22.592     6.776
     5   6 C        2.972    -0.000    28.035     8.685
     6   6 C        2.918    -0.044    29.091     8.845
     7   6 C        3.064    -0.018    28.393     8.738
     8   6 C        3.072     0.041    27.009     8.521
     9   6 C        2.909    -0.055    29.361     8.885
    10   6 C        2.931    -0.039    28.980     8.829
    11   7 N        2.800    -0.040    22.007     6.967
    12   6 C        3.070     0.041    27.011     8.522
    13   6 C        3.064    -0.018    28.383     8.736
    14   6 C        2.920    -0.040    28.996     8.830
    15   6 C        2.972    -0.001    28.037     8.685
    16   6 C        2.928    -0.044    29.089     8.845
    17   6 C        2.909    -0.055    29.373     8.887
    18   6 C        3.902     0.025    20.097     6.372
    19   6 C        3.761    -0.105    22.554     6.770
    20   6 C        3.761    -0.105    22.557     6.770
    21   6 C        3.761    -0.107    22.592     6.776
    22   6 C        2.911     0.075    26.335     8.415
    23   6 C        2.924    -0.039    28.976     8.828
    24   6 C        2.956    -0.025    28.631     8.776
    25   6 C        2.970    -0.079    29.976     8.981
    26   6 C        2.954    -0.025    28.614     8.774
    27   6 C        2.924    -0.040    28.983     8.829
    28  16 S        3.817     0.933   108.608    17.540
    29   8 O        0.860    -0.578    25.589     6.782
    30   8 O        0.860    -0.579    25.617     6.786
    31   6 C        2.970    -0.079    29.979     8.981
    32   6 C        2.955    -0.025    28.627     8.776
    33   6 C        2.924    -0.039    28.981     8.828
    34   6 C        2.911     0.074    26.336     8.415
    35   6 C        2.924    -0.040    28.989     8.829
    36   6 C        2.955    -0.025    28.620     8.775
    37   7 N        2.800    -0.039    22.000     6.966
    38   6 C        3.071     0.041    27.010     8.521
    39   6 C        3.064    -0.018    28.391     8.737
    40   6 C        2.918    -0.044    29.091     8.845
    41   6 C        2.972    -0.000    28.034     8.685
    42   6 C        2.931    -0.039    28.980     8.829
    43   6 C        2.909    -0.055    29.361     8.885
    44   6 C        3.902     0.025    20.097     6.372
    45   6 C        3.761    -0.105    22.560     6.771
    46   6 C        3.761    -0.105    22.558     6.771
    47   6 C        3.761    -0.107    22.592     6.776
    48   6 C        3.064    -0.018    28.382     8.736
    49   6 C        3.070     0.041    27.013     8.522
    50   6 C        2.909    -0.055    29.372     8.887
    51   6 C        2.928    -0.044    29.090     8.845
    52   6 C        2.972    -0.000    28.035     8.685
    53   6 C        2.920    -0.040    28.995     8.830
    54   6 C        3.902     0.025    20.097     6.372
    55   6 C        3.761    -0.107    22.593     6.776
    56   6 C        3.761    -0.105    22.558     6.771
    57   6 C        3.761    -0.105    22.552     6.770
    58   1 H        0.925     0.038     2.476     2.461
    59   1 H        0.925     0.036     2.498     2.472
    60   1 H        0.925     0.033     2.550     2.497
    61   1 H        0.925     0.033     2.548     2.496
    62   1 H        0.925     0.038     2.474     2.460
    63   1 H        0.925     0.036     2.499     2.472
    64   1 H        0.925     0.036     2.504     2.475
    65   1 H        0.925     0.036     2.506     2.475
    66   1 H        0.925     0.037     2.492     2.469
    67   1 H        0.926     0.040     2.443     2.444
    68   1 H        0.926     0.029     2.601     2.522
    69   1 H        0.926     0.033     2.539     2.492
    70   1 H        0.926     0.034     2.524     2.484
    71   1 H        0.926     0.039     2.460     2.453
    72   1 H        0.926     0.027     2.626     2.534
    73   1 H        0.925     0.037     2.489     2.467
    74   1 H        0.925     0.032     2.560     2.502
    75   1 H        0.925     0.038     2.475     2.460
    76   1 H        0.925     0.033     2.551     2.498
    77   1 H        0.925     0.038     2.477     2.461
    78   1 H        0.925     0.037     2.488     2.466
    79   1 H        0.925     0.035     2.517     2.481
    80   1 H        0.925     0.035     2.511     2.478
    81   1 H        0.925     0.037     2.489     2.467
    82   1 H        0.926     0.067     2.120     2.277
    83   1 H        0.926     0.059     2.206     2.322
    84   1 H        0.926     0.061     2.188     2.313
    85   1 H        0.926     0.067     2.120     2.277
    86   1 H        0.926     0.060     2.198     2.319
    87   1 H        0.926     0.067     2.121     2.277
    88   1 H        0.926     0.067     2.118     2.276
    89   1 H        0.926     0.060     2.198     2.318
    90   1 H        0.926     0.041     2.442     2.443
    91   1 H        0.926     0.033     2.539     2.492
    92   1 H        0.926     0.029     2.598     2.520
    93   1 H        0.925     0.033     2.547     2.496
    94   1 H        0.925     0.036     2.499     2.472
    95   1 H        0.925     0.038     2.474     2.460
    96   1 H        0.925     0.036     2.499     2.472
    97   1 H        0.925     0.038     2.476     2.460
    98   1 H        0.925     0.033     2.551     2.497
    99   1 H        0.925     0.036     2.505     2.475
   100   1 H        0.925     0.037     2.492     2.469
   101   1 H        0.925     0.036     2.504     2.474
   102   1 H        0.926     0.027     2.622     2.532
   103   1 H        0.926     0.039     2.458     2.452
   104   1 H        0.926     0.034     2.523     2.484
   105   1 H        0.925     0.035     2.517     2.481
   106   1 H        0.925     0.036     2.509     2.477
   107   1 H        0.925     0.037     2.488     2.467
   108   1 H        0.925     0.037     2.487     2.466
   109   1 H        0.925     0.038     2.477     2.461
   110   1 H        0.925     0.033     2.550     2.497
   111   1 H        0.925     0.032     2.560     2.502
   112   1 H        0.925     0.038     2.474     2.460
   113   1 H        0.925     0.037     2.491     2.468

molecular dipole:
                 x           y           z       tot (Debye)
 q only:       -0.042       3.431       0.058
   full:       -0.039       3.067       0.049       7.797

 projected vibrational frequencies (cm⁻¹)
eigval :       -0.00    -0.00     0.00     0.00     0.00     0.00
eigval :       -2.49     4.86     5.16    19.14    23.23    28.69
eigval :       30.34    31.78    31.86    32.57    35.61    50.95
eigval :       54.70    69.54    71.87    75.13    79.76    89.43
eigval :       92.98   105.98   110.66   113.22   133.87   135.17
eigval :      142.43   156.62   156.87   164.02   173.05   177.03
eigval :      177.83   182.40   187.30   191.23   195.05   214.43
eigval :      217.32   220.55   222.17   236.52   238.07   247.10
eigval :      249.12   257.07   267.67   268.49   280.70   281.49
eigval :      291.74   304.11   305.77   314.24   318.17   319.85
eigval :      323.71   325.92   328.32   335.24   338.71   353.28
eigval :      356.24   357.10   358.73   372.14   378.38   380.28
eigval :      382.27   390.22   397.48   403.80   404.90   410.46
eigval :      411.43   413.02   414.14   441.62   442.64   443.74
eigval :      444.64   456.06   462.77   463.83   466.21   468.44
eigval :      469.15   489.60   496.59   517.78   518.58   526.25
eigval :      547.71   571.82   572.47   582.22   582.62   585.72
eigval :      591.40   599.63   601.06   626.70   627.02   640.57
eigval :      640.75   675.70   677.57   682.01   687.89   688.63
eigval :      693.88   707.47   707.92   719.81   720.20   742.94
eigval :      752.80   811.10   815.01   821.41   823.72   826.36
eigval :      828.25   831.45   831.66   868.21   870.78   872.37
eigval :      872.76   876.73   878.78   883.38   885.57   907.51
eigval :      910.94   912.55   914.51   917.16   919.10   923.25
eigval :      924.21   925.85   926.54   931.33   933.83   939.60
eigval :      941.23   958.61   958.67   958.96   959.36   961.22
eigval :      961.72   961.85   962.18   962.34   962.81   962.98
eigval :      963.13  1001.85  1005.40  1030.88  1032.15  1034.73
eigval :     1034.78  1034.85  1034.92  1035.21  1035.47  1038.41
eigval :     1039.47  1063.97  1106.59  1112.04  1114.92  1117.11
eigval :     1119.59  1119.71  1129.65  1130.03  1142.19  1142.48
eigval :     1170.13  1173.80  1177.64  1178.31  1187.95  1212.00
eigval :     1212.40  1225.28  1225.29  1225.62  1225.67  1226.97
eigval :     1227.16  1230.44  1230.66  1232.84  1233.40  1244.33
eigval :     1247.01  1247.28  1248.98  1256.73  1257.83  1282.76
eigval :     1283.35  1297.67  1297.73  1303.74  1303.91  1322.86
eigval :     1324.02  1344.50  1344.56  1356.56  1356.73  1365.42
eigval :     1367.08  1394.51  1395.62  1401.10  1401.41  1401.46
eigval :     1401.63  1402.65  1402.81  1403.16  1403.32  1412.70
eigval :     1412.98  1426.42  1426.50  1427.18  1427.28  1434.03
eigval :     1434.77  1469.74  1471.52  1472.46  1472.72  1480.51
eigval :     1480.55  1488.29  1488.66  1489.18  1489.23  1491.44
eigval :     1492.09  1492.15  1492.16  1498.52  1498.78  1499.25
eigval :     1499.85  1501.92  1502.16  1502.48  1502.74  1510.55
eigval :     1510.86  1511.77  1512.31  1517.44  1517.59  1517.78
eigval :     1517.86  1565.86  1566.81  1568.79  1569.94  1574.17
eigval :     1575.29  1582.82  1582.90  1603.08  1603.14  1615.20
eigval :     1615.38  3018.32  3018.42  3018.46  3018.77  3019.35
eigval :     3019.51  3019.90  3020.41  3023.02  3023.03  3023.10
eigval :     3023.57  3024.26  3024.65  3024.79  3025.09  3026.69
eigval :     3026.87  3026.99  3027.21  3030.12  3030.18  3030.20
eigval :     3030.62  3034.85  3035.22  3035.31  3035.47  3042.88
eigval :     3043.65  3044.54  3045.41  3046.68  3047.35  3048.13
eigval :     3048.30  3080.14  3080.41  3083.04  3083.61  3090.79
eigval :     3091.13  3093.08  3093.37  3098.23  3098.90  3099.25
eigval :     3100.14  3107.37  3108.12  3108.78  3109.99  3117.40
eigval :     3117.49  3118.13  3118.98

   temp. (K)  partition function   enthalpy   heat capacity  entropy
                                   cal/mol     cal/K/mol   cal/K/mol   J/K/mol
 298.15  VIB  0.120E+28            33300.792    202.798    209.336
         ROT  0.243E+09              888.752      2.981     41.350
         INT  0.290E+36            34189.544    205.779    250.687
         TR   0.208E+29             1481.254      4.968     45.794
         TOT                       35670.7979   210.7468   296.4801  1240.4729

       T/K    H(0)-H(T)+PV         H(T)/Eh          T*S/Eh         G(T)/Eh
   ------------------------------------------------------------------------
    298.15    0.568450E-01    0.989360E+00    0.140867E+00    0.848493E+00
   ------------------------------------------------------------------------

         :::::::::::::::::::::::::::::::::::::::::::::::::::::
         ::                  THERMODYNAMIC                  ::
         :::::::::::::::::::::::::::::::::::::::::::::::::::::
         :: total free energy        -156.468932677005 Eh   ::
         ::.................................................::
         :: total energy             -157.317425277179 Eh   ::
         :: zero point energy           0.932514846567 Eh   ::
         :: G(RRHO) w/o ZPVE           -0.084022246393 Eh   ::
         :: G(RRHO) contrib.            0.848492600174 Eh   ::
         :::::::::::::::::::::::::::::::::::::::::::::::::::::

           -------------------------------------------------
          | TOTAL ENERGY             -157.317425277179 Eh   |
          | TOTAL ENTHALPY           -156.328065395857 Eh   |
          | TOTAL FREE ENERGY        -156.468932677005 Eh   |
          | GRADIENT NORM               0.000076231503 Eh/α |
          | HOMO-LUMO GAP               2.463447957787 eV   |
           -------------------------------------------------

 * finished run on 2025/06/06 at 22:44:02.352
