   * xtb version 6.7.1 (edcfbbe) compiled by 'albert@albert-system' on 2024-07-22

   ID    Z sym.   atoms
    1    6 C      1-10, 12-27, 31-36, 38-57
    2    7 N      11, 37
    3   16 S      28
    4    8 O      29, 30
    5    1 H      58-113

          program call               : xtb data250606/toluene/2TCz-DPS/2TCz-DPS_toluene_S0_finalOpt.xtbopt.xyz --gfn 2 --uhf 2 --gbsa toluene --ohess vtight --parallel 14 --molden --ceasefiles --namespace data250606/toluene/2TCz-DPS/2TCz-DPS_toluene_T1_preOpt
      * Solvation model:               GBSA
        Solvent                        toluene
        Solvent mass                       9.2140E+01 g/mol
          :  Hamiltonian                  GFN2-xTB          :
 * total energy  :  -157.2114357 Eh     change       -0.1813817E-08 Eh
 * total energy  :  -157.2142265 Eh     change       -0.2790860E-02 Eh
 * total energy  :  -157.2152083 Eh     change       -0.9818100E-03 Eh
 * total energy  :  -157.2153815 Eh     change       -0.1731130E-03 Eh
 * total energy  :  -157.2155141 Eh     change       -0.1326811E-03 Eh
 * total energy  :  -157.2155867 Eh     change       -0.7261368E-04 Eh
 * total energy  :  -157.2156807 Eh     change       -0.9396622E-04 Eh
 * total energy  :  -157.2157518 Eh     change       -0.7113217E-04 Eh
 * total energy  :  -157.2158043 Eh     change       -0.5242720E-04 Eh
 * total energy  :  -157.2158490 Eh     change       -0.4469754E-04 Eh
 * total energy  :  -157.2159756 Eh     change       -0.3236467E-06 Eh
 * total energy  :  -157.2159760 Eh     change       -0.4028662E-06 Eh
 * total energy  :  -157.2159764 Eh     change       -0.3800896E-06 Eh
 * total energy  :  -157.2159767 Eh     change       -0.3285139E-06 Eh
 * total energy  :  -157.2159770 Eh     change       -0.2479037E-06 Eh
 * total energy  :  -157.2159771 Eh     change       -0.1626127E-06 Eh
 * total energy  :  -157.2159772 Eh     change       -0.1019064E-06 Eh
 * total energy  :  -157.2159773 Eh     change       -0.1130849E-06 Eh
 * total energy  :  -157.2159774 Eh     change       -0.9952504E-07 Eh
   *** GEOMETRY OPTIMIZATION CONVERGED AFTER 36 ITERATIONS ***

 final structure:
================
113
 xtb: 6.7.1 (edcfbbe)
C            8.92271000010330        2.81481677069308       -0.53129073430309
C            7.53095621961520        3.44008723925288       -0.39870777718103
C            7.54873260162795        4.39459499442157        0.80571592611492
C            7.23892277462859        4.23100118078284       -1.68377188136659
C            6.43382812238339        2.40775976910844       -0.19385245019289
C            5.11342468210049        2.84383035698356       -0.06582289309242
C            4.09667001377182        1.92678623212514        0.11927798534806
C            4.39116730317908        0.54140989027152        0.17097913714095
C            5.69978273407191        0.09480961490703        0.06005537989910
C            6.69771685831566        1.03544880817951       -0.12268834780765
N            3.23155559284275       -0.16831825178485        0.37996177935646
C            2.18289087856747        0.72329013758907        0.44988943806404
C            2.66896679004442        2.04191166108459        0.28475104255550
C            1.78966703887312        3.11200201655560        0.25294137136721
C            0.42166648421876        2.88540774179749        0.37707607287995
C           -0.03140597581582        1.56849389036126        0.54683780590100
C            0.82129517007593        0.48460754010156        0.58216807899656
C           -0.60307805975545        4.00558397067445        0.30992629834465
C            0.03670520821902        5.38183325848330        0.10345374810059
C           -1.40047596921122        4.03544138870615        1.62163554435036
C           -1.55709216535058        3.73705042718514       -0.86483937501654
C            3.08252029118304       -1.55848860183071        0.34878641456790
C            3.52676193732643       -2.28300164986299       -0.77023109290224
C            3.19590729900082       -3.60638830697354       -0.90202461841960
C            2.45845084066858       -4.25817799761543        0.09982768298765
C            2.09769544875922       -3.55545449388507        1.26207976514894
C            2.39483698304161       -2.22415296389358        1.38203380567293
S            1.46505346596533       -5.64127430435342       -0.37762908729660
O            1.98081144326029       -6.20129325670982       -1.61724302251104
O            1.27771529316157       -6.57365755038583        0.72339123168425
C           -0.03109730922853       -4.74036809794959       -0.64314520310720
C           -0.94736069209839       -4.65222498115301        0.41948398427459
C           -1.83409600122166       -3.61227849447273        0.48689885310978
C           -1.81335853820412       -2.59306451179378       -0.48820815977409
C           -0.92401986235797       -2.70813536679317       -1.58039631836249
C           -0.05405739668226       -3.76123522396311       -1.65348594507788
N           -2.62506391137928       -1.47306939660602       -0.34206643043246
C           -3.34795942675596       -0.84051576065224       -1.33362222564066
C           -4.02798303169775        0.27719711274715       -0.78440637945302
C           -4.82668628550174        1.07175558772675       -1.58598322941705
C           -4.98215411405734        0.76734607013586       -2.93861088124236
C           -4.33583642150300       -0.36510854801417       -3.44714895326584
C           -3.52842105974079       -1.17544959090579       -2.66770343461320
C           -5.86320386223370        1.66037405943944       -3.79653640690750
C           -7.29655517059769        1.62350176239932       -3.24297200009689
C           -5.32300870341203        3.09820975636486       -3.74171231751516
C           -5.90647115371267        1.22408376364448       -5.26386743567017
C           -3.70558804973717        0.30060724419475        0.61696507888275
C           -2.83043311715936       -0.79208021898600        0.84208523980059
C           -2.28885655473088       -0.99655255346081        2.10540817351932
C           -2.68857713769200       -0.16284863144375        3.13053185199214
C           -3.60191043051442        0.88761167754706        2.94606052104222
C           -4.08828806623527        1.12525940703645        1.66401086479365
C           -4.05297582360908        1.69382055866045        4.15282720927221
C           -2.83882398040107        2.26909988966018        4.89688859763137
C           -4.97207688560247        2.85903141318467        3.77374726974548
C           -4.82827826481194        0.75093268154409        5.08803802453883
H            9.65887138698676        3.60215709944577       -0.68074921676575
H            9.19593350642597        2.26888049488553        0.36887799025639
H            8.97277353627318        2.14407838958896       -1.38609937599914
H            6.60658841763615        4.92552220015699        0.90764226327067
H            8.34243995670217        5.12892711747704        0.68655780200362
H            7.72841309840080        3.83811199541703        1.72350482503201
H            8.02512790747358        4.96277862072127       -1.85640029746577
H            6.29157168168699        4.75870922711701       -1.62118541368129
H            7.19973114385972        3.55865537270744       -2.53863687165290
H            4.87340248321380        3.89438776797441       -0.10539084819962
H            5.93466946185750       -0.95718163887589        0.12047330513672
H            7.70994550043892        0.67797203464636       -0.20728198614627
H            2.18339432640860        4.10475742212841        0.11540099866085
H           -1.08844013631594        1.38158428636893        0.64677937516354
H            0.43994286154751       -0.51929034560283        0.68849278242566
H            0.70312830764113        5.63237012831542        0.92568575097001
H            0.59027339709309        5.42002089532852       -0.83195063051386
H           -0.74255543269219        6.14010773809095        0.06176183704914
H           -0.73062813097448        4.19809814666429        2.46404587531264
H           -1.93331604679986        3.10136671607466        1.77785809874958
H           -2.12542011546183        4.84635015690839        1.59656214987902
H           -0.99994511196254        3.67793206994720       -1.79771293249286
H           -2.09881485551308        2.80506241529464       -0.73184679462546
H           -2.28034054423117        4.54535625055992       -0.94619250765457
H            4.07335323411147       -1.77177435175040       -1.54899620042831
H            3.46675113303226       -4.17442302866239       -1.77872806178764
H            1.55857644998940       -4.08690411918108        2.03141891842823
H            2.11327913234393       -1.67170601029463        2.26629746687167
H           -0.92746171303197       -5.43054184229753        1.16690348892613
H           -2.57395221598937       -3.57589894062484        1.27243947501552
H           -0.89445573870306       -1.92594436574666       -2.32325190918477
H            0.65743448137117       -3.84711084222833       -2.46019385549843
H           -5.32818055575162        1.92079217253763       -1.14987348410667
H           -4.46449081910596       -0.63888724754300       -4.48055032192897
H           -3.07095222368644       -2.05608917459897       -3.09126987298717
H           -7.33791506403623        1.98660231737909       -2.21991215048480
H           -7.94717828269352        2.24680823650818       -3.85268224263277
H           -7.68027407113199        0.60516655080411       -3.25940506713848
H           -5.91884216006862        3.74305604565449       -4.38399639033086
H           -4.29116839075117        3.12637126664772       -4.08587134194514
H           -5.35874470261853        3.49887247459924       -2.73305639402365
H           -4.91364047605061        1.24168029680907       -5.70783724732018
H           -6.53744184023161        1.90985151682099       -5.82585685046295
H           -6.32671028950779        0.22614217194425       -5.36622000306350
H           -1.57091317516744       -1.78061276773733        2.28824163480621
H           -2.27679367290207       -0.34019084162539        4.11112269676406
H           -4.76482403762770        1.93845147743954        1.46324737871000
H           -2.18291281539239        1.48551921399510        5.26473679529630
H           -2.26473641461616        2.91723109012756        4.23989421607310
H           -3.17439894665302        2.85403757577130        5.75059691131487
H           -5.88963500018320        2.50246693241536        3.31147118589044
H           -5.24486948663926        3.40986373007450        4.67151378382017
H           -4.47045252241076        3.54669205586568        3.09731065522275
H           -4.20061001318612       -0.06675028008048        5.43259429540674
H           -5.18500699248050        1.29861293125660        5.95774686602614
H           -5.68709211906325        0.32655102204209        4.57130941558615

          :  Hamiltonian                  GFN2-xTB          :
         :: gradient norm              0.000053719722 Eh/a0 ::
         :: HOMO-LUMO gap              0.303664374742 eV    ::
         :: SCC energy              -159.816370460145 Eh    ::
         :: -> dispersion             -0.155176372203 Eh    ::
         :: -> Gsolv                  -0.073339090602 Eh    ::
         :: repulsion energy           2.600393030995 Eh    ::

    * Orbital Energies and Occupations

         #    Occupation            Energy/Eh            Energy/eV
      -------------------------------------------------------------
         1        2.0000           -0.7521646             -20.4674
       ...           ...                  ...                  ...
       135        2.0000           -0.4147454             -11.2858
       136        2.0000           -0.4136765             -11.2567
       137        2.0000           -0.4125168             -11.2252
       138        2.0000           -0.4065305             -11.0623
       139        2.0000           -0.4061143             -11.0509
       140        2.0000           -0.4054871             -11.0339
       141        2.0000           -0.4010994             -10.9145
       142        2.0000           -0.3910074             -10.6399
       143        2.0000           -0.3850847             -10.4787
       144        2.0000           -0.3846313             -10.4664
       145        1.7633           -0.3679375             -10.0121
       146        1.2367           -0.3657124              -9.9515
       147        0.9970           -0.2636030              -7.1730 (HOMO)
       148        0.0027           -0.2524433              -6.8693 (LUMO)
       149        0.0003           -0.2503275              -6.8118
       150                         -0.2386858              -6.4950
       151                         -0.2312229              -6.2919
       152                         -0.2305283              -6.2730
       153                         -0.2303138              -6.2672
       154                         -0.2256416              -6.1400
       155                         -0.2032834              -5.5316
       156                         -0.1995246              -5.4293
       157                         -0.1938108              -5.2739
       158                         -0.1937309              -5.2717
       ...                                ...                  ...
       289                          1.1643373              31.6832
      -------------------------------------------------------------
                  HL-Gap            0.0111597 Eh            0.3037 eV

     #   Z          covCN         q      C6AA      α(0)
     1   6 C        3.761    -0.110    22.641     6.783
     2   6 C        3.903     0.027    20.061     6.367
     3   6 C        3.761    -0.107    22.596     6.776
     4   6 C        3.761    -0.107    22.596     6.776
     5   6 C        2.972     0.012    27.744     8.640
     6   6 C        2.918    -0.034    28.840     8.806
     7   6 C        3.061    -0.014    28.290     8.722
     8   6 C        3.078     0.043    26.963     8.513
     9   6 C        2.907    -0.042    29.038     8.836
    10   6 C        2.926    -0.042    29.043     8.838
    11   7 N        2.800    -0.004    21.330     6.859
    12   6 C        3.083     0.043    26.953     8.511
    13   6 C        3.060    -0.013    28.278     8.720
    14   6 C        2.916    -0.038    28.954     8.824
    15   6 C        2.973     0.012    27.731     8.638
    16   6 C        2.929    -0.038    28.935     8.822
    17   6 C        2.907    -0.042    29.041     8.836
    18   6 C        3.903     0.027    20.068     6.368
    19   6 C        3.761    -0.110    22.654     6.785
    20   6 C        3.761    -0.105    22.557     6.770
    21   6 C        3.762    -0.107    22.590     6.775
    22   6 C        2.914     0.036    27.205     8.553
    23   6 C        2.916    -0.040    29.004     8.831
    24   6 C        2.964    -0.039    28.966     8.828
    25   6 C        2.964    -0.102    30.576     9.070
    26   6 C        2.961    -0.039    28.970     8.828
    27   6 C        2.916    -0.043    29.061     8.840
    28  16 S        3.857     0.876   110.280    17.675
    29   8 O        0.860    -0.593    25.937     6.828
    30   8 O        0.860    -0.592    25.922     6.826
    31   6 C        2.963    -0.103    30.583     9.071
    32   6 C        2.961    -0.039    28.979     8.830
    33   6 C        2.916    -0.043    29.061     8.840
    34   6 C        2.911     0.034    27.240     8.558
    35   6 C        2.915    -0.044    29.095     8.845
    36   6 C        2.958    -0.039    28.973     8.829
    37   7 N        2.796     0.004    21.183     6.836
    38   6 C        3.072     0.040    27.035     8.525
    39   6 C        3.060    -0.015    28.316     8.726
    40   6 C        2.918    -0.034    28.854     8.809
    41   6 C        2.972     0.013    27.718     8.636
    42   6 C        2.925    -0.044    29.086     8.844
    43   6 C        2.908    -0.041    29.024     8.834
    44   6 C        3.903     0.027    20.060     6.366
    45   6 C        3.761    -0.107    22.588     6.775
    46   6 C        3.761    -0.108    22.611     6.779
    47   6 C        3.761    -0.109    22.637     6.783
    48   6 C        3.058    -0.014    28.315     8.726
    49   6 C        3.076     0.040    27.031     8.524
    50   6 C        2.907    -0.041    29.021     8.833
    51   6 C        2.927    -0.039    28.981     8.829
    52   6 C        2.972     0.013    27.731     8.638
    53   6 C        2.915    -0.040    28.984     8.828
    54   6 C        3.902     0.028    20.054     6.365
    55   6 C        3.761    -0.109    22.633     6.782
    56   6 C        3.761    -0.111    22.669     6.787
    57   6 C        3.762    -0.106    22.563     6.771
    58   1 H        0.925     0.040     2.443     2.444
    59   1 H        0.925     0.038     2.481     2.463
    60   1 H        0.925     0.037     2.484     2.465
    61   1 H        0.925     0.041     2.436     2.441
    62   1 H        0.925     0.043     2.415     2.430
    63   1 H        0.925     0.035     2.516     2.481
    64   1 H        0.925     0.043     2.416     2.430
    65   1 H        0.925     0.041     2.436     2.441
    66   1 H        0.925     0.035     2.520     2.482
    67   1 H        0.926     0.048     2.347     2.395
    68   1 H        0.926     0.037     2.484     2.465
    69   1 H        0.926     0.049     2.334     2.389
    70   1 H        0.926     0.054     2.275     2.358
    71   1 H        0.926     0.043     2.411     2.428
    72   1 H        0.926     0.033     2.546     2.495
    73   1 H        0.925     0.038     2.469     2.457
    74   1 H        0.925     0.038     2.474     2.460
    75   1 H        0.925     0.041     2.433     2.439
    76   1 H        0.925     0.033     2.538     2.492
    77   1 H        0.925     0.042     2.424     2.435
    78   1 H        0.925     0.042     2.416     2.431
    79   1 H        0.925     0.033     2.540     2.492
    80   1 H        0.925     0.040     2.443     2.444
    81   1 H        0.925     0.045     2.388     2.417
    82   1 H        0.926     0.047     2.356     2.400
    83   1 H        0.926     0.037     2.492     2.469
    84   1 H        0.926     0.033     2.545     2.495
    85   1 H        0.926     0.049     2.334     2.389
    86   1 H        0.926     0.036     2.505     2.475
    87   1 H        0.926     0.049     2.328     2.386
    88   1 H        0.926     0.050     2.315     2.379
    89   1 H        0.926     0.032     2.563     2.504
    90   1 H        0.926     0.049     2.332     2.388
    91   1 H        0.926     0.047     2.356     2.400
    92   1 H        0.926     0.038     2.472     2.459
    93   1 H        0.925     0.041     2.437     2.441
    94   1 H        0.925     0.042     2.419     2.432
    95   1 H        0.925     0.034     2.533     2.489
    96   1 H        0.925     0.042     2.424     2.435
    97   1 H        0.925     0.037     2.492     2.469
    98   1 H        0.925     0.043     2.410     2.428
    99   1 H        0.925     0.038     2.480     2.462
   100   1 H        0.925     0.040     2.451     2.448
   101   1 H        0.925     0.036     2.496     2.471
   102   1 H        0.926     0.036     2.497     2.471
   103   1 H        0.926     0.040     2.447     2.446
   104   1 H        0.926     0.054     2.266     2.354
   105   1 H        0.925     0.037     2.490     2.468
   106   1 H        0.925     0.042     2.423     2.434
   107   1 H        0.925     0.041     2.441     2.443
   108   1 H        0.925     0.038     2.472     2.459
   109   1 H        0.925     0.039     2.457     2.451
   110   1 H        0.925     0.043     2.409     2.427
   111   1 H        0.925     0.037     2.492     2.469
   112   1 H        0.925     0.042     2.424     2.435
   113   1 H        0.925     0.034     2.533     2.489

molecular dipole:
                 x           y           z       tot (Debye)
 q only:       -2.080       8.346       0.499
   full:       -1.915       7.652       0.449      20.081

 projected vibrational frequencies (cm⁻¹)
eigval :       -0.00    -0.00    -0.00    -0.00     0.00     0.00
eigval :       10.61    16.66    19.90    25.81    27.16    33.46
eigval :       35.49    36.77    39.89    44.19    45.73    56.97
eigval :       63.23    68.45    72.59    74.05    79.56    87.77
eigval :       98.11    99.26   113.96   119.69   134.65   145.35
eigval :      155.79   159.89   161.44   165.40   173.11   174.38
eigval :      180.03   187.08   190.02   190.78   195.43   217.74
eigval :      221.35   222.45   233.10   235.85   239.95   242.59
eigval :      246.16   255.20   262.35   265.51   276.67   278.66
eigval :      286.39   303.32   306.48   313.29   315.22   317.10
eigval :      323.39   325.25   325.74   328.43   335.65   338.69
eigval :      351.07   352.21   355.36   358.09   366.01   376.96
eigval :      381.31   384.30   390.60   394.77   399.58   401.18
eigval :      402.04   408.31   411.95   422.88   429.59   437.52
eigval :      439.19   445.04   448.18   463.34   464.45   466.04
eigval :      467.97   485.61   489.84   514.98   515.34   519.85
eigval :      524.37   566.12   567.50   581.69   583.13   585.74
eigval :      586.64   595.24   600.22   616.71   618.69   635.10
eigval :      638.88   639.49   640.40   675.83   685.93   688.36
eigval :      688.81   701.91   702.36   712.67   713.40   735.07
eigval :      737.95   780.18   787.29   816.96   819.71   821.47
eigval :      825.19   830.08   830.94   838.17   844.77   863.76
eigval :      867.53   870.55   871.33   871.57   872.07   893.60
eigval :      897.25   899.50   902.84   906.36   909.85   910.86
eigval :      916.31   918.54   920.73   922.38   925.45   933.30
eigval :      934.13   957.56   958.36   959.01   960.72   960.85
eigval :      962.05   962.18   962.72   963.07   964.34   964.96
eigval :      971.73   976.63   983.07  1022.87  1028.07  1030.32
eigval :     1031.46  1031.52  1032.96  1034.66  1035.83  1036.44
eigval :     1036.75  1037.20  1040.25  1086.36  1100.58  1108.18
eigval :     1115.30  1119.49  1123.70  1125.80  1131.12  1136.54
eigval :     1144.14  1149.47  1163.07  1169.13  1174.74  1203.21
eigval :     1207.96  1214.34  1218.55  1219.61  1220.88  1221.05
eigval :     1222.41  1222.95  1224.00  1227.38  1228.62  1232.43
eigval :     1236.42  1238.77  1240.92  1250.44  1252.41  1267.46
eigval :     1274.10  1281.55  1281.93  1285.62  1292.29  1315.73
eigval :     1318.97  1327.03  1330.71  1344.34  1346.47  1360.36
eigval :     1360.54  1376.04  1394.79  1396.54  1398.25  1399.58
eigval :     1399.97  1401.61  1401.98  1402.21  1404.56  1405.42
eigval :     1406.53  1407.15  1413.54  1425.41  1425.47  1426.91
eigval :     1429.76  1434.37  1437.72  1438.19  1439.78  1445.60
eigval :     1447.73  1466.54  1467.02  1484.68  1486.31  1486.91
eigval :     1488.44  1488.87  1489.84  1490.57  1492.01  1492.93
eigval :     1495.11  1496.08  1497.33  1498.57  1500.65  1500.70
eigval :     1501.73  1502.44  1510.44  1510.62  1511.31  1511.76
eigval :     1515.58  1515.95  1516.93  1517.51  1531.83  1541.76
eigval :     1548.07  1551.76  1555.34  1560.11  1565.94  1573.91
eigval :     1583.43  3020.40  3021.70  3021.88  3022.56  3022.75
eigval :     3023.53  3023.84  3023.88  3025.76  3026.33  3026.57
eigval :     3026.78  3027.36  3028.35  3028.88  3029.68  3030.31
eigval :     3030.45  3030.76  3032.84  3033.29  3033.41  3034.15
eigval :     3037.38  3037.86  3038.09  3038.97  3041.98  3043.63
eigval :     3047.35  3047.61  3047.62  3050.65  3051.49  3053.39
eigval :     3055.09  3077.74  3079.21  3080.74  3086.24  3087.32
eigval :     3090.25  3091.02  3093.19  3093.64  3094.09  3094.56
eigval :     3097.82  3098.51  3101.76  3105.71  3110.84  3122.87
eigval :     3124.48  3126.21  3126.42

   temp. (K)  partition function   enthalpy   heat capacity  entropy
                                   cal/mol     cal/K/mol   cal/K/mol   J/K/mol
 298.15  VIB  0.419E+25            33401.397    205.964    205.726
         ROT  0.139E+09              888.752      2.981     40.249
         INT  0.584E+33            34290.149    208.945    245.975
         TR   0.208E+29             1481.254      4.968     45.794
         TOT                       35771.4030   213.9132   291.7690  1220.7616

       T/K    H(0)-H(T)+PV         H(T)/Eh          T*S/Eh         G(T)/Eh
   ------------------------------------------------------------------------
    298.15    0.570054E-01    0.984897E+00    0.138629E+00    0.846269E+00
   ------------------------------------------------------------------------

         :::::::::::::::::::::::::::::::::::::::::::::::::::::
         ::                  THERMODYNAMIC                  ::
         :::::::::::::::::::::::::::::::::::::::::::::::::::::
         :: total free energy        -156.369708852687 Eh   ::
         ::.................................................::
         :: total energy             -157.215977428258 Eh   ::
         :: zero point energy           0.927892099058 Eh   ::
         :: G(RRHO) w/o ZPVE           -0.081623523487 Eh   ::
         :: G(RRHO) contrib.            0.846268575571 Eh   ::
         :::::::::::::::::::::::::::::::::::::::::::::::::::::

           -------------------------------------------------
          | TOTAL ENERGY             -157.215977428258 Eh   |
          | TOTAL ENTHALPY           -156.231079969923 Eh   |
          | TOTAL FREE ENERGY        -156.369708852687 Eh   |
          | GRADIENT NORM               0.000054368991 Eh/α |
          | HOMO-LUMO GAP               0.303671142270 eV   |
           -------------------------------------------------

 * finished run on 2025/06/06 at 23:53:17.955
