   * xtb version 6.7.1 (edcfbbe) compiled by 'albert@albert-system' on 2024-07-22

   ID    Z sym.   atoms
    1    6 C      1-22, 24-32, 34-48
    2    7 N      23, 33
    3    1 H      49-86

          program call               : xtb data2507/gas/DMTAC/DMTAC.xyz --gfn 2 --ohess vtight --parallel 40 --molden --ceasefiles --namespace data2507/gas/DMTAC/DMTAC_gas_S0_preOpt
          :  Hamiltonian                  GFN2-xTB          :
 * total energy  :  -123.7324950 Eh     change       -0.3972872E-08 Eh
 * total energy  :  -123.7500074 Eh     change       -0.1751238E-01 Eh
 * total energy  :  -123.7570738 Eh     change       -0.7066401E-02 Eh
 * total energy  :  -123.7596495 Eh     change       -0.2575729E-02 Eh
 * total energy  :  -123.7606906 Eh     change       -0.1041086E-02 Eh
 * total energy  :  -123.7610666 Eh     change       -0.3760262E-03 Eh
 * total energy  :  -123.7614336 Eh     change       -0.3669495E-03 Eh
 * total energy  :  -123.7618158 Eh     change       -0.3821829E-03 Eh
 * total energy  :  -123.7622264 Eh     change       -0.4106595E-03 Eh
 * total energy  :  -123.7626094 Eh     change       -0.3829793E-03 Eh
 * total energy  :  -123.7646444 Eh     change       -0.4186229E-06 Eh
 * total energy  :  -123.7646448 Eh     change       -0.4078427E-06 Eh
 * total energy  :  -123.7646453 Eh     change       -0.4311381E-06 Eh
 * total energy  :  -123.7646457 Eh     change       -0.4157689E-06 Eh
 * total energy  :  -123.7646460 Eh     change       -0.3539931E-06 Eh
 * total energy  :  -123.7646463 Eh     change       -0.2910197E-06 Eh
 * total energy  :  -123.7646466 Eh     change       -0.2393059E-06 Eh
 * total energy  :  -123.7646467 Eh     change       -0.1663466E-06 Eh
 * total energy  :  -123.7646468 Eh     change       -0.8946616E-07 Eh
   *** GEOMETRY OPTIMIZATION CONVERGED AFTER 58 ITERATIONS ***

 final structure:
================
86
 xtb: 6.7.1 (edcfbbe)
C            4.90570608682896        4.11909507323762        0.14417058637899
C            3.90639946449674        3.00300429371711        0.11075136705167
C            3.81803703056109        2.10842567316130        1.16753773685740
C            2.89735189035587        1.07843481216955        1.16267706156402
C            2.03675436925884        0.91976776539725        0.08417709177181
C            1.02859854627318       -0.16085528491640        0.07054082543206
C            1.45452522579937       -1.49973679987209        0.13085983369884
C            2.89010768148199       -1.79892060854271        0.32332295012905
C            3.82594474334271       -1.39367748855552       -0.62214189706244
C            5.16765045795341       -1.67341829928898       -0.44392270970203
C            5.59244698410804       -2.35803465788915        0.68196678716851
C            4.66786194581814       -2.76061951865399        1.63033046382990
C            3.32536023564695       -2.48329863207581        1.45280012698453
C            0.54244218182643       -2.52646636414784       -0.04327239019446
C            1.07716776345286       -3.90359846972637        0.05278992885795
C            2.01885693129535       -4.37950652364446       -0.85608206846855
C            2.57306089137975       -5.63591263491148       -0.69487990604388
C            2.20272227806838       -6.42949014701638        0.37811829782623
C            1.26866640997705       -5.96419250388926        1.28911295208599
C            0.70972561527274       -4.70962997203897        1.13032965872725
C           -0.83308062172417       -2.24051556665833       -0.22305482958229
C           -1.79744577388604       -3.21239906487853       -0.65805467615056
N           -1.41615594686619       -4.43404593643773       -1.17353417003040
C           -3.12651574124630       -2.87614185519584       -0.71227108842273
C           -3.62110998605148       -1.63527230170927       -0.26812886284294
C           -5.02803376729036       -1.34183442994403       -0.20907726388555
C           -6.00081707156459       -2.23551940828586       -0.69192151477893
C           -7.34027901657299       -1.95046828609720       -0.63634422183324
C           -7.77617907831034       -0.74726202114053       -0.08124446644709
C           -6.85753896338192        0.14780969709787        0.39929147780852
C           -5.47710512915515       -0.11550793561711        0.34626596453527
C           -4.50879870009320        0.80254117773369        0.86395066704927
N           -4.90389880481598        1.93960657460898        1.55519215016217
C           -3.17528595451959        0.51672838516999        0.75101125573466
C           -2.69487385144253       -0.65755067368032        0.13716689037004
C           -1.28550313300893       -0.90908219181365       -0.01687121958411
C           -0.32547072251164        0.13233543885643        0.01851223467705
C           -0.70276383375338        1.55195513314827       -0.14097342110625
C           -1.42157806100584        1.94986711193762       -1.26341018531975
C           -1.69639141517966        3.28722601357488       -1.47098962179456
C           -1.25987438590823        4.26137202425136       -0.58330012683416
C           -1.55533785864036        5.70806376978212       -0.83991949187078
C           -0.53735160102366        3.87036727449199        0.54760997319704
C           -0.03545903313961        4.88910784936806        1.52516564272226
C           -0.27329218570598        2.52628513221510        0.75388454218031
C            2.13313030447839        1.80682709544895       -0.98129381553727
C            3.04788507465568        2.84654688185474       -0.98110884074126
C            3.10339882022944        3.79507155083685       -2.13975475067492
H            5.48919061396494        4.08590642444573        1.06088815203005
H            5.58789021041687        4.05045731867890       -0.70291494924124
H            4.40527052700774        5.08570539640458        0.08701710498018
H            4.47986071217756        2.22295019845541        2.01487513011603
H            2.83617610334444        0.40403113825035        2.00438223737989
H            3.49538107175045       -0.86250817220915       -1.50310671359355
H            5.88517187696299       -1.35595952001636       -1.18677127324950
H            6.64131525476827       -2.57611885776104        0.82072985184588
H            4.99377263248281       -3.29235771869430        2.51271760758062
H            2.60620596037774       -2.79183266199559        2.19820649351030
H            2.30853231260639       -3.76015229731037       -1.69176137970128
H            3.30238495277934       -5.99489718177453       -1.40598554471729
H            2.64288191638966       -7.40722079701263        0.50639825310437
H            0.98038394469284       -6.57807210089736        2.13012835014646
H           -0.01544289247373       -4.33989748107220        1.84211000498029
H           -0.50511881273563       -4.78648430886222       -0.93552520539400
H           -2.14296377478108       -5.12858461217229       -1.22766592278619
H           -3.80579142173443       -3.62682216139156       -1.08521659188160
H           -5.69706772509230       -3.17182149161523       -1.13196857266514
H           -8.06134536655012       -2.65669652566457       -1.02200704366680
H           -8.83240621826915       -0.52557524860250       -0.03211586114831
H           -7.21131292726959        1.07116569254059        0.83437496381225
H           -4.16700881519988        2.61771436353573        1.67789927889575
H           -5.77708186366179        2.35351178212460        1.27183042445970
H           -2.47544517957721        1.20589113631556        1.19355837573722
H           -1.75871372236197        1.20748385500689       -1.97200631687882
H           -2.25459526328019        3.58366742194290       -2.34840912306050
H           -2.13606087959918        5.82662683887108       -1.75140162397956
H           -0.63055843563418        6.27559335488297       -0.94304056663725
H           -2.11668338319566        6.14200159717652       -0.01243373546179
H           -0.86050641165001        5.45768089559485        1.95451735254284
H            0.63019555349068        5.59545067672065        1.02993620323105
H            0.51301896842262        4.40816271091990        2.33101434958759
H            0.27485122886292        2.22580092904097        1.63559945733150
H            1.47312656079742        1.68263103231305       -1.82854296009237
H            2.35683868416701        3.53301330465215       -2.88513863482693
H            4.08700354937675        3.77648259544373       -2.60884410133120
H            2.91498716245478        4.81559232232943       -1.80731139886200

          :  Hamiltonian                  GFN2-xTB          :
         :: gradient norm              0.000030840441 Eh/a0 ::
         :: HOMO-LUMO gap              2.001164302627 eV    ::
         :: SCC energy              -126.090217100699 Eh    ::
         :: -> dispersion             -0.130447873015 Eh    ::
         :: repulsion energy           2.325570277275 Eh    ::

    * Orbital Energies and Occupations

         #    Occupation            Energy/Eh            Energy/eV
      -------------------------------------------------------------
         1        2.0000           -0.6489541             -17.6589
       ...           ...                  ...                  ...
       104        2.0000           -0.3998176             -10.8796
       105        2.0000           -0.3967901             -10.7972
       106        2.0000           -0.3936951             -10.7130
       107        2.0000           -0.3907917             -10.6340
       108        2.0000           -0.3889962             -10.5851
       109        2.0000           -0.3864142             -10.5149
       110        2.0000           -0.3821076             -10.3977
       111        2.0000           -0.3800881             -10.3427
       112        2.0000           -0.3778294             -10.2813
       113        2.0000           -0.3703375             -10.0774
       114        2.0000           -0.3646811              -9.9235
       115        2.0000           -0.3582125              -9.7475
       116        2.0000           -0.3236741              -8.8076 (HOMO)
       117                         -0.2501326              -6.8065 (LUMO)
       118                         -0.2387024              -6.4954
       119                         -0.2303323              -6.2677
       120                         -0.2242238              -6.1014
       121                         -0.2200369              -5.9875
       122                         -0.2153678              -5.8605
       123                         -0.2135068              -5.8098
       124                         -0.2107210              -5.7340
       125                         -0.2075930              -5.6489
       126                         -0.2040222              -5.5517
       127                         -0.2010870              -5.4719
       ...                                ...                  ...
       230                          0.7314659              19.9042
      -------------------------------------------------------------
                  HL-Gap            0.0735415 Eh            2.0012 eV

     #   Z          covCN         q      C6AA      α(0)
     1   6 C        3.758    -0.105    22.556     6.771
     2   6 C        2.970     0.004    27.923     8.668
     3   6 C        2.923    -0.043    29.058     8.840
     4   6 C        2.923    -0.039    28.960     8.825
     5   6 C        2.977     0.010    27.789     8.647
     6   6 C        2.984    -0.004    28.113     8.697
     7   6 C        2.987    -0.006    28.154     8.704
     8   6 C        2.978     0.016    27.648     8.625
     9   6 C        2.925    -0.031    28.780     8.798
    10   6 C        2.919    -0.030    28.753     8.793
    11   6 C        2.920    -0.033    28.812     8.802
    12   6 C        2.919    -0.031    28.767     8.795
    13   6 C        2.925    -0.033    28.814     8.803
    14   6 C        2.978    -0.007    28.197     8.710
    15   6 C        2.980     0.015    27.664     8.628
    16   6 C        2.923    -0.035    28.867     8.811
    17   6 C        2.919    -0.031    28.765     8.795
    18   6 C        2.920    -0.033    28.833     8.806
    19   6 C        2.918    -0.032    28.801     8.801
    20   6 C        2.924    -0.036    28.888     8.814
    21   6 C        2.981    -0.015    28.386     8.740
    22   6 C        2.891     0.071    26.416     8.426
    23   7 N        2.644    -0.287    27.416     7.777
    24   6 C        2.927    -0.077    29.914     8.969
    25   6 C        2.979    -0.005    28.142     8.702
    26   6 C        2.981     0.004    27.935     8.670
    27   6 C        2.922    -0.035    28.876     8.812
    28   6 C        2.917    -0.035    28.879     8.812
    29   6 C        2.916    -0.035    28.879     8.812
    30   6 C        2.921    -0.036    28.900     8.816
    31   6 C        2.986    -0.007    28.182     8.708
    32   6 C        2.892     0.066    26.521     8.443
    33   7 N        2.641    -0.285    27.368     7.770
    34   6 C        2.924    -0.074    29.856     8.961
    35   6 C        2.981    -0.003    28.092     8.694
    36   6 C        2.982    -0.002    28.073     8.691
    37   6 C        2.979    -0.003    28.085     8.693
    38   6 C        2.978     0.015    27.676     8.629
    39   6 C        2.924    -0.038    28.944     8.823
    40   6 C        2.923    -0.043    29.071     8.842
    41   6 C        2.970     0.002    27.980     8.676
    42   6 C        3.757    -0.105    22.550     6.770
    43   6 C        2.969     0.004    27.927     8.668
    44   6 C        3.758    -0.104    22.540     6.769
    45   6 C        2.929    -0.045    29.120     8.850
    46   6 C        2.930    -0.043    29.076     8.843
    47   6 C        2.970     0.006    27.882     8.661
    48   6 C        3.758    -0.104    22.542     6.769
    49   1 H        0.925     0.038     2.482     2.464
    50   1 H        0.925     0.042     2.420     2.433
    51   1 H        0.925     0.041     2.430     2.438
    52   1 H        0.925     0.025     2.662     2.552
    53   1 H        0.926     0.023     2.681     2.561
    54   1 H        0.926     0.028     2.619     2.531
    55   1 H        0.926     0.027     2.629     2.536
    56   1 H        0.926     0.027     2.633     2.538
    57   1 H        0.926     0.026     2.637     2.540
    58   1 H        0.926     0.025     2.661     2.551
    59   1 H        0.926     0.031     2.567     2.505
    60   1 H        0.926     0.029     2.594     2.519
    61   1 H        0.926     0.029     2.605     2.524
    62   1 H        0.926     0.029     2.598     2.521
    63   1 H        0.925     0.030     2.589     2.516
    64   1 H        0.860     0.168     1.284     1.775
    65   1 H        0.860     0.155     1.365     1.830
    66   1 H        0.926     0.021     2.713     2.576
    67   1 H        0.926     0.029     2.597     2.520
    68   1 H        0.926     0.023     2.685     2.562
    69   1 H        0.926     0.023     2.695     2.567
    70   1 H        0.926     0.022     2.697     2.568
    71   1 H        0.860     0.155     1.367     1.831
    72   1 H        0.860     0.158     1.350     1.820
    73   1 H        0.926     0.028     2.610     2.526
    74   1 H        0.926     0.027     2.634     2.538
    75   1 H        0.925     0.025     2.663     2.552
    76   1 H        0.925     0.037     2.487     2.466
    77   1 H        0.925     0.042     2.426     2.436
    78   1 H        0.925     0.040     2.451     2.448
    79   1 H        0.925     0.040     2.444     2.445
    80   1 H        0.925     0.042     2.429     2.437
    81   1 H        0.925     0.038     2.472     2.459
    82   1 H        0.926     0.026     2.643     2.542
    83   1 H        0.926     0.025     2.654     2.547
    84   1 H        0.925     0.038     2.472     2.459
    85   1 H        0.925     0.042     2.418     2.432
    86   1 H        0.925     0.041     2.435     2.440

molecular dipole:
                 x           y           z       tot (Debye)
 q only:        0.212       0.495      -0.058
   full:        0.327       0.568      -0.064       1.673

 projected vibrational frequencies (cm⁻¹)
eigval :       -0.00    -0.00    -0.00     0.00     0.00     0.00
eigval :       14.58    18.36    21.93    26.06    28.18    34.81
eigval :       43.54    46.40    51.64    54.50    60.80    70.86
eigval :       75.21    84.36   108.63   112.75   113.37   116.97
eigval :      129.51   131.99   150.32   165.62   168.51   171.16
eigval :      173.30   190.62   193.64   206.43   207.73   212.48
eigval :      220.64   229.14   237.41   249.18   273.75   281.00
eigval :      298.90   301.04   302.55   308.14   329.52   340.82
eigval :      351.17   370.03   371.29   374.60   381.07   390.50
eigval :      397.74   400.17   413.39   414.97   420.30   427.54
eigval :      455.71   477.45   480.66   490.74   493.46   509.10
eigval :      512.47   517.19   519.49   524.97   540.93   549.45
eigval :      558.74   565.93   573.22   577.50   587.99   592.97
eigval :      599.85   611.14   616.96   624.56   646.79   649.55
eigval :      656.30   666.35   668.54   677.04   689.09   695.76
eigval :      717.10   721.47   727.55   735.56   760.13   761.30
eigval :      766.97   774.37   785.36   786.71   790.67   813.09
eigval :      824.71   826.26   841.36   856.06   862.56   864.69
eigval :      878.03   878.90   887.58   890.03   892.79   900.67
eigval :      902.14   903.73   917.76   918.10   920.28   928.84
eigval :      929.06   931.04   931.84   945.75   967.52   987.63
eigval :      994.70  1008.87  1011.04  1013.86  1016.13  1022.88
eigval :     1024.52  1032.12  1034.64  1034.98  1045.88  1066.25
eigval :     1082.98  1084.43  1095.93  1105.89  1115.66  1118.15
eigval :     1121.81  1133.92  1138.09  1155.53  1180.92  1182.02
eigval :     1182.69  1188.83  1191.43  1196.12  1199.62  1201.92
eigval :     1209.70  1226.43  1236.64  1251.04  1252.17  1269.10
eigval :     1271.24  1271.63  1279.34  1281.08  1283.79  1291.02
eigval :     1307.08  1311.15  1316.33  1317.20  1318.70  1323.54
eigval :     1331.61  1371.97  1383.63  1389.09  1397.23  1397.62
eigval :     1402.17  1402.82  1409.29  1411.04  1412.06  1422.91
eigval :     1426.03  1430.17  1430.71  1434.37  1468.90  1474.51
eigval :     1477.00  1477.84  1482.99  1483.61  1484.41  1486.67
eigval :     1491.37  1491.44  1494.28  1494.66  1495.55  1502.03
eigval :     1503.66  1505.56  1525.05  1533.94  1543.41  1571.15
eigval :     1575.79  1577.04  1578.33  1584.64  1592.27  1598.04
eigval :     1603.35  1604.53  1607.78  1611.04  2992.69  2994.15
eigval :     2994.78  2996.16  3006.58  3007.24  3012.57  3013.23
eigval :     3041.51  3042.44  3044.57  3045.26  3063.94  3064.69
eigval :     3067.00  3068.51  3069.53  3070.89  3072.37  3072.98
eigval :     3076.05  3076.95  3078.80  3081.33  3083.56  3083.99
eigval :     3084.19  3084.49  3088.29  3089.51  3090.39  3096.12
eigval :     3105.98  3121.53  3449.23  3465.81  3498.39  3524.15

   temp. (K)  partition function   enthalpy   heat capacity  entropy
                                   cal/mol     cal/K/mol   cal/K/mol   J/K/mol
 298.15  VIB  0.811E+19            25121.499    155.918    155.710
         ROT  0.637E+08              888.752      2.981     38.692
         INT  0.517E+27            26010.251    158.898    194.402
         TR   0.149E+29             1481.254      4.968     45.130
         TOT                       27491.5048   163.8666   239.5319  1002.2015

       T/K    H(0)-H(T)+PV         H(T)/Eh          T*S/Eh         G(T)/Eh
   ------------------------------------------------------------------------
    298.15    0.438105E-01    0.730949E+00    0.113809E+00    0.617140E+00
   ------------------------------------------------------------------------

         :::::::::::::::::::::::::::::::::::::::::::::::::::::
         ::                  THERMODYNAMIC                  ::
         :::::::::::::::::::::::::::::::::::::::::::::::::::::
         :: total free energy        -123.147507040586 Eh   ::
         ::.................................................::
         :: total energy             -123.764646823416 Eh   ::
         :: zero point energy           0.687138622220 Eh   ::
         :: G(RRHO) w/o ZPVE           -0.069998839390 Eh   ::
         :: G(RRHO) contrib.            0.617139782830 Eh   ::
         :::::::::::::::::::::::::::::::::::::::::::::::::::::

           -------------------------------------------------
          | TOTAL ENERGY             -123.764646823416 Eh   |
          | TOTAL ENTHALPY           -123.033697699566 Eh   |
          | TOTAL FREE ENERGY        -123.147507040586 Eh   |
          | GRADIENT NORM               0.000030851484 Eh/α |
          | HOMO-LUMO GAP               2.001165537302 eV   |
           -------------------------------------------------

 * finished run on 2025/08/24 at 23:22:00.596
