   * xtb version 6.7.1 (edcfbbe) compiled by 'albert@albert-system' on 2024-07-22

   ID    Z sym.   atoms
    1    6 C      1-22, 24-32, 34-48
    2    7 N      23, 33
    3    1 H      49-86

          program call               : xtb data2507/gas/DMTAC/DMTAC_gas_S0_finalOpt.xtbopt.xyz --gfn 2 --spinpol --tblite --uhf 2 --ohess vtight --parallel 40 --molden --ceasefiles --namespace data2507/gas/DMTAC/DMTAC_gas_T1_preOpt
 * total energy  :  -123.6885520 Eh     change        0.1921897E-07 Eh
 * total energy  :  -123.6944727 Eh     change       -0.5920749E-02 Eh
 * total energy  :  -123.6964831 Eh     change       -0.2010425E-02 Eh
 * total energy  :  -123.6967740 Eh     change       -0.2908527E-03 Eh
 * total energy  :  -123.6970583 Eh     change       -0.2843045E-03 Eh
 * total energy  :  -123.6972031 Eh     change       -0.1447973E-03 Eh
 * total energy  :  -123.6973270 Eh     change       -0.1238952E-03 Eh
 * total energy  :  -123.6974038 Eh     change       -0.7684475E-04 Eh
 * total energy  :  -123.6974646 Eh     change       -0.6075822E-04 Eh
 * total energy  :  -123.6975190 Eh     change       -0.5438709E-04 Eh
 * total energy  :  -123.6980188 Eh     change       -0.1217528E-05 Eh
 * total energy  :  -123.6980198 Eh     change       -0.1007510E-05 Eh
 * total energy  :  -123.6980209 Eh     change       -0.1049158E-05 Eh
 * total energy  :  -123.6980217 Eh     change       -0.8174802E-06 Eh
 * total energy  :  -123.6980224 Eh     change       -0.7241255E-06 Eh
 * total energy  :  -123.6980232 Eh     change       -0.7412386E-06 Eh
 * total energy  :  -123.6980238 Eh     change       -0.6481864E-06 Eh
 * total energy  :  -123.6980245 Eh     change       -0.6774979E-06 Eh
 * total energy  :  -123.6980246 Eh     change       -0.8099614E-07 Eh
   *** GEOMETRY OPTIMIZATION CONVERGED AFTER 44 ITERATIONS ***

 final structure:
================
86
 xtb: 6.7.1 (edcfbbe)
C            4.52803540464913        5.05344481541169        0.04384044121332
C            3.69246406038123        3.81005805646355        0.00520337988718
C            3.81774224864062        2.84865888098197        0.99824145578614
C            3.04729334235608        1.70276840957089        0.99183034967360
C            2.12458121531873        1.48584489287209       -0.02616523776565
C            1.26554119826104        0.28990890858365       -0.03413104876879
C            1.82434951722476       -0.98091906010254        0.00452908010325
C            3.29134970267654       -1.12508337909181        0.11775893144333
C            4.12927417091942       -0.59253430730987       -0.85675571327143
C            5.50111088756112       -0.72150602246584       -0.74856188538561
C            6.05500388027820       -1.38104737767401        0.33545435627758
C            5.22865875109467       -1.91042123718023        1.31215993354064
C            3.85656865835784       -1.78469988416767        1.20444663921392
C            1.01564503017923       -2.12606423295410       -0.07942527344337
C            1.65787366675679       -3.44151077254307        0.03958093632494
C            2.70216728060057       -3.82610656865419       -0.80532434427446
C            3.33220289144642       -5.04343221725571       -0.63562665787819
C            2.94019489491607       -5.89893670584219        0.38176766713729
C            1.90461393352276       -5.52947906667724        1.22688139410607
C            1.26885385963397       -4.31626124497309        1.05977875477606
C           -0.39602316725083       -1.98455669810099       -0.19794870485940
C           -1.26516982119308       -3.02820691306318       -0.59911708188643
N           -0.81781252743902       -4.26836715193768       -0.97904866194336
C           -2.66664624994232       -2.81055065541883       -0.68527151214470
C           -3.25524724685443       -1.63708350087659       -0.29707884892024
C           -4.69310289370342       -1.42173901518616       -0.30060800452643
C           -5.56021259495540       -2.25417506520653       -1.00088752919523
C           -6.93360104016913       -2.05335158469014       -0.98428889466628
C           -7.46532963973843       -0.99491766855716       -0.26861735520733
C           -6.62967991479289       -0.13998343643740        0.42139209168530
C           -5.23662042286907       -0.32884744146330        0.42428435044129
C           -4.34858607326449        0.53675373594508        1.13081841774931
N           -4.82446554927313        1.57548130509824        1.89605908435118
C           -2.96278516470678        0.40787117364123        0.96783440410844
C           -2.40066464711233       -0.58725581593832        0.20178039610870
C           -0.96579983116700       -0.68891887604896       -0.01148000053534
C           -0.14812277370219        0.43667481704995       -0.02361116229005
C           -0.70897486924376        1.79638845763583       -0.10805470125118
C           -1.58240658040653        2.12402192742314       -1.14161229999332
C           -2.05015037638299        3.41531905314575       -1.27413906572746
C           -1.66002624461779        4.41936078338519       -0.39736869511964
C           -2.16477271420855        5.81919181190123       -0.57486252208578
C           -0.78628591623958        4.10127389261237        0.64561188683971
C           -0.32832288505285        5.15523016938655        1.60792570247841
C           -0.33006917487123        2.80036661829125        0.77889489466237
C            2.00933252357343        2.44397621658416       -1.02930454282552
C            2.77143010840817        3.59952942752282       -1.02508709945350
C            2.59554192473890        4.61594626722357       -2.11226540527614
H            5.19110639741768        5.04454905043793        0.90547625875742
H            5.13380717811191        5.13920631541869       -0.85806970539480
H            3.89647083856402        5.94004852049599        0.10240734559451
H            4.52732083065917        3.00463776256552        1.79929499288246
H            3.14710348849424        0.98160360065386        1.78977354871422
H            3.69820121801468       -0.08105230582736       -1.70551957150562
H            6.14113041490673       -0.30592232514934       -1.51369667352056
H            7.12739723007922       -1.48156923031202        0.41942436965468
H            5.65506423993888       -2.42380471518180        2.16207807454392
H            3.21409949308672       -2.19299159485794        1.97159378660437
H            3.00836413594853       -3.16673659875240       -1.60451326533991
H            4.13676005293269       -5.32593452570248       -1.29927432781544
H            3.43998686767794       -6.84664943034676        0.51692497805294
H            1.59943069175270       -6.18983709864762        2.02595356834261
H            0.46803675405045       -4.02341279119723        1.72343282092032
H            0.16115639998679       -4.37874053506479       -1.18734557705371
H           -1.46066241284744       -4.83666543468803       -1.50558925754928
H           -3.26361079433430       -3.64058676844362       -1.03243622413799
H           -5.16640433067739       -3.06979444257744       -1.58719949744850
H           -7.58106492925270       -2.71907449745173       -1.53533723854958
H           -8.53312011083354       -0.83022218001574       -0.25492188694392
H           -7.06226675453861        0.69666583532452        0.94991138061269
H           -4.15111671295503        2.03958053022863        2.48306092099762
H           -5.75514909637776        1.50372655920718        2.26993212492747
H           -2.33135036828985        1.12199277524699        1.47346530974897
H           -1.88470271640904        1.36151402326002       -1.84504810423750
H           -2.72485155901778        3.65423005684483       -2.08462319608882
H           -2.83901040967445        5.87951404760538       -1.42561417256363
H           -1.33660311207718        6.50841599708823       -0.74038703345333
H           -2.69918645586669        6.15376655354463        0.31425970885061
H           -1.17464253694540        5.59821634307668        2.13327193622788
H            0.18676741356145        5.95581708072877        1.07782418224564
H            0.35612154121512        4.73389123240849        2.33997831978454
H            0.33566917176780        2.55722669333695        1.59516958779061
H            1.30438279271717        2.27999886534960       -1.83234397205748
H            2.30291559327103        5.57776091951672       -1.69175649849792
H            1.82631107046707        4.29870319790197       -2.81179929015142
H            3.52652581755002        4.76371839887587       -2.65951720031778

 projected vibrational frequencies (cm⁻¹)
eigval :       -0.00    -0.00    -0.00     0.00     0.00     0.00
eigval :       14.72    19.70    25.15    27.11    29.73    35.38
eigval :       44.84    47.14    54.14    55.12    63.23    75.24
eigval :       80.28    92.22   107.37   111.72   112.67   115.17
eigval :      129.86   132.38   151.35   164.36   167.03   170.41
eigval :      173.00   187.24   191.97   200.79   206.31   211.94
eigval :      220.88   233.77   238.80   252.34   267.41   285.47
eigval :      291.50   300.86   301.79   315.40   332.76   347.62
eigval :      349.65   371.30   374.38   375.66   380.39   391.90
eigval :      394.45   407.80   412.21   414.67   419.32   425.90
eigval :      451.54   464.06   467.19   473.13   483.36   485.80
eigval :      491.01   504.33   506.07   513.13   516.98   526.68
eigval :      543.03   550.15   554.69   564.75   570.52   584.48
eigval :      588.78   597.67   604.92   608.27   619.02   629.17
eigval :      649.78   657.65   664.32   671.91   676.30   689.48
eigval :      702.96   713.29   716.59   726.81   752.71   756.66
eigval :      757.30   771.39   785.05   786.41   788.05   801.97
eigval :      823.27   824.98   833.61   836.75   850.79   857.27
eigval :      873.88   878.68   884.43   886.70   890.49   891.66
eigval :      892.30   901.44   910.27   917.42   918.23   926.34
eigval :      926.88   929.19   930.44   938.74   964.38   982.20
eigval :      991.17  1000.52  1005.41  1008.76  1011.03  1015.63
eigval :     1018.97  1022.53  1024.11  1034.24  1034.35  1055.30
eigval :     1081.73  1084.16  1091.66  1101.06  1112.29  1119.69
eigval :     1122.36  1131.44  1136.62  1147.17  1169.15  1175.70
eigval :     1181.18  1182.14  1187.02  1195.14  1198.12  1199.99
eigval :     1205.95  1224.48  1232.35  1242.78  1245.92  1251.97
eigval :     1259.55  1271.58  1272.32  1277.66  1280.87  1284.34
eigval :     1286.74  1306.31  1315.02  1317.83  1319.97  1321.60
eigval :     1323.78  1355.37  1362.49  1374.54  1381.00  1387.93
eigval :     1399.37  1399.72  1402.02  1405.57  1407.73  1409.34
eigval :     1413.69  1417.55  1422.65  1428.57  1433.28  1443.39
eigval :     1447.85  1469.22  1472.61  1476.65  1476.86  1477.53
eigval :     1482.17  1482.74  1488.21  1490.95  1491.19  1493.24
eigval :     1494.50  1495.01  1500.42  1504.15  1529.93  1537.23
eigval :     1540.80  1558.44  1566.70  1568.05  1572.56  1582.39
eigval :     1587.02  1601.24  1603.65  1605.75  2991.20  2992.35
eigval :     2993.17  2994.64  3005.01  3005.62  3011.28  3011.93
eigval :     3040.99  3041.50  3042.79  3043.69  3062.57  3063.31
eigval :     3067.09  3067.85  3068.64  3069.47  3070.85  3072.76
eigval :     3073.74  3075.44  3077.82  3077.91  3080.02  3080.82
eigval :     3082.51  3084.64  3085.01  3085.92  3089.33  3091.60
eigval :     3096.13  3097.66  3439.12  3461.51  3506.69  3519.80

   temp. (K)  partition function   enthalpy   heat capacity  entropy
                                   cal/mol     cal/K/mol   cal/K/mol   J/K/mol
 298.15  VIB  0.552E+19            25303.569    157.750    156.328
         ROT  0.638E+08              888.752      2.981     38.694
         INT  0.352E+27            26192.322    160.730    195.023
         TR   0.149E+29             1481.254      4.968     45.130
         TOT                       27673.5755   165.6986   240.1529  1004.7999

       T/K    H(0)-H(T)+PV         H(T)/Eh          T*S/Eh         G(T)/Eh
   ------------------------------------------------------------------------
    298.15    0.441006E-01    0.727744E+00    0.114104E+00    0.613640E+00
   ------------------------------------------------------------------------

         :::::::::::::::::::::::::::::::::::::::::::::::::::::
         ::                  THERMODYNAMIC                  ::
         :::::::::::::::::::::::::::::::::::::::::::::::::::::
         :: total free energy        -123.084384729805 Eh   ::
         ::.................................................::
         :: total energy             -123.698024570741 Eh   ::
         :: zero point energy           0.683643603822 Eh   ::
         :: G(RRHO) w/o ZPVE           -0.070003762886 Eh   ::
         :: G(RRHO) contrib.            0.613639840936 Eh   ::
         :::::::::::::::::::::::::::::::::::::::::::::::::::::

           -------------------------------------------------
          | TOTAL ENERGY             -123.698024570741 Eh   |
          | TOTAL ENTHALPY           -122.970280317241 Eh   |
          | TOTAL FREE ENERGY        -123.084384729805 Eh   |
          | GRADIENT NORM               0.000075420221 Eh/α |
           -------------------------------------------------

 * finished run on 2025/08/24 at 23:26:36.162
