   * xtb version 6.7.1 (edcfbbe) compiled by 'albert@albert-system' on 2024-07-22

   ID    Z sym.   atoms
    1    6 C      1-22, 24-32, 34-48
    2    7 N      23, 33
    3    1 H      49-86

          program call               : xtb data2507/gas/DMTAC/DMTAC_gas_T1_crest.xyz --gfn 2 --spinpol --tblite --uhf 2 --ohess vtight --parallel 40 --molden --ceasefiles --namespace data2507/gas/DMTAC/DMTAC_gas_T1_finalOpt
 * total energy  :  -123.6983933 Eh     change       -0.1464799E-07 Eh
 * total energy  :  -123.6984004 Eh     change       -0.7135759E-05 Eh
 * total energy  :  -123.6984030 Eh     change       -0.2578541E-05 Eh
 * total energy  :  -123.6984039 Eh     change       -0.9599399E-06 Eh
 * total energy  :  -123.6984052 Eh     change       -0.1214229E-05 Eh
 * total energy  :  -123.6984059 Eh     change       -0.7249464E-06 Eh
 * total energy  :  -123.6984066 Eh     change       -0.7456860E-06 Eh
 * total energy  :  -123.6984072 Eh     change       -0.6008173E-06 Eh
 * total energy  :  -123.6984077 Eh     change       -0.5116310E-06 Eh
 * total energy  :  -123.6984082 Eh     change       -0.4199271E-06 Eh
 * total energy  :  -123.6984084 Eh     change       -0.2417704E-06 Eh
 * total energy  :  -123.6984087 Eh     change       -0.2505654E-06 Eh
 * total energy  :  -123.6984089 Eh     change       -0.2199141E-06 Eh
 * total energy  :  -123.6984091 Eh     change       -0.2205194E-06 Eh
 * total energy  :  -123.6984093 Eh     change       -0.2097536E-06 Eh
 * total energy  :  -123.6984095 Eh     change       -0.1678538E-06 Eh
 * total energy  :  -123.6984096 Eh     change       -0.1683073E-06 Eh
 * total energy  :  -123.6984097 Eh     change       -0.9211549E-07 Eh
   *** GEOMETRY OPTIMIZATION CONVERGED AFTER 18 ITERATIONS ***

 final structure:
================
86
 xtb: 6.7.1 (edcfbbe)
C            4.38382042839697        5.17229541229230       -0.07470547898541
C            3.57863033836947        3.90844759111055       -0.07907244922032
C            3.75575953777576        2.95887541156578        0.91746302115092
C            3.01658146648711        1.79268492525727        0.94059181336901
C            2.07305775348972        1.54319349607308       -0.05039567903715
C            1.24814678527460        0.32370193146298       -0.03514207707696
C            1.84132586094774       -0.93257489504437       -0.00673674921698
C            3.31302575261578       -1.03767473956310        0.08828069826207
C            4.12405628896719       -0.48791591961992       -0.89924445180972
C            5.50008065535128       -0.58079123462578       -0.80825695243299
C            6.08466775110180       -1.22085081125618        0.27131687808325
C            5.28499257907229       -1.76709343716760        1.26085518662598
C            3.90878351788883       -1.67751313619161        1.17039212066125
C            1.06277061577804       -2.09749659943544       -0.08362294977333
C            1.73840313506446       -3.39651457549869        0.03372028578127
C            2.78614567938071       -3.75831952967790       -0.81676970282417
C            3.44726658132276       -4.95906604637709       -0.64645709796560
C            3.08312994398720       -5.81984356784276        0.37676163794294
C            2.04380359429488       -5.47314891326310        1.22687732158417
C            1.37703001448080       -4.27671308252762        1.05921561083292
C           -0.35325950260051       -1.99280782510981       -0.19434013084524
C           -1.19644514490088       -3.05496444602419       -0.60113387180661
N           -0.71880816754207       -4.28231074610899       -0.98431010991645
C           -2.60219194694365       -2.86858417980610       -0.69353804534075
C           -3.21939011958592       -1.71251244075429       -0.29704982254167
C           -4.66173359877913       -1.53033544712851       -0.30444519602452
C           -5.50278744988682       -2.37126729561415       -1.02544553816963
C           -6.88213186013047       -2.21732721553359       -1.00072297374525
C           -7.44622508771738       -1.20636924975989       -0.24247279960210
C           -6.63692868172382       -0.34073954526665        0.46493309746450
C           -5.23620792064839       -0.46679807496131        0.44194234761402
C           -4.37182069614537        0.43056207018462        1.13665978428062
N           -4.86518443620268        1.42225459160905        1.95308817064748
C           -2.98059945287472        0.31832820137724        0.99991271491306
C           -2.39200600827269       -0.65439659878470        0.22682747064550
C           -0.95523976728989       -0.71426266789413        0.00803170312323
C           -0.16780776134233        0.43202058862381       -0.00041717482200
C           -0.76215982248425        1.77979131549110       -0.04509526119398
C           -1.65983457103955        2.11590581826630       -1.05485714061241
C           -2.16336594185902        3.39810661317220       -1.13924349291127
C           -1.78539305595100        4.38481423441419       -0.23735998719198
C           -2.33000952770166        5.77566032594138       -0.36219788927108
C           -0.88445658490566        4.05864752671136        0.77991223347985
C           -0.43572869971383        5.09450023823474        1.76579715185403
C           -0.39288940563043        2.76649858857918        0.86496434071372
C            1.90423863561399        2.49087178449687       -1.05598294868669
C            2.63512869843502        3.66596627683327       -1.08164206985198
C            2.40333257025508        4.66766611238826       -2.17206684250660
H            3.73239835108473        6.04403863095168       -0.01118481992557
H            5.06751448529967        5.18988414814189        0.77048285897085
H            4.96543956551453        5.26167452673374       -0.99209039391456
H            4.48260234089439        3.13999336946504        1.69743576993432
H            3.15784321511058        1.08070064623026        1.74046266258102
H            3.66886056368552        0.00849543293816       -1.74438319596121
H            6.11925195805681       -0.15220314462055       -1.58330081327691
H            7.16029054055002       -1.29313414356244        0.34183325580460
H            5.73548512645646       -2.26539546561253        2.10728639123038
H            3.28681247987401       -2.09889588063265        1.94726844556803
H            3.07089781065093       -3.09472573576208       -1.62038617376668
H            4.25444744592320       -5.22409934703401       -1.31410468279130
H            3.60743771850291       -6.75411769949477        0.51254305985782
H            1.75999077458576       -6.13774460104239        2.03024820274484
H            0.57319160881945       -4.00115537171066        1.72657064107264
H            0.26353711483038       -4.37101031901646       -1.18672982176893
H           -1.34668236885534       -4.86655763976444       -1.51122700309684
H           -3.17848699245861       -3.70822385178692       -1.05227403946406
H           -5.08314870784615       -3.15778066104240       -1.63329324756957
H           -7.50891185251775       -2.88721703823249       -1.57018685059936
H           -8.51964296651022       -1.08793698901763       -0.20733829372215
H           -7.10212766199336        0.44038169962191        1.04839445758093
H           -4.21230016133965        2.14789857070236        2.20255138349472
H           -5.81037179570039        1.73142465222906        1.80096319205877
H           -2.36849247296971        1.03977013954152        1.51838175277445
H           -1.95432139695197        1.36773423933386       -1.77680396947137
H           -2.85678718037829        3.64454126170977       -1.93180958663888
H           -3.02555911787993        5.84329975137809       -1.19521119702398
H           -1.52329602613546        6.48982334155616       -0.52727178554475
H           -2.85023651785137        6.07278009645565        0.54860914493841
H            0.26970478611198        4.66776129390845        2.47423184741063
H           -1.28275684759140        5.50245805362297        2.31781601255764
H            0.05238175165112        5.92181911546352        1.25146862263058
H            0.29370762577017        2.51605822741261        1.66121556512368
H            1.18231467477613        2.30171201887186       -1.83819294879845
H            2.09796278326947        5.62576555596197       -1.75210524921252
H            1.62353794742260        4.32446713529716       -2.84730019638669
H            3.31475619405999        4.83361068675803       -2.74634955744602

 projected vibrational frequencies (cm⁻¹)
eigval :       -0.00    -0.00    -0.00    -0.00     0.00     0.00
eigval :       15.08    20.56    25.16    28.16    29.75    34.72
eigval :       44.08    47.31    53.27    55.43    63.15    74.86
eigval :       78.45    92.07   105.08   112.01   112.39   114.84
eigval :      129.05   132.59   151.62   163.76   167.92   170.83
eigval :      173.06   187.88   192.02   200.28   206.27   212.00
eigval :      220.97   232.13   237.57   252.79   269.48   281.78
eigval :      300.16   301.54   306.11   315.34   325.63   341.53
eigval :      348.05   371.37   374.30   375.39   381.49   389.15
eigval :      397.47   407.79   411.47   414.19   419.63   426.79
eigval :      451.49   463.02   470.29   478.41   485.65   491.13
eigval :      503.42   506.59   512.28   517.20   521.88   531.89
eigval :      543.44   552.93   556.93   566.18   570.16   584.87
eigval :      588.83   598.01   604.52   608.11   619.29   629.46
eigval :      649.96   657.79   664.34   671.88   676.27   690.14
eigval :      703.04   713.12   716.74   726.86   750.49   756.52
eigval :      757.13   771.49   784.92   786.67   788.12   801.82
eigval :      823.76   825.13   831.10   837.15   854.32   856.95
eigval :      874.06   878.68   884.74   887.04   889.75   891.21
eigval :      892.70   901.63   909.59   918.12   918.57   926.56
eigval :      927.06   929.20   930.50   939.08   964.82   981.91
eigval :      991.71  1000.48  1006.36  1008.95  1011.23  1015.90
eigval :     1019.87  1022.77  1024.31  1034.34  1034.66  1055.53
eigval :     1081.99  1084.26  1091.49  1100.11  1114.21  1119.66
eigval :     1122.12  1131.36  1136.69  1146.99  1169.51  1176.56
eigval :     1180.99  1182.48  1187.22  1195.06  1198.34  1200.23
eigval :     1205.84  1224.52  1233.53  1244.26  1247.14  1252.56
eigval :     1261.20  1271.46  1272.67  1277.77  1280.79  1285.18
eigval :     1286.74  1305.65  1314.87  1317.42  1319.36  1321.10
eigval :     1323.77  1357.01  1363.72  1374.68  1381.14  1388.19
eigval :     1399.97  1400.88  1403.24  1404.97  1408.39  1410.45
eigval :     1414.45  1417.70  1422.71  1428.53  1433.88  1443.46
eigval :     1449.02  1469.13  1473.65  1476.98  1477.75  1478.06
eigval :     1482.65  1483.37  1489.50  1491.21  1491.37  1493.73
eigval :     1494.88  1495.03  1501.24  1503.94  1530.96  1536.52
eigval :     1540.77  1559.11  1566.27  1567.80  1571.25  1582.60
eigval :     1587.25  1601.31  1603.07  1605.84  2990.58  2992.01
eigval :     2992.73  2994.60  3005.11  3005.47  3011.35  3011.83
eigval :     3040.08  3041.06  3042.98  3044.34  3060.82  3062.92
eigval :     3065.19  3067.23  3069.09  3069.64  3071.12  3072.16
eigval :     3074.72  3076.35  3077.90  3078.01  3079.55  3081.23
eigval :     3082.55  3084.90  3085.43  3085.53  3089.24  3091.41
eigval :     3096.81  3098.59  3439.90  3452.64  3507.67  3510.58

   temp. (K)  partition function   enthalpy   heat capacity  entropy
                                   cal/mol     cal/K/mol   cal/K/mol   J/K/mol
 298.15  VIB  0.530E+19            25283.905    157.581    156.216
         ROT  0.638E+08              888.752      2.981     38.693
         INT  0.338E+27            26172.657    160.562    194.909
         TR   0.149E+29             1481.254      4.968     45.130
         TOT                       27653.9109   165.5301   240.0393  1004.3246

       T/K    H(0)-H(T)+PV         H(T)/Eh          T*S/Eh         G(T)/Eh
   ------------------------------------------------------------------------
    298.15    0.440693E-01    0.727850E+00    0.114050E+00    0.613799E+00
   ------------------------------------------------------------------------

         :::::::::::::::::::::::::::::::::::::::::::::::::::::
         ::                  THERMODYNAMIC                  ::
         :::::::::::::::::::::::::::::::::::::::::::::::::::::
         :: total free energy        -123.084610748986 Eh   ::
         ::.................................................::
         :: total energy             -123.698409822360 Eh   ::
         :: zero point energy           0.683780201356 Eh   ::
         :: G(RRHO) w/o ZPVE           -0.069981127982 Eh   ::
         :: G(RRHO) contrib.            0.613799073374 Eh   ::
         :::::::::::::::::::::::::::::::::::::::::::::::::::::

           -------------------------------------------------
          | TOTAL ENERGY             -123.698409822360 Eh   |
          | TOTAL ENTHALPY           -122.970560308878 Eh   |
          | TOTAL FREE ENERGY        -123.084610748986 Eh   |
          | GRADIENT NORM               0.000069712476 Eh/α |
           -------------------------------------------------

 * finished run on 2025/08/24 at 23:30:55.977
