   * xtb version 6.7.1 (edcfbbe) compiled by 'albert@albert-system' on 2024-07-22

   ID    Z sym.   atoms
    1    6 C      1-22, 24-32, 34-48
    2    7 N      23, 33
    3    1 H      49-86

          program call               : xtb data2507/gas/DMTAC/DMTAC_gas_S0_crest.xyz --gfn 2 --ohess vtight --parallel 40 --molden --ceasefiles --namespace data2507/gas/DMTAC/DMTAC_gas_S0_finalOpt
          :  Hamiltonian                  GFN2-xTB          :
 * total energy  :  -123.7654156 Eh     change       -0.1553715E-08 Eh
 * total energy  :  -123.7654163 Eh     change       -0.6988059E-06 Eh
 * total energy  :  -123.7654170 Eh     change       -0.7833037E-06 Eh
 * total energy  :  -123.7654192 Eh     change       -0.2147283E-05 Eh
 * total energy  :  -123.7654199 Eh     change       -0.6606696E-06 Eh
 * total energy  :  -123.7654206 Eh     change       -0.7015340E-06 Eh
 * total energy  :  -123.7654210 Eh     change       -0.4628256E-06 Eh
 * total energy  :  -123.7654214 Eh     change       -0.3876612E-06 Eh
 * total energy  :  -123.7654217 Eh     change       -0.2814088E-06 Eh
 * total energy  :  -123.7654219 Eh     change       -0.1827921E-06 Eh
 * total energy  :  -123.7654220 Eh     change       -0.1336116E-06 Eh
 * total energy  :  -123.7654221 Eh     change       -0.1394459E-06 Eh
 * total energy  :  -123.7654223 Eh     change       -0.1086372E-06 Eh
 * total energy  :  -123.7654223 Eh     change       -0.8797251E-07 Eh
   *** GEOMETRY OPTIMIZATION CONVERGED AFTER 14 ITERATIONS ***

 final structure:
================
86
 xtb: 6.7.1 (edcfbbe)
C            4.56986273573986        4.99074488809630        0.10692638269909
C            3.70204879207997        3.76961785372644        0.07320314136217
C            3.74998884736378        2.84597993668992        1.10735417639572
C            2.95028593021476        1.71949088735558        1.10292832233098
C            2.07690023876004        1.49049673764542        0.04757179888099
C            1.19398723080786        0.30513483850081        0.03966053817203
C            1.76628701873263       -0.97900106379090        0.05695258770056
C            3.23296257990347       -1.12008657338190        0.18387662157208
C            4.07911027349121       -0.58348718444866       -0.78056766686564
C            5.44972668438559       -0.71594992027975       -0.66166078819796
C            5.99308218457304       -1.38244087377003        0.42332031556936
C            5.15788214419217       -1.91558996377918        1.39012153935276
C            3.78687263318844       -1.78597584965528        1.27177951263947
C            0.96621128908940       -2.09935324287812       -0.09453602131885
C            1.64870432661945       -3.41169484933737       -0.06828029123911
C            2.59761456819544       -3.74752017324798       -1.03010492264748
C            3.28550532289670       -4.94426661698347       -0.94668352599303
C            3.04094807051189       -5.81540223931665        0.10119417773615
C            2.09915365037003       -5.48827406717018        1.06298909851540
C            1.40661112941762       -4.29552497914704        0.98059582222449
C           -0.43897426808890       -1.96495464033215       -0.20738038533969
C           -1.30508790209948       -3.04034224119102       -0.59981834823475
N           -0.80971934840761       -4.28626017387336       -0.94312738700368
C           -2.66146267810050       -2.84354807865756       -0.64050152234208
C           -3.27639200697196       -1.65749591215824       -0.19487007307227
C           -4.70536762985604       -1.50547879117573       -0.13254988903954
C           -5.59079086753721       -2.48361876485064       -0.61918289797868
C           -6.95023556181745       -2.30846842848018       -0.59107745762716
C           -7.49503579018187       -1.13173701283684       -0.07627456872327
C           -6.66388668871610       -0.16151565638891        0.41817435450637
C           -5.26763932556091       -0.32531129838562        0.41677514930699
C           -4.39374642149717        0.65901327402640        0.97732990769370
N           -4.91499504255549        1.78516258214990        1.59902116964955
C           -3.03955179378928        0.51671365781738        0.84666648037020
C           -2.45132035594392       -0.58834186479704        0.19655124700337
C           -1.02635123615572       -0.69001740852739        0.01361425618052
C           -0.18538021281204        0.44946924660976        0.03323777138730
C           -0.72127284439973        1.82085524638136       -0.09104679140850
C           -1.51342524869333        2.15352451461427       -1.18462983811937
C           -1.93761646451006        3.45556215462383       -1.36150681157635
C           -1.58235005613439        4.45873949012637       -0.47046454840221
C           -2.04080193512708        5.86771188910141       -0.69337259154115
C           -0.78869105416761        4.13296703459912        0.63290632072476
C           -0.37223616118566        5.18650577758439        1.61389848538347
C           -0.37398513903933        2.82316965177296        0.80847256173311
C            2.03838989642909        2.40717628241447       -0.99627697779366
C            2.83041261697978        3.54314833599895       -0.99572266453926
C            2.73998275286224        4.51921263991896       -2.12899532564106
H            5.18831639214380        4.99877861307152        1.00101655195705
H            5.22205104469336        5.02404547151932       -0.76547988551159
H            3.96159209545978        5.89520295951053        0.09864866319418
H            4.42311784703491        3.01416829150059        1.93665262034621
H            2.99300001188008        1.02270651112604        1.92740396437871
H            3.65687255542272       -0.06641038764583       -1.63030357521779
H            6.09679384003982       -0.29743931057116       -1.41907801117627
H            7.06446282636422       -1.48537398757886        0.51563416215776
H            5.57623398886236       -2.43457575459341        2.24050142915224
H            3.13679402146457       -2.19759092135204        2.03054272542556
H            2.79092647289527       -3.06712529765166       -1.84738229777670
H            4.01922235609320       -5.19417704709722       -1.69928040186542
H            3.58455295494103       -6.74624349489283        0.16907613851174
H            1.90845092657723       -6.16464152483146        1.88349981811713
H            0.67319726618659       -4.03560000495042        1.72967444876180
H            0.11469239336636       -4.31948501630005       -1.33980238254801
H           -1.47804688539742       -4.88485900093784       -1.40309467246358
H           -3.26787932180077       -3.66551766818637       -0.98903381062239
H           -5.20285539231596       -3.39626267126700       -1.04277033974294
H           -7.60300476242018       -3.07738156607922       -0.97866167447992
H           -8.56584416712329       -0.98850266178650       -0.07270703662021
H           -7.08933038483402        0.75738961653443        0.79364865384921
H           -4.22976791554582        2.32675533525530        2.10402564821198
H           -5.77289480712824        1.65277272193332        2.11071699449590
H           -2.40626622178009        1.25960615903497        1.30320518891563
H           -1.79009204050574        1.38898109551169       -1.89589116287580
H           -2.55240888277645        3.70092176493793       -2.21618593123317
H           -2.65049850905039        5.93614725386428       -1.59076970219968
H           -1.18729615330714        6.53687293796529       -0.80237265738808
H           -2.63035418687123        6.22029422641885        0.15270964322762
H           -1.24192354902281        5.65659592691049        2.07308157651871
H            0.19961305120281        5.96739952966673        1.11341618385989
H            0.24724508334684        4.75713250391570        2.39729569845981
H            0.23050721925720        2.57171973312951        1.66877939585867
H            1.36835587894459        2.22991758041545       -1.82602390472303
H            2.45614187878736        5.50519455646669       -1.76211386091325
H            1.99787826153051        4.19577127831229       -2.85444425089322
H            3.70141190972957        4.61804647720747       -2.63285305929527

          :  Hamiltonian                  GFN2-xTB          :
         :: gradient norm              0.000047708535 Eh/a0 ::
         :: HOMO-LUMO gap              2.041288494322 eV    ::
         :: SCC energy              -126.091346897873 Eh    ::
         :: -> dispersion             -0.130598885549 Eh    ::
         :: repulsion energy           2.325924556359 Eh    ::

    * Orbital Energies and Occupations

         #    Occupation            Energy/Eh            Energy/eV
      -------------------------------------------------------------
         1        2.0000           -0.6458141             -17.5735
       ...           ...                  ...                  ...
       104        2.0000           -0.3991596             -10.8617
       105        2.0000           -0.3963834             -10.7861
       106        2.0000           -0.3929972             -10.6940
       107        2.0000           -0.3904830             -10.6256
       108        2.0000           -0.3880912             -10.5605
       109        2.0000           -0.3850959             -10.4790
       110        2.0000           -0.3809843             -10.3671
       111        2.0000           -0.3791971             -10.3185
       112        2.0000           -0.3768907             -10.2557
       113        2.0000           -0.3704985             -10.0818
       114        2.0000           -0.3648217              -9.9273
       115        2.0000           -0.3577342              -9.7344
       116        2.0000           -0.3258276              -8.8662 (HOMO)
       117                         -0.2508116              -6.8249 (LUMO)
       118                         -0.2388012              -6.4981
       119                         -0.2291349              -6.2351
       120                         -0.2194206              -5.9707
       121                         -0.2164488              -5.8899
       122                         -0.2145905              -5.8393
       123                         -0.2118305              -5.7642
       124                         -0.2089155              -5.6849
       125                         -0.2066362              -5.6229
       126                         -0.2027369              -5.5168
       127                         -0.1998935              -5.4394
       ...                                ...                  ...
       230                          0.7304541              19.8767
      -------------------------------------------------------------
                  HL-Gap            0.0750160 Eh            2.0413 eV

     #   Z          covCN         q      C6AA      α(0)
     1   6 C        3.758    -0.105    22.555     6.771
     2   6 C        2.971     0.004    27.922     8.668
     3   6 C        2.923    -0.043    29.058     8.840
     4   6 C        2.923    -0.039    28.958     8.825
     5   6 C        2.977     0.010    27.787     8.647
     6   6 C        2.984    -0.004    28.118     8.698
     7   6 C        2.986    -0.006    28.155     8.704
     8   6 C        2.978     0.016    27.644     8.624
     9   6 C        2.925    -0.031    28.783     8.798
    10   6 C        2.919    -0.030    28.757     8.794
    11   6 C        2.920    -0.033    28.810     8.802
    12   6 C        2.919    -0.031    28.761     8.795
    13   6 C        2.925    -0.032    28.804     8.801
    14   6 C        2.978    -0.007    28.200     8.711
    15   6 C        2.980     0.016    27.652     8.626
    16   6 C        2.924    -0.038    28.945     8.823
    17   6 C        2.919    -0.032    28.802     8.801
    18   6 C        2.920    -0.033    28.828     8.805
    19   6 C        2.919    -0.030    28.744     8.792
    20   6 C        2.925    -0.029    28.731     8.790
    21   6 C        2.981    -0.015    28.386     8.740
    22   6 C        2.891     0.070    26.433     8.429
    23   7 N        2.642    -0.286    27.393     7.773
    24   6 C        2.925    -0.076    29.899     8.967
    25   6 C        2.979    -0.005    28.149     8.703
    26   6 C        2.981     0.004    27.940     8.671
    27   6 C        2.921    -0.035    28.874     8.812
    28   6 C        2.917    -0.035    28.876     8.812
    29   6 C        2.916    -0.035    28.875     8.812
    30   6 C        2.921    -0.037    28.932     8.821
    31   6 C        2.987    -0.007    28.185     8.709
    32   6 C        2.893     0.066    26.520     8.443
    33   7 N        2.641    -0.285    27.351     7.767
    34   6 C        2.923    -0.074    29.840     8.958
    35   6 C        2.981    -0.002    28.075     8.691
    36   6 C        2.982    -0.003    28.099     8.695
    37   6 C        2.979    -0.003    28.089     8.694
    38   6 C        2.978     0.014    27.695     8.632
    39   6 C        2.924    -0.037    28.912     8.818
    40   6 C        2.923    -0.041    29.022     8.834
    41   6 C        2.970     0.004    27.929     8.669
    42   6 C        3.758    -0.105    22.559     6.772
    43   6 C        2.969     0.004    27.920     8.667
    44   6 C        3.758    -0.104    22.538     6.768
    45   6 C        2.929    -0.045    29.127     8.851
    46   6 C        2.930    -0.043    29.073     8.843
    47   6 C        2.970     0.006    27.881     8.661
    48   6 C        3.758    -0.104    22.542     6.769
    49   1 H        0.925     0.037     2.483     2.464
    50   1 H        0.925     0.042     2.421     2.433
    51   1 H        0.925     0.041     2.430     2.438
    52   1 H        0.925     0.025     2.664     2.552
    53   1 H        0.926     0.023     2.682     2.561
    54   1 H        0.926     0.027     2.633     2.537
    55   1 H        0.926     0.027     2.635     2.539
    56   1 H        0.926     0.027     2.636     2.539
    57   1 H        0.926     0.027     2.635     2.538
    58   1 H        0.926     0.026     2.645     2.543
    59   1 H        0.926     0.025     2.663     2.552
    60   1 H        0.926     0.026     2.638     2.540
    61   1 H        0.926     0.027     2.624     2.533
    62   1 H        0.926     0.030     2.590     2.517
    63   1 H        0.926     0.034     2.523     2.484
    64   1 H        0.860     0.164     1.310     1.793
    65   1 H        0.860     0.155     1.369     1.833
    66   1 H        0.926     0.020     2.730     2.584
    67   1 H        0.926     0.028     2.608     2.525
    68   1 H        0.926     0.023     2.684     2.562
    69   1 H        0.926     0.023     2.691     2.565
    70   1 H        0.926     0.027     2.633     2.537
    71   1 H        0.860     0.155     1.371     1.834
    72   1 H        0.860     0.158     1.347     1.818
    73   1 H        0.926     0.027     2.623     2.533
    74   1 H        0.926     0.026     2.649     2.545
    75   1 H        0.926     0.026     2.637     2.539
    76   1 H        0.925     0.038     2.475     2.460
    77   1 H        0.925     0.041     2.434     2.440
    78   1 H        0.925     0.041     2.431     2.438
    79   1 H        0.925     0.041     2.442     2.444
    80   1 H        0.925     0.041     2.434     2.440
    81   1 H        0.925     0.037     2.486     2.466
    82   1 H        0.926     0.024     2.668     2.554
    83   1 H        0.926     0.025     2.657     2.549
    84   1 H        0.925     0.041     2.433     2.439
    85   1 H        0.925     0.038     2.472     2.459
    86   1 H        0.925     0.042     2.420     2.433

molecular dipole:
                 x           y           z       tot (Debye)
 q only:        0.029       0.517       0.081
   full:        0.135       0.528       0.077       1.400

 projected vibrational frequencies (cm⁻¹)
eigval :       -0.00    -0.00    -0.00     0.00     0.00     0.00
eigval :       15.05    19.59    22.71    26.38    28.49    35.39
eigval :       44.41    46.89    51.89    54.56    60.13    71.65
eigval :       78.44    86.25   112.23   113.29   114.01   117.71
eigval :      130.11   132.81   150.95   165.68   168.56   171.09
eigval :      173.15   191.74   193.05   206.70   208.66   212.74
eigval :      220.99   231.29   237.96   249.94   268.91   284.68
eigval :      290.19   301.65   301.92   312.59   346.61   350.48
eigval :      369.50   371.31   373.06   375.52   387.44   395.48
eigval :      396.25   404.39   412.90   414.91   419.80   427.11
eigval :      457.54   476.68   482.59   488.37   495.04   508.17
eigval :      512.89   518.13   523.73   537.30   548.46   556.35
eigval :      568.86   571.55   574.03   586.79   591.06   595.28
eigval :      602.08   614.10   617.78   625.60   648.51   653.91
eigval :      660.37   666.12   669.04   677.67   688.55   697.24
eigval :      717.31   721.89   728.16   736.14   760.54   762.43
eigval :      769.87   774.71   785.62   786.66   790.86   814.11
eigval :      824.12   826.16   841.43   857.53   862.75   865.09
eigval :      877.29   878.69   887.84   890.23   893.00   900.02
eigval :      902.11   906.61   916.81   918.04   921.68   927.99
eigval :      929.01   930.97   930.98   945.84   967.84   988.90
eigval :      994.92  1009.11  1011.09  1014.25  1016.50  1022.80
eigval :     1024.43  1034.60  1034.78  1039.23  1048.89  1069.59
eigval :     1083.75  1084.55  1096.00  1105.62  1111.85  1119.24
eigval :     1122.08  1134.02  1138.13  1155.99  1180.98  1182.41
eigval :     1182.71  1188.53  1190.06  1197.01  1199.82  1202.16
eigval :     1209.79  1226.94  1236.48  1249.26  1252.13  1269.60
eigval :     1271.42  1271.68  1280.09  1281.45  1283.91  1289.76
eigval :     1307.44  1313.52  1316.25  1317.66  1319.23  1323.73
eigval :     1331.77  1371.82  1384.25  1389.07  1397.25  1397.76
eigval :     1402.14  1402.22  1409.10  1410.58  1411.45  1423.53
eigval :     1426.30  1431.17  1431.65  1435.68  1472.07  1474.69
eigval :     1476.99  1477.88  1482.91  1483.43  1486.74  1489.32
eigval :     1491.40  1491.48  1494.30  1495.48  1496.94  1502.67
eigval :     1503.43  1505.18  1521.44  1534.09  1544.13  1571.98
eigval :     1575.81  1579.19  1580.75  1584.78  1593.46  1599.50
eigval :     1603.24  1604.06  1608.56  1611.08  2993.18  2994.38
eigval :     2995.17  2996.12  3006.85  3007.42  3012.78  3013.39
eigval :     3042.35  3042.89  3044.00  3044.74  3064.52  3066.93
eigval :     3068.52  3068.60  3070.46  3070.87  3072.24  3073.33
eigval :     3073.55  3075.87  3078.97  3080.63  3083.40  3083.58
eigval :     3083.81  3084.06  3086.78  3087.53  3090.05  3092.49
eigval :     3103.93  3116.05  3444.25  3451.10  3493.02  3505.95

   temp. (K)  partition function   enthalpy   heat capacity  entropy
                                   cal/mol     cal/K/mol   cal/K/mol   J/K/mol
 298.15  VIB  0.547E+19            25021.122    155.660    154.908
         ROT  0.637E+08              888.752      2.981     38.690
         INT  0.348E+27            25909.875    158.641    193.598
         TR   0.149E+29             1481.254      4.968     45.130
         TOT                       27391.1286   163.6095   238.7284   998.8397

       T/K    H(0)-H(T)+PV         H(T)/Eh          T*S/Eh         G(T)/Eh
   ------------------------------------------------------------------------
    298.15    0.436505E-01    0.731143E+00    0.113428E+00    0.617715E+00
   ------------------------------------------------------------------------

         :::::::::::::::::::::::::::::::::::::::::::::::::::::
         ::                  THERMODYNAMIC                  ::
         :::::::::::::::::::::::::::::::::::::::::::::::::::::
         :: total free energy        -123.147707208245 Eh   ::
         ::.................................................::
         :: total energy             -123.765422341510 Eh   ::
         :: zero point energy           0.687492169293 Eh   ::
         :: G(RRHO) w/o ZPVE           -0.069777036028 Eh   ::
         :: G(RRHO) contrib.            0.617715133264 Eh   ::
         :::::::::::::::::::::::::::::::::::::::::::::::::::::

           -------------------------------------------------
          | TOTAL ENERGY             -123.765422341510 Eh   |
          | TOTAL ENTHALPY           -123.034279630303 Eh   |
          | TOTAL FREE ENERGY        -123.147707208245 Eh   |
          | GRADIENT NORM               0.000047726164 Eh/α |
          | HOMO-LUMO GAP               2.041289664139 eV   |
           -------------------------------------------------

 * finished run on 2025/08/24 at 23:26:26.106
