   * xtb version 6.7.1 (edcfbbe) compiled by 'albert@albert-system' on 2024-07-22

   ID    Z sym.   atoms
    1    6 C      1-81
    2    1 H      82-129

          program call               : xtb data2507/gas/TSBFB/TSBFB_gas_S0_crest.xyz --gfn 2 --ohess vtight --parallel 40 --molden --ceasefiles --namespace data2507/gas/TSBFB/TSBFB_gas_S0_finalOpt
          :  Hamiltonian                  GFN2-xTB          :
 * total energy  :  -198.0266097 Eh     change       -0.3407422E-08 Eh
 * total energy  :  -198.0266123 Eh     change       -0.2605996E-05 Eh
 * total energy  :  -198.0266168 Eh     change       -0.4516130E-05 Eh
 * total energy  :  -198.0266207 Eh     change       -0.3911042E-05 Eh
 * total energy  :  -198.0266228 Eh     change       -0.2105405E-05 Eh
 * total energy  :  -198.0266263 Eh     change       -0.3418614E-05 Eh
 * total energy  :  -198.0266322 Eh     change       -0.5916603E-05 Eh
 * total energy  :  -198.0266377 Eh     change       -0.5558044E-05 Eh
 * total energy  :  -198.0266412 Eh     change       -0.3452633E-05 Eh
 * total energy  :  -198.0266443 Eh     change       -0.3107230E-05 Eh
 * total energy  :  -198.0267555 Eh     change       -0.7303028E-06 Eh
 * total energy  :  -198.0267562 Eh     change       -0.6374800E-06 Eh
 * total energy  :  -198.0267568 Eh     change       -0.6316280E-06 Eh
 * total energy  :  -198.0267576 Eh     change       -0.7403191E-06 Eh
 * total energy  :  -198.0267584 Eh     change       -0.8569945E-06 Eh
 * total energy  :  -198.0267593 Eh     change       -0.9007207E-06 Eh
 * total energy  :  -198.0267602 Eh     change       -0.8781544E-06 Eh
 * total energy  :  -198.0267610 Eh     change       -0.8270745E-06 Eh
 * total energy  :  -198.0267610 Eh     change       -0.6439109E-08 Eh
   *** GEOMETRY OPTIMIZATION CONVERGED AFTER 68 ITERATIONS ***

 final structure:
================
129
 xtb: 6.7.1 (edcfbbe)
C            4.26500228542322        4.53302502173368        4.44742946817203
C            3.65649312514694        5.40607453310710        3.55825834129285
C            3.75459553113635        5.20806359709478        2.18743758569383
C            4.46959421207155        4.12256392944481        1.73176245426445
C            5.08583444688501        3.23519826829147        2.62589346066998
C            4.98454129220295        3.43986720379507        3.99199769142085
C            5.75855975608609        2.19971592484837        1.85743951250756
C            6.50301143210040        1.10237848220402        2.25726671726311
C            7.03188111003389        0.26978859952180        1.28438047491432
C            6.81765447324658        0.52079999094391       -0.06226949983648
C            6.07529509829806        1.62054509354779       -0.47069200986531
C            5.55438948152961        2.45483780206861        0.49370110131234
C            4.73037538805093        3.70509528487189        0.30454407361248
C            5.43386666012403        4.77405585560300       -0.49757295840475
C            6.64627149842873        5.37510071027918       -0.24163112151063
C            7.09991924423104        6.34861901011217       -1.12177447212937
C            6.34978736638022        6.70822515642896       -2.23142015275901
C            5.12964794838999        6.10547043984826       -2.49172730257897
C            4.67095491469184        5.13267810859907       -1.61866203896021
C            3.45904907280479        4.33142319318292       -1.62547744287469
C            2.39213718223772        4.28582838262636       -2.50790450848027
C            1.36517991284426        3.39169137903182       -2.26496403915798
C            1.38317076497372        2.54041720908840       -1.15937342050458
C            0.29190543557398        1.57841625212086       -0.94814327145184
C           -1.03007726494132        1.93881210679360       -1.18725182539827
C           -2.06393516738870        1.02674940194523       -1.00302790115410
C           -3.45866358972403        1.41044114422592       -1.26333069782112
C           -3.77969445171001        2.20515435280727       -2.36443696915853
C           -5.08579894033690        2.56699682107279       -2.64085903832982
C           -6.09281668285968        2.12629903572567       -1.79771542932272
C           -5.77529422402391        1.33085547026082       -0.68707137739690
C           -4.47725440418822        0.97111048497649       -0.41414056837380
C           -7.02370278310886        0.96455385479536        0.07836726406243
C           -6.99897354443922        1.39942876550424        1.52348996163546
C           -6.84383639692831        2.67060871976028        2.03077963591724
C           -6.85852979842542        2.83811011351775        3.40908848793974
C           -7.02574901377752        1.75203305121644        4.25504305040960
C           -7.18089805580106        0.47184206332627        3.74784139284371
C           -7.16675989448976        0.29692277797688        2.37392445350342
C           -7.30251640423136       -0.89887524350661        1.55707108673417
C           -7.48028740656407       -2.22806003964761        1.90391555689724
C           -7.57455064120669       -3.17067956309562        0.89248665278158
C           -7.49341603796145       -2.79619857328376       -0.44036517815073
C           -7.31599248625029       -1.46566063039097       -0.79573799448294
C           -7.22238208943309       -0.52630706183093        0.20743521287000
C           -8.09580808444146        1.64948188023971       -0.73437099940107
C           -9.45517791020171        1.66638074080966       -0.51404046886424
C          -10.25936669509718        2.37144219465595       -1.39975446261320
C           -9.70738618766593        3.04286542614729       -2.48038287470561
C           -8.34025655238149        3.02757297727775       -2.70517912996430
C           -7.53157852862648        2.32616398416589       -1.82602632271210
C           -1.76073654536896       -0.26062963885970       -0.57195555033436
C           -0.44620135639688       -0.64084644387831       -0.32285014090145
C           -0.13347461735467       -1.99968947190096        0.14241933969514
C           -0.95646636383883       -2.62943973374473        1.07719302503057
C           -0.67457056331103       -3.89731272166943        1.55266770772159
C            0.45317476277890       -4.55036929006307        1.08291417956119
C            1.27963854673957       -3.92545943392007        0.13727133685489
C            0.99917697251125       -2.66488880115301       -0.33363118076395
C            2.44267078047656       -4.81669411556832       -0.22272431397407
C            3.78986870207014       -4.18255041878513        0.02458443259052
C            4.28380415993581       -3.65508994551234        1.19729772348728
C            5.56899293088795       -3.13012869219657        1.19608284491617
C            6.33819752938905       -3.13934687929555        0.04255144327693
C            5.84146098473248       -3.66113269688918       -1.14084576182777
C            4.55869097310566       -4.18332594963046       -1.14819400612189
C            3.77395886259451       -4.78750063942416       -2.21331947054332
C            4.06931970996226       -5.02268220508653       -3.54592502193624
C            3.10843979361290       -5.62531450699154       -4.34197735931896
C            1.87527651614620       -5.98630218226716       -3.82034412148303
C            1.57241477851067       -5.75487876676717       -2.48515441603402
C            2.52572240627638       -5.15641871277047       -1.69125584668602
C            2.18390475124121       -6.02671409894828        0.64364380762910
C            2.92951339714312       -7.18019726485258        0.74476859446036
C            2.49505339260208       -8.17374317144855        1.61213749638087
C            1.33766563903158       -8.00913984675971        2.35825755228200
C            0.58521106540689       -6.85000138837664        2.25860253540488
C            1.01266055035804       -5.85409907570528        1.39576554272183
C            0.57235884405376        0.28686378433038       -0.51474146263479
C            2.45749337006881        2.59507959950944       -0.26804092459970
C            3.47770342756392        3.48468424624411       -0.50724569729575
H            4.17634197686078        4.70863642765966        5.50978338406842
H            3.10034541708467        6.25118071649581        3.93659188659185
H            3.28229762253020        5.88891870099495        1.49409659180385
H            5.45666868137592        2.76285818107635        4.68855232755760
H            6.66960922523239        0.90052921618883        3.30516963979165
H            7.62149903728374       -0.58564476485972        1.57951627653936
H            7.23332774687593       -0.14531728855231       -0.80360594421386
H            5.91075994194637        1.81924007520205       -1.51991289233082
H            7.22969620603296        5.09494051143873        0.62352831189874
H            8.04848733113929        6.83198946917068       -0.93965540132197
H            6.72313214815852        7.46887457399918       -2.90170864640625
H            4.54918724048850        6.38861179171037       -3.35736779607391
H            2.36394454829484        4.92984955472097       -3.37447904317426
H            0.54020454182460        3.33050619531913       -2.95982034932367
H           -1.26058272146695        2.95206901252061       -1.48155364009602
H           -2.98933260182050        2.52437165126594       -3.02814603867097
H           -5.31430375293434        3.17694191737594       -3.50240364235862
H           -4.24498563863262        0.37233387390781        0.45461263291377
H           -6.71448776667377        3.51642780438536        1.37110935219525
H           -6.73883600115068        3.82667610839928        3.82748552017161
H           -7.03514230719993        1.90726081966736        5.32420551966844
H           -7.31098422097630       -0.37079139814384        4.41080755252919
H           -7.54378516964565       -2.52476528724111        2.94046617051640
H           -7.71292697982698       -4.21213206565074        1.14463243862066
H           -7.56879385564534       -3.54872806784204       -1.21155095259007
H           -7.25222474456748       -1.17307522220344       -1.83388242087499
H           -9.88473269734116        1.14338402062943        0.32816695592617
H          -11.32797592641557        2.39739696861066       -1.24489739922793
H          -10.35329047778081        3.58506853889577       -3.15572482227186
H           -7.91477744288188        3.55181916537674       -3.54812517130982
H           -2.55422814461952       -0.98609320667201       -0.46852017500824
H           -1.82061314068907       -2.10244196200675        1.45493741293750
H           -1.32005390675929       -4.36404232330551        2.28201047116954
H            1.63608442165748       -2.20160229503818       -1.07321229708237
H            3.68494696443578       -3.65229637509730        2.09660868882635
H            5.97333389698521       -2.71176744378769        2.10581637593339
H            7.34006603264184       -2.73650451050994        0.06710439068398
H            6.44319084005584       -3.66251227015157       -2.03780769005853
H            5.02823210305636       -4.74337915152903       -3.95691456418047
H            3.32195638152912       -5.81711489381979       -5.38357329756922
H            1.14167127444918       -6.45423963872125       -4.46027815200853
H            0.61243136351459       -6.03723726251930       -2.07770155665728
H            3.83080812172320       -7.30797636776164        0.16277939194772
H            3.06543084128046       -9.08606517023597        1.70659671388637
H            1.01941853657497       -8.79635158949180        3.02631534232869
H           -0.31542006755724       -6.72601711590220        2.84160742769254
H            1.59643758865254        0.00044426850759       -0.32518385181910
H            2.47778966855167        1.95795624965174        0.60429476879991

          :  Hamiltonian                  GFN2-xTB          :
         :: gradient norm              0.000057795309 Eh/a0 ::
         :: HOMO-LUMO gap              3.014899140718 eV    ::
         :: SCC energy              -201.926188759430 Eh    ::
         :: -> dispersion             -0.199401756106 Eh    ::
         :: repulsion energy           3.899427734866 Eh    ::

    * Orbital Energies and Occupations

         #    Occupation            Energy/Eh            Energy/eV
      -------------------------------------------------------------
         1        2.0000           -0.6615266             -18.0011
       ...           ...                  ...                  ...
       174        2.0000           -0.3974342             -10.8147
       175        2.0000           -0.3940650             -10.7231
       176        2.0000           -0.3938237             -10.7165
       177        2.0000           -0.3935440             -10.7089
       178        2.0000           -0.3934123             -10.7053
       179        2.0000           -0.3927760             -10.6880
       180        2.0000           -0.3925079             -10.6807
       181        2.0000           -0.3808861             -10.3644
       182        2.0000           -0.3794793             -10.3262
       183        2.0000           -0.3794027             -10.3241
       184        2.0000           -0.3750647             -10.2060
       185        2.0000           -0.3707674             -10.0891
       186        2.0000           -0.3702871             -10.0760 (HOMO)
       187                         -0.2594916              -7.0611 (LUMO)
       188                         -0.2589343              -7.0460
       189                         -0.2524144              -6.8685
       190                         -0.2512495              -6.8368
       191                         -0.2506284              -6.8199
       192                         -0.2504180              -6.8142
       193                         -0.2246910              -6.1142
       194                         -0.2244871              -6.1086
       195                         -0.2243058              -6.1037
       196                         -0.2241921              -6.1006
       197                         -0.2240480              -6.0967
       ...                                ...                  ...
       372                          0.7371583              20.0591
      -------------------------------------------------------------
                  HL-Gap            0.1107955 Eh            3.0149 eV

     #   Z          covCN         q      C6AA      α(0)
     1   6 C        2.921    -0.032    28.809     8.802
     2   6 C        2.923    -0.031    28.784     8.798
     3   6 C        2.914    -0.032    28.809     8.802
     4   6 C        3.057     0.007    27.816     8.649
     5   6 C        3.036     0.001    27.967     8.674
     6   6 C        2.915    -0.034    28.839     8.806
     7   6 C        3.037     0.001    27.970     8.675
     8   6 C        2.915    -0.034    28.842     8.806
     9   6 C        2.921    -0.031    28.785     8.798
    10   6 C        2.923    -0.031    28.771     8.796
    11   6 C        2.914    -0.033    28.813     8.802
    12   6 C        3.057     0.006    27.823     8.650
    13   6 C        3.979     0.009    20.349     6.409
    14   6 C        3.058     0.007    27.816     8.649
    15   6 C        2.914    -0.033    28.812     8.802
    16   6 C        2.923    -0.032    28.789     8.799
    17   6 C        2.921    -0.033    28.810     8.802
    18   6 C        2.915    -0.034    28.845     8.807
    19   6 C        3.036     0.001    27.959     8.673
    20   6 C        3.037    -0.001    28.020     8.682
    21   6 C        2.913    -0.035    28.866     8.810
    22   6 C        2.926    -0.037    28.927     8.820
    23   6 C        2.980     0.008    27.835     8.654
    24   6 C        2.974     0.009    27.808     8.650
    25   6 C        2.930    -0.042    29.031     8.836
    26   6 C        2.974     0.009    27.813     8.651
    27   6 C        2.980     0.008    27.833     8.654
    28   6 C        2.926    -0.037    28.925     8.820
    29   6 C        2.913    -0.035    28.863     8.810
    30   6 C        3.037    -0.001    28.020     8.682
    31   6 C        3.055     0.006    27.836     8.653
    32   6 C        2.919    -0.037    28.928     8.820
    33   6 C        3.979     0.009    20.348     6.409
    34   6 C        3.056     0.007    27.818     8.650
    35   6 C        2.914    -0.032    28.808     8.801
    36   6 C        2.923    -0.031    28.782     8.798
    37   6 C        2.921    -0.032    28.808     8.802
    38   6 C        2.915    -0.034    28.841     8.806
    39   6 C        3.037     0.001    27.971     8.675
    40   6 C        3.036     0.001    27.969     8.674
    41   6 C        2.915    -0.034    28.843     8.807
    42   6 C        2.921    -0.032    28.810     8.802
    43   6 C        2.923    -0.031    28.786     8.798
    44   6 C        2.914    -0.033    28.811     8.802
    45   6 C        3.057     0.007    27.819     8.650
    46   6 C        3.057     0.006    27.821     8.650
    47   6 C        2.914    -0.033    28.812     8.802
    48   6 C        2.923    -0.032    28.788     8.799
    49   6 C        2.921    -0.032    28.808     8.802
    50   6 C        2.915    -0.034    28.845     8.807
    51   6 C        3.037     0.001    27.959     8.673
    52   6 C        2.931    -0.041    29.018     8.834
    53   6 C        2.974     0.009    27.805     8.650
    54   6 C        2.980     0.008    27.836     8.654
    55   6 C        2.926    -0.037    28.919     8.819
    56   6 C        2.913    -0.035    28.862     8.809
    57   6 C        3.037    -0.001    28.019     8.682
    58   6 C        3.054     0.006    27.841     8.653
    59   6 C        2.919    -0.037    28.930     8.820
    60   6 C        3.979     0.009    20.349     6.409
    61   6 C        3.057     0.006    27.821     8.650
    62   6 C        2.914    -0.033    28.813     8.802
    63   6 C        2.923    -0.031    28.769     8.796
    64   6 C        2.921    -0.031    28.785     8.798
    65   6 C        2.915    -0.034    28.842     8.807
    66   6 C        3.037     0.001    27.970     8.675
    67   6 C        3.037     0.001    27.967     8.674
    68   6 C        2.915    -0.034    28.839     8.806
    69   6 C        2.921    -0.032    28.810     8.802
    70   6 C        2.923    -0.031    28.784     8.798
    71   6 C        2.914    -0.032    28.809     8.801
    72   6 C        3.057     0.007    27.816     8.649
    73   6 C        3.058     0.007    27.815     8.649
    74   6 C        2.914    -0.033    28.813     8.802
    75   6 C        2.923    -0.032    28.791     8.799
    76   6 C        2.921    -0.033    28.810     8.802
    77   6 C        2.915    -0.034    28.845     8.807
    78   6 C        3.036     0.002    27.958     8.673
    79   6 C        2.931    -0.040    29.003     8.832
    80   6 C        2.919    -0.037    28.929     8.820
    81   6 C        3.054     0.006    27.837     8.653
    82   1 H        0.926     0.030     2.581     2.512
    83   1 H        0.926     0.031     2.577     2.510
    84   1 H        0.926     0.028     2.617     2.530
    85   1 H        0.926     0.031     2.571     2.507
    86   1 H        0.926     0.031     2.578     2.511
    87   1 H        0.926     0.030     2.582     2.513
    88   1 H        0.926     0.031     2.576     2.510
    89   1 H        0.926     0.027     2.623     2.533
    90   1 H        0.926     0.028     2.619     2.531
    91   1 H        0.926     0.031     2.578     2.511
    92   1 H        0.926     0.030     2.582     2.513
    93   1 H        0.926     0.031     2.570     2.507
    94   1 H        0.926     0.031     2.566     2.505
    95   1 H        0.926     0.032     2.560     2.502
    96   1 H        0.926     0.034     2.534     2.489
    97   1 H        0.926     0.032     2.559     2.502
    98   1 H        0.926     0.031     2.565     2.505
    99   1 H        0.926     0.029     2.600     2.521
   100   1 H        0.926     0.028     2.616     2.529
   101   1 H        0.926     0.031     2.576     2.510
   102   1 H        0.926     0.030     2.581     2.512
   103   1 H        0.926     0.031     2.570     2.507
   104   1 H        0.926     0.031     2.571     2.508
   105   1 H        0.926     0.030     2.582     2.513
   106   1 H        0.926     0.031     2.577     2.510
   107   1 H        0.926     0.028     2.618     2.530
   108   1 H        0.926     0.028     2.618     2.530
   109   1 H        0.926     0.031     2.578     2.511
   110   1 H        0.926     0.030     2.582     2.513
   111   1 H        0.926     0.031     2.571     2.507
   112   1 H        0.926     0.034     2.537     2.491
   113   1 H        0.926     0.032     2.558     2.501
   114   1 H        0.926     0.032     2.565     2.504
   115   1 H        0.926     0.030     2.587     2.515
   116   1 H        0.926     0.027     2.622     2.532
   117   1 H        0.926     0.031     2.578     2.511
   118   1 H        0.926     0.030     2.583     2.513
   119   1 H        0.926     0.031     2.579     2.511
   120   1 H        0.926     0.031     2.571     2.507
   121   1 H        0.926     0.030     2.581     2.512
   122   1 H        0.926     0.031     2.577     2.510
   123   1 H        0.926     0.028     2.616     2.529
   124   1 H        0.926     0.028     2.619     2.531
   125   1 H        0.926     0.031     2.578     2.511
   126   1 H        0.926     0.030     2.582     2.513
   127   1 H        0.926     0.031     2.570     2.507
   128   1 H        0.926     0.033     2.540     2.492
   129   1 H        0.926     0.030     2.588     2.516

molecular dipole:
                 x           y           z       tot (Debye)
 q only:        0.013      -0.001       0.002
   full:        0.004      -0.004       0.006       0.021

 projected vibrational frequencies (cm⁻¹)
eigval :       -0.00    -0.00    -0.00     0.00     0.00     0.00
eigval :        6.63     6.88     8.80    13.66    18.04    21.09
eigval :       22.78    23.31    26.00    31.20    37.61    43.25
eigval :       44.57    45.80    47.22    50.87    58.36    63.20
eigval :       71.17    78.52    81.28    91.08    97.00   112.23
eigval :      122.14   123.92   128.30   129.39   132.35   136.31
eigval :      141.21   147.78   155.80   158.03   180.81   194.62
eigval :      205.02   212.11   219.58   226.11   227.90   233.18
eigval :      233.56   235.07   239.28   256.71   258.85   273.73
eigval :      281.84   283.51   284.24   305.59   312.75   325.74
eigval :      337.96   339.27   346.03   353.81   380.49   386.77
eigval :      387.19   387.47   392.18   403.38   406.48   414.28
eigval :      414.40   414.67   415.20   415.76   416.17   438.68
eigval :      451.58   451.89   455.20   458.73   460.03   462.51
eigval :      471.82   472.15   475.18   479.71   484.00   499.81
eigval :      504.36   504.92   506.53   512.52   513.87   520.35
eigval :      538.60   538.66   539.76   551.01   565.66   575.76
eigval :      585.59   587.63   588.80   589.47   591.42   596.13
eigval :      596.75   604.28   604.71   604.93   618.71   620.72
eigval :      635.68   638.40   642.32   652.05   652.84   678.25
eigval :      685.57   685.77   688.56   688.71   688.82   689.17
eigval :      700.81   701.31   706.52   707.61   708.34   712.34
eigval :      735.61   735.96   739.69   739.88   739.91   754.26
eigval :      754.28   754.79   765.44   766.22   768.18   774.79
eigval :      775.84   776.18   776.30   784.06   786.07   786.91
eigval :      816.26   828.07   830.58   841.08   843.96   850.80
eigval :      877.44   878.34   878.65   878.71   878.76   878.87
eigval :      879.08   879.80   880.03   880.59   883.17   885.49
eigval :      895.50   898.11   900.35   900.98   903.26   904.84
eigval :      907.84   910.04   910.10   910.33   910.68   911.29
eigval :      911.62   911.77   915.03   915.35   917.23   918.27
eigval :      924.51   927.11   927.14   927.36   927.42   927.47
eigval :      927.49   927.60   927.81   930.09   930.28   939.64
eigval :      976.21   977.45   988.01  1008.97  1009.00  1009.19
eigval :     1010.37  1012.68  1013.10  1073.80  1073.91  1074.01
eigval :     1074.16  1074.48  1074.59  1077.38  1077.42  1077.54
eigval :     1078.94  1079.19  1079.32  1084.11  1115.60  1117.32
eigval :     1134.21  1134.62  1134.89  1143.68  1144.00  1145.20
eigval :     1156.36  1156.97  1158.08  1167.59  1171.29  1175.01
eigval :     1177.57  1177.75  1178.03  1178.31  1179.09  1179.97
eigval :     1181.62  1182.04  1183.81  1196.28  1197.92  1202.56
eigval :     1210.27  1210.38  1211.21  1222.42  1224.66  1224.93
eigval :     1225.49  1226.59  1232.25  1244.77  1245.31  1249.13
eigval :     1253.64  1260.28  1260.84  1261.44  1261.60  1262.07
eigval :     1262.64  1264.47  1265.67  1284.16  1284.96  1285.67
eigval :     1288.11  1293.02  1293.74  1320.89  1324.93  1326.63
eigval :     1327.30  1327.75  1327.86  1327.94  1346.82  1361.44
eigval :     1365.87  1366.74  1367.15  1367.58  1371.82  1408.49
eigval :     1417.32  1422.47  1426.76  1427.50  1429.06  1429.21
eigval :     1429.88  1431.75  1432.18  1432.47  1440.73  1442.41
eigval :     1448.33  1453.46  1458.69  1461.65  1462.49  1462.75
eigval :     1463.08  1472.47  1472.68  1473.07  1477.38  1481.02
eigval :     1485.03  1572.05  1572.44  1575.23  1578.39  1579.86
eigval :     1585.38  1585.76  1585.99  1593.96  1594.13  1594.34
eigval :     1596.37  1596.74  1596.80  1598.84  1599.11  1599.13
eigval :     1604.46  1604.63  1604.75  1604.76  1605.03  1605.18
eigval :     1605.49  1605.73  1606.01  3072.35  3072.60  3072.67
eigval :     3072.71  3072.73  3072.82  3073.11  3073.99  3074.36
eigval :     3075.18  3075.37  3075.50  3076.24  3076.48  3076.64
eigval :     3077.04  3077.16  3077.22  3077.24  3077.38  3077.76
eigval :     3079.15  3079.99  3080.94  3083.27  3083.42  3083.66
eigval :     3083.85  3084.09  3084.25  3084.92  3085.07  3085.14
eigval :     3085.35  3085.77  3086.23  3087.38  3088.53  3089.03
eigval :     3091.26  3091.58  3091.77  3091.99  3092.03  3092.30
eigval :     3092.77  3093.42  3094.40

   temp. (K)  partition function   enthalpy   heat capacity  entropy
                                   cal/mol     cal/K/mol   cal/K/mol   J/K/mol
 298.15  VIB  0.334E+30            36511.040    232.569    227.656
         ROT  0.388E+09              888.752      2.981     42.282
         INT  0.130E+39            37399.793    235.550    269.938
         TR   0.316E+29             1481.254      4.968     46.623
         TOT                       38881.0466   240.5180   316.5611  1324.4915

       T/K    H(0)-H(T)+PV         H(T)/Eh          T*S/Eh         G(T)/Eh
   ------------------------------------------------------------------------
    298.15    0.619609E-01    0.105451E+01    0.150408E+00    0.904101E+00
   ------------------------------------------------------------------------

         :::::::::::::::::::::::::::::::::::::::::::::::::::::
         ::                  THERMODYNAMIC                  ::
         :::::::::::::::::::::::::::::::::::::::::::::::::::::
         :: total free energy        -197.122659740525 Eh   ::
         ::.................................................::
         :: total energy             -198.026761024563 Eh   ::
         :: zero point energy           0.992548771022 Eh   ::
         :: G(RRHO) w/o ZPVE           -0.088447486984 Eh   ::
         :: G(RRHO) contrib.            0.904101284039 Eh   ::
         :::::::::::::::::::::::::::::::::::::::::::::::::::::

           -------------------------------------------------
          | TOTAL ENERGY             -198.026761024563 Eh   |
          | TOTAL ENTHALPY           -196.972251361840 Eh   |
          | TOTAL FREE ENERGY        -197.122659740525 Eh   |
          | GRADIENT NORM               0.000057795998 Eh/α |
          | HOMO-LUMO GAP               3.014899221494 eV   |
           -------------------------------------------------

 * finished run on 2025/09/10 at 09:19:44.579
