   * xtb version 6.7.1 (edcfbbe) compiled by 'albert@albert-system' on 2024-07-22

   ID    Z sym.   atoms
    1    6 C      1-81
    2    1 H      82-129

          program call               : xtb data2507/gas/TSBFB/TSBFB_gas_S0_finalOpt.xtbopt.xyz --gfn 2 --spinpol --tblite --uhf 2 --ohess vtight --parallel 40 --molden --ceasefiles --namespace data2507/gas/TSBFB/TSBFB_gas_T1_preOpt
 * total energy  :  -197.9195783 Eh     change       -0.4828271E-07 Eh
 * total energy  :  -197.9232229 Eh     change       -0.3644644E-02 Eh
 * total energy  :  -197.9247922 Eh     change       -0.1569262E-02 Eh
 * total energy  :  -197.9236189 Eh     change        0.1173286E-02 Eh
 * total energy  :  -197.9272081 Eh     change       -0.3589216E-02 Eh
 * total energy  :  -197.9282808 Eh     change       -0.1072733E-02 Eh
 * total energy  :  -197.9297682 Eh     change       -0.1487330E-02 Eh
 * total energy  :  -197.9298867 Eh     change       -0.1185588E-03 Eh
 * total energy  :  -197.9300591 Eh     change       -0.1723713E-03 Eh
 * total energy  :  -197.9301586 Eh     change       -0.9946249E-04 Eh
 * total energy  :  -197.9309685 Eh     change       -0.7996904E-06 Eh
 * total energy  :  -197.9309691 Eh     change       -0.5313595E-06 Eh
 * total energy  :  -197.9309696 Eh     change       -0.5467498E-06 Eh
 * total energy  :  -197.9309702 Eh     change       -0.5554260E-06 Eh
 * total energy  :  -197.9309707 Eh     change       -0.5538884E-06 Eh
 * total energy  :  -197.9309713 Eh     change       -0.5337918E-06 Eh
 * total energy  :  -197.9309720 Eh     change       -0.7638436E-06 Eh
 * total energy  :  -197.9309720 Eh     change        0.2718480E-08 Eh
 * total energy  :  -197.9309720 Eh     change       -0.1846882E-07 Eh
   *** GEOMETRY OPTIMIZATION CONVERGED AFTER 95 ITERATIONS ***

 final structure:
================
129
 xtb: 6.7.1 (edcfbbe)
C            4.00704308709122        4.64675292724151        4.34783378445458
C            3.42687334368778        5.46944661285446        3.39401299019308
C            3.59112805016458        5.21357338109061        2.03922117113933
C            4.34246772692876        4.12143370719881        1.66531526738108
C            4.93018030766594        3.28494239882196        2.62477947688388
C            4.76330754570827        3.54736328638993        3.97449754628213
C            5.65139527178780        2.22786999525956        1.93412823026062
C            6.39302620279004        1.16282957844909        2.41716656466685
C            6.97576201927786        0.29477006238223        1.50844742840189
C            6.81632058496782        0.47872924761469        0.14351561524097
C            6.07818048090433        1.54699925887785       -0.34808225910363
C            5.50439182379948        2.41761536862678        0.55220940991495
C            4.67748691865707        3.64721281915802        0.27036248310267
C            5.40480334734116        4.70337315055353       -0.52806930979462
C            6.60554597762936        5.31424424220849       -0.24252153566846
C            7.07982046831944        6.28116972142782       -1.11915129357792
C            6.36020141632608        6.62589795518925       -2.25350832481186
C            5.15156867051912        6.01365828872395       -2.54332190310564
C            4.67295272119685        5.04636324605392       -1.67459151535917
C            3.46704460784982        4.23740834728848       -1.70951403003692
C            2.42184090950281        4.18531914172321       -2.61766178094670
C            1.38912066976331        3.29313121974472       -2.39325562452785
C            1.38784740348604        2.44221605497900       -1.28758042331132
C            0.28668074621028        1.48868857785315       -1.08766919092771
C           -1.03916630863029        1.90056714570038       -1.27592044816381
C           -2.09455657804349        1.00281599356466       -1.06287769885028
C           -3.48419499805736        1.42577954176079       -1.28311857796518
C           -3.81183326854185        2.23791699201168       -2.37015943900273
C           -5.11601878084651        2.62505900201486       -2.61872783521557
C           -6.11530208126449        2.19471503244666       -1.76051064912624
C           -5.78998991078218        1.38729667541381       -0.66034308099348
C           -4.49428289877330        1.00145632189076       -0.41553707074561
C           -7.02962657914329        1.03730673364409        0.12670953195154
C           -6.97276085948603        1.47289855133963        1.57080711717327
C           -6.79737147568803        2.74315870165076        2.07369799969836
C           -6.78358327518247        2.91176466307746        3.45184297022740
C           -6.94265187105144        1.82761206998793        4.30182311570286
C           -7.11825113965612        0.54835660086127        3.79895242269183
C           -7.13297784701073        0.37237373585848        2.42517811615543
C           -7.29590551664161       -0.82254828914724        1.61196031547074
C           -7.47653006293059       -2.15024718647029        1.96299572822695
C           -7.59953386076988       -3.09232064712751        0.95410334191431
C           -7.54403482354790       -2.71885929596413       -0.38035405661577
C           -7.36372776706677       -1.38983343045095       -0.73990901004463
C           -7.24156680000875       -0.45103463214663        0.26071501946667
C           -8.10615339054276        1.73809466481729       -0.66596282452090
C           -9.46142541576829        1.76980943932916       -0.42364123447122
C          -10.27139163747444        2.48914426477424       -1.29254328876001
C           -9.72869476350071        3.16033831685808       -2.37810402081688
C           -8.36566517487677        3.13055517210426       -2.62489968280298
C           -7.55104165025074        2.41449191834881       -1.76282303267081
C           -1.81912224824156       -0.28688461142165       -0.65969341116915
C           -0.48927060030666       -0.74777137272624       -0.48014136523891
C           -0.20875670786553       -2.08249353547849       -0.09009871862482
C           -1.19035700420640       -2.88337322798717        0.60184670824968
C           -0.93402815731540       -4.13746303012882        1.04115174934405
C            0.33820635590977       -4.72637549206872        0.78325220253979
C            1.31076978743140       -3.95683457831196        0.03857691617658
C            1.06831393788527       -2.69178965662901       -0.35834814588649
C            2.54365110580715       -4.79787752089882       -0.19165062992307
C            3.84904732252286       -4.15483103090210        0.20112025300825
C            4.21637401172901       -3.63836087445138        1.42464318209066
C            5.49551480084434       -3.11785895628710        1.56639270400805
C            6.38560913883776       -3.12219413213502        0.50300810682441
C            6.01708401203372       -3.62902801754947       -0.73226359785504
C            4.74070670325550       -4.14499375633459       -0.88244939456054
C            4.07700104563616       -4.73664092518709       -2.03276093365590
C            4.51356339704291       -4.95446716979083       -3.32925386715365
C            3.64448035633148       -5.54793343859319       -4.23049717699983
C            2.36330709843521       -5.91703184013123       -3.84798702891865
C            1.91951787989271       -5.70359392155293       -2.55001432898145
C            2.78139086824734       -5.11371177102563       -1.65173303335474
C            2.21834108968941       -6.04833127938841        0.59211292042336
C            2.99604456141244       -7.15226087965176        0.79828883174132
C            2.47099354631993       -8.21694581474481        1.53916734415498
C            1.17179804557691       -8.15562027339737        2.05526550324984
C            0.37566641219125       -7.05549651797986        1.85939159142598
C            0.88960054416363       -5.96509835706578        1.12006790019155
C            0.55166172891572        0.18961020975256       -0.71059080574480
C            2.44151942088464        2.49984732513383       -0.37213992016577
C            3.46113071263785        3.39636706560035       -0.58624539293461
H            3.86686675956142        4.86707066590419        5.39621365283409
H            2.84093668791829        6.32044995165101        3.70881022635532
H            3.14106428619904        5.85533307420311        1.29561398259857
H            5.21323458732539        2.90964098998172        4.72102749421754
H            6.51651158948806        1.01283217527346        3.47961349046983
H            7.56400277668493       -0.53559901508867        1.86992357323189
H            7.27220885502764       -0.21551552977118       -0.54665320004888
H            5.95748350317773        1.69392242525621       -1.41169339224884
H            7.16449543177335        5.04665467246373        0.64255274884038
H            8.02004897400717        6.77168736564724       -0.91428875971181
H            6.74851783440239        7.38254983955649       -2.91982356314519
H            4.59484799679096        6.28539988752416       -3.42799362978343
H            2.41249522007905        4.82696652014529       -3.48639276567481
H            0.57528353383294        3.23196488216303       -3.10138047951271
H           -1.24924072881893        2.92579088797304       -1.53850208799799
H           -3.02879122914608        2.54782596247908       -3.04684615677243
H           -5.34979545569997        3.24546118756684       -3.47134543344538
H           -4.25595754682624        0.39305613766449        0.44491544267364
H           -6.67437659878386        3.58740045846133        1.41079233451549
H           -6.64787736767585        3.89966046974795        3.86692462982155
H           -6.92953856616803        1.98363661623578        5.37081140848665
H           -7.24195966775370       -0.29265526319092        4.46514796697942
H           -7.51981062542237       -2.44628376565689        3.00075231417763
H           -7.74036379686517       -4.13263997602559        1.20956441118389
H           -7.64162435095449       -3.47096486891241       -1.14947291453431
H           -7.31942784537824       -1.09789988709146       -1.77925555703900
H           -9.88343618446496        1.24711989567070        0.42255725216788
H          -11.33704651978699        2.52650377935216       -1.12056099008216
H          -10.37894654972550        3.71370205327655       -3.04009561699143
H           -7.94779024547158        3.65458188859363       -3.47175231194116
H           -2.63795462278765       -0.98146260075381       -0.55615733310364
H           -2.14695170038378       -2.43635447982072        0.82407140646312
H           -1.67720587245054       -4.69860453146160        1.58793381101906
H            1.80905280250737       -2.15023225073463       -0.92664212760011
H            3.52472699985809       -3.64176140226260        2.25466873041696
H            5.80151114289499       -2.70836454480301        2.51772060856565
H            7.38180663947909       -2.72819925089095        0.63969447884849
H            6.71213207542782       -3.62578952657928       -1.55901506638366
H            5.51009921281994       -4.66907132767504       -3.63234624628447
H            3.96815996983349       -5.72649920173566       -5.24569752403196
H            1.70344136350362       -6.37757432414136       -4.56849851122380
H            0.92246800938225       -5.99284041683473       -2.25078386270540
H            3.99799958734016       -7.20714670934281        0.39731734516285
H            3.07254710828642       -9.09610431492852        1.71112758048416
H            0.79487101080815       -8.99626485484974        2.62026751578217
H           -0.62512906746594       -7.01029207292239        2.26128172310579
H            1.57739572073746       -0.10874284484904       -0.55972981173530
H            2.44165763193027        1.86224682768291        0.50025597572111

 projected vibrational frequencies (cm⁻¹)
eigval :       -0.00     0.00     0.00     0.00     0.00     0.00
eigval :        4.04     6.59     8.28    13.36    17.88    20.02
eigval :       21.08    22.98    25.85    31.27    37.05    41.99
eigval :       43.82    46.12    47.71    51.53    57.86    63.84
eigval :       70.98    76.59    80.68    91.17    93.67   105.18
eigval :      119.63   123.06   124.79   129.49   131.22   136.87
eigval :      137.08   147.01   149.21   158.57   181.73   191.49
eigval :      193.30   204.13   215.38   219.13   224.70   225.63
eigval :      232.90   234.05   238.64   252.90   256.96   260.86
eigval :      271.52   281.12   283.59   290.10   303.76   317.22
eigval :      327.42   337.90   345.54   351.43   367.15   378.18
eigval :      386.14   386.87   387.51   395.82   406.64   407.30
eigval :      414.39   414.48   414.82   415.26   415.97   436.82
eigval :      441.15   448.03   451.32   453.26   454.22   457.45
eigval :      461.09   462.53   471.31   475.04   480.94   496.08
eigval :      501.70   503.31   504.83   507.24   510.95   518.00
eigval :      526.11   538.52   538.83   539.55   550.81   568.72
eigval :      569.15   577.58   583.63   586.51   588.98   591.77
eigval :      593.93   597.57   603.80   604.55   605.59   612.63
eigval :      626.99   632.22   637.23   641.02   646.17   647.20
eigval :      663.10   681.28   684.11   685.40   687.93   688.34
eigval :      689.07   694.08   701.42   706.18   707.65   708.57
eigval :      725.07   729.39   735.13   737.45   739.45   739.74
eigval :      753.56   754.54   755.19   761.24   764.74   767.68
eigval :      771.66   774.47   775.46   782.12   783.28   786.09
eigval :      786.16   788.53   823.46   827.25   831.96   836.47
eigval :      839.04   842.53   845.99   850.76   877.15   877.75
eigval :      877.92   878.03   878.48   878.84   879.20   880.08
eigval :      885.13   886.04   887.27   894.93   900.02   900.20
eigval :      900.45   902.31   903.45   907.25   909.31   909.73
eigval :      910.34   910.48   910.78   910.89   911.16   913.74
eigval :      914.86   916.52   924.47   925.17   926.07   926.69
eigval :      926.76   926.78   927.17   927.19   927.94   929.89
eigval :      940.38   965.30   977.01   986.33  1007.54  1008.96
eigval :     1009.09  1009.73  1012.91  1036.26  1050.95  1063.48
eigval :     1073.95  1074.11  1074.40  1075.65  1075.98  1077.39
eigval :     1077.80  1079.39  1079.47  1080.24  1100.29  1113.95
eigval :     1121.92  1134.38  1134.98  1136.96  1143.65  1143.71
eigval :     1145.11  1154.16  1155.56  1156.23  1163.10  1166.27
eigval :     1173.62  1176.53  1177.06  1177.34  1177.69  1177.79
eigval :     1178.39  1180.83  1181.32  1182.30  1194.16  1198.98
eigval :     1200.42  1208.07  1209.93  1210.19  1219.96  1222.39
eigval :     1224.76  1225.24  1230.40  1241.15  1243.72  1246.12
eigval :     1248.11  1251.29  1258.58  1259.42  1260.78  1261.32
eigval :     1261.57  1263.26  1264.50  1276.10  1284.17  1284.65
eigval :     1286.88  1288.53  1294.92  1298.17  1324.32  1327.06
eigval :     1327.33  1328.05  1328.49  1329.94  1334.94  1340.51
eigval :     1348.38  1352.37  1365.43  1366.28  1366.79  1367.13
eigval :     1373.48  1374.53  1396.30  1414.72  1421.92  1423.03
eigval :     1427.34  1427.74  1427.92  1428.88  1432.15  1432.26
eigval :     1434.95  1435.26  1449.75  1454.69  1461.66  1461.99
eigval :     1462.03  1468.12  1469.75  1470.70  1471.99  1472.41
eigval :     1479.69  1497.17  1504.33  1530.86  1561.40  1563.41
eigval :     1572.93  1574.04  1584.31  1584.94  1585.56  1592.60
eigval :     1592.77  1593.78  1594.90  1595.31  1596.20  1596.69
eigval :     1601.53  1603.07  1603.50  1604.04  1604.24  1604.33
eigval :     1604.62  1604.96  1632.07  3071.87  3072.48  3072.55
eigval :     3072.58  3072.61  3072.64  3073.37  3074.16  3074.39
eigval :     3074.59  3075.14  3075.43  3076.18  3076.49  3076.62
eigval :     3077.03  3077.08  3077.17  3077.36  3077.74  3078.05
eigval :     3079.22  3079.74  3083.38  3083.46  3083.58  3083.67
eigval :     3083.97  3085.20  3085.84  3085.99  3086.56  3087.07
eigval :     3087.22  3088.66  3091.01  3091.15  3091.49  3091.91
eigval :     3091.98  3092.39  3093.24  3093.61  3094.84  3095.57
eigval :     3097.39  3098.94  3101.26

   temp. (K)  partition function   enthalpy   heat capacity  entropy
                                   cal/mol     cal/K/mol   cal/K/mol   J/K/mol
 298.15  VIB  0.141E+31            36930.230    234.800    231.007
         ROT  0.388E+09              888.752      2.981     42.282
         INT  0.547E+39            37818.982    237.781    273.289
         TR   0.316E+29             1481.254      4.968     46.623
         TOT                       39300.2361   242.7491   319.9124  1338.5133

       T/K    H(0)-H(T)+PV         H(T)/Eh          T*S/Eh         G(T)/Eh
   ------------------------------------------------------------------------
    298.15    0.626289E-01    0.105056E+01    0.152001E+00    0.898564E+00
   ------------------------------------------------------------------------

         :::::::::::::::::::::::::::::::::::::::::::::::::::::
         ::                  THERMODYNAMIC                  ::
         :::::::::::::::::::::::::::::::::::::::::::::::::::::
         :: total free energy        -197.032408229079 Eh   ::
         ::.................................................::
         :: total energy             -197.930972045145 Eh   ::
         :: zero point energy           0.987935586086 Eh   ::
         :: G(RRHO) w/o ZPVE           -0.089371770020 Eh   ::
         :: G(RRHO) contrib.            0.898563816067 Eh   ::
         :::::::::::::::::::::::::::::::::::::::::::::::::::::

           -------------------------------------------------
          | TOTAL ENERGY             -197.930972045145 Eh   |
          | TOTAL ENTHALPY           -196.880407546377 Eh   |
          | TOTAL FREE ENERGY        -197.032408229079 Eh   |
          | GRADIENT NORM               0.000072988102 Eh/α |
           -------------------------------------------------

 * finished run on 2025/09/10 at 09:20:22.452
