   * xtb version 6.7.1 (edcfbbe) compiled by 'albert@albert-system' on 2024-07-22

   ID    Z sym.   atoms
    1    6 C      1-81
    2    1 H      82-129

          program call               : xtb data2507/gas/TSBFB/TSBFB.xyz --gfn 2 --ohess vtight --parallel 40 --molden --ceasefiles --namespace data2507/gas/TSBFB/TSBFB_gas_S0_preOpt
          :  Hamiltonian                  GFN2-xTB          :
 * total energy  :  -198.0043888 Eh     change       -0.1450218E-08 Eh
 * total energy  :  -198.0177521 Eh     change       -0.1336330E-01 Eh
 * total energy  :  -198.0207827 Eh     change       -0.3030632E-02 Eh
 * total energy  :  -198.0218512 Eh     change       -0.1068497E-02 Eh
 * total energy  :  -198.0223610 Eh     change       -0.5097959E-03 Eh
 * total energy  :  -198.0224726 Eh     change       -0.1115885E-03 Eh
 * total energy  :  -198.0225436 Eh     change       -0.7102526E-04 Eh
 * total energy  :  -198.0226284 Eh     change       -0.8480771E-04 Eh
 * total energy  :  -198.0226844 Eh     change       -0.5601375E-04 Eh
 * total energy  :  -198.0227682 Eh     change       -0.8375802E-04 Eh
 * total energy  :  -198.0240315 Eh     change       -0.7690785E-06 Eh
 * total energy  :  -198.0240322 Eh     change       -0.7803777E-06 Eh
 * total energy  :  -198.0240330 Eh     change       -0.7660099E-06 Eh
 * total energy  :  -198.0240338 Eh     change       -0.7829750E-06 Eh
 * total energy  :  -198.0240346 Eh     change       -0.7899387E-06 Eh
 * total energy  :  -198.0240354 Eh     change       -0.8144201E-06 Eh
 * total energy  :  -198.0240362 Eh     change       -0.8394010E-06 Eh
 * total energy  :  -198.0240371 Eh     change       -0.8736446E-06 Eh
 * total energy  :  -198.0240371 Eh     change       -0.7189470E-08 Eh
   *** GEOMETRY OPTIMIZATION CONVERGED AFTER 122 ITERATIONS ***

 final structure:
================
129
 xtb: 6.7.1 (edcfbbe)
C            4.65299684310950        3.48068067060699       -4.29691360010572
C            5.30458107562951        2.42455164890579       -3.67789928096428
C            5.45835730215602        2.39422536990586       -2.29831027778805
C            4.94765811953754        3.43840331695411       -1.55935934929474
C            4.28615959208535        4.50827166558185       -2.17898563588207
C            4.13704144140648        4.53179049555254       -3.55585819493048
C            3.86329033168084        5.44607053555844       -1.15070245104854
C            3.17729164704374        6.64638175732549       -1.23448845465541
C            2.90537272933173        7.33806515083547       -0.06487108589499
C            3.30943981029026        6.84306975148117        1.16595274589790
C            3.99795646618391        5.64070530653882        1.25779558077274
C            4.27011888693889        4.95089793644289        0.09691677671644
C            4.99463984675523        3.63744427188234       -0.06309515398133
C            6.40235060676219        3.64620355524171        0.48255213696348
C            7.43979551524013        4.49108387584727        0.15604915468040
C            8.66368958482317        4.30854703757739        0.78612021506588
C            8.83809619168121        3.29837406823032        1.72015905570099
C            7.79664229529791        2.44612363914991        2.05015907788592
C            6.57218252370331        2.62309105670404        1.42698932206369
C            5.31305616371327        1.91136311138867        1.56575415121515
C            4.94794654372316        0.83564501146546        2.35865685429298
C            3.64735523994330        0.36944831745684        2.29066311754241
C            2.70276967273321        0.96278072518314        1.45272704055671
C            1.31894012605589        0.46604227480416        1.43031214773761
C            1.05509584196026       -0.89923117803720        1.42932207210540
C           -0.25243107358897       -1.37350336123177        1.43231227215523
C           -0.51414086874470       -2.82027456778815        1.45658706928809
C           -1.49854062894087       -3.34091560955049        2.29701153524053
C           -1.74511206960731       -4.70028044449513        2.36652654064452
C           -0.99785854858090       -5.55500876543676        1.57266079493595
C           -0.01798109500965       -5.03456698773600        0.71435629009615
C            0.23318632124658       -3.68432454450071        0.65300309121201
C            0.65271446722991       -6.14368163314877       -0.05920670411833
C            2.15276531479448       -6.17310601891248        0.09791590638335
C            2.88846637292852       -6.28189448481539        1.25742233721150
C            4.27382179295998       -6.28703360812292        1.16290130362694
C            4.90216508000922       -6.18521135705760       -0.06918422685864
C            4.16494356724920       -6.07527634874781       -1.23742620816506
C            2.78260938486050       -6.06901010832213       -1.15097064650953
C            1.75704166394645       -5.96670397406689       -2.17732158318086
C            1.84932192766598       -5.84993911205677       -3.55442627817590
C            0.67963486410177       -5.77146216975105       -4.29326212807440
C           -0.55959816426254       -5.80733037860521       -3.67184098621969
C           -0.66009718306625       -5.92470662623448       -2.29200200663781
C            0.50095432259750       -6.00426964658016       -1.55525263029697
C           -0.04270680728284       -7.36667318228256        0.48862495877293
C            0.16928632824662       -8.68781670545473        0.16249945272965
C           -0.59965029129419       -9.65590988980299        0.79476379180652
C           -1.55965862848512       -9.30107288138152        1.73058964087525
C           -1.77601159737561       -7.97277077033365        2.06022952400444
C           -1.01161068571403       -7.00139636588429        1.43486355511329
C           -1.30286625567486       -0.46236427301763        1.43287524536396
C           -1.05984677041673        0.90713077883199        1.43387199758729
C           -2.18188587343375        1.85716792974306        1.45994713957139
C           -2.13836365630049        2.97102459324223        2.29891183422084
C           -3.19216431274984        3.86428978175384        2.37018666397820
C           -4.30815336440220        3.64349059946213        1.57962608885804
C           -4.34965878165547        2.53361306983687        0.72279717010110
C           -3.30600887416730        1.64096852466722        0.65967154692357
C           -5.64768238332762        2.50625132653286       -0.04710778595214
C           -6.42270827361672        1.22207673288787        0.11398410421701
C           -6.88143853216278        0.64090838617560        1.27560185327393
C           -7.57882748351962       -0.55640386291958        1.18470622157617
C           -7.80835287853466       -1.15314539047327       -0.04591786963052
C           -7.34789383150016       -0.57124451812678       -1.21627661068003
C           -6.65105911078459        0.62287524935990       -1.13344033814103
C           -6.05262940715682        1.45850189102378       -2.16264505072798
C           -6.00160548466121        1.31833806484278       -3.53971323664653
C           -5.35093394221680        2.29108050190349       -4.28173998927064
C           -4.76060634165635        3.38306495857935       -3.66349056001549
C           -4.80804393642035        3.53065657662020       -2.28370807420376
C           -5.45534389766690        2.56593340779690       -1.54378721972116
C           -6.35764414239417        3.72068692754951        0.50111127214324
C           -7.60869204186796        4.19720910652717        0.17780813839354
C           -8.06092967788767        5.34795538206790        0.80986046368807
C           -7.27109699118617        6.00313430481268        1.74270585912770
C           -6.01166094425246        5.52681209808435        2.06950105914160
C           -5.55429303021422        4.37836504969169        1.44432591699899
C            0.25444343722976        1.36125852232516        1.43079896991341
C            3.07591801534895        2.04318661290771        0.65003868917163
C            4.37090131897803        2.50084415797962        0.70985188567877
H            4.54671591644204        3.48301009079401       -5.37209260254575
H            5.69795511083060        1.61587478971083       -4.27620545830022
H            5.96658312891921        1.57226796155199       -1.81513727289279
H            3.63022136279720        5.35179367984220       -4.04280089601608
H            2.86022983570114        7.03584940664398       -2.19062426953185
H            2.37122151650466        8.27605810015848       -0.11150433664660
H            3.08624431957586        7.39997002120095        2.06419439989127
H            4.31359369647617        5.25443089351998        2.21626151830573
H            7.30328885093404        5.27736102675249       -0.57230453685924
H            9.48994002852199        4.96127155736750        0.54559885797044
H            9.79978828591978        3.17553930807910        2.19696634877162
H            7.93706702316722        1.66118995657742        2.77857088471501
H            5.66197376942828        0.37091438059628        3.02244124995625
H            3.34504855991012       -0.45706204586570        2.91746359748888
H            1.87590286425022       -1.60156354707958        1.43029012885922
H           -2.06177639848571       -2.66533280284557        2.92449888800889
H           -2.50324955100897       -5.08569758053311        3.03218410662947
H            0.98435382150568       -3.29335698173275       -0.01818808541500
H            2.39796936396495       -6.36162774758629        2.21687372715858
H            4.86943432581470       -6.37188098948690        2.06002943465229
H            5.98147350222751       -6.19176986562633       -0.11790128633562
H            4.65892354073467       -5.99590680151321       -2.19455376733715
H            2.81193699960406       -5.82129178453115       -4.04323766626456
H            0.73272574434367       -5.68104548479217       -5.36858400388691
H           -1.45776739982930       -5.74386217044909       -4.26844423879784
H           -1.62511413960527       -5.95357333054076       -1.80695304102618
H            0.91689623848683       -8.96335404787025       -0.56724250107729
H           -0.44822896294168      -10.69800851558143        0.55457288122038
H           -2.14605408797365      -10.07208034114791        2.20910111422164
H           -2.52441827910248       -7.70129798702227        2.79003347222786
H           -2.32149763833778       -0.82204386633649        1.43662794074903
H           -1.27000103763381        3.12180450433677        2.92388954664447
H           -3.14510916728691        4.71437788606577        3.03468267922021
H           -3.34479247483012        0.79414967415508       -0.01040188891209
H           -6.70248760735062        1.10685761674235        2.23391263527268
H           -7.94753536782657       -1.02857826312495        2.08353773781230
H           -8.35382671189146       -2.08463640334939       -0.09180703466935
H           -7.52889707199534       -1.04002410174967       -2.17225376599528
H           -6.45950290013682        0.46970379729056       -4.02606186446804
H           -5.30226966045502        2.19844053195334       -5.35708203845409
H           -4.25827930170656        4.12836186688423       -4.26254949829111
H           -4.34914896699988        4.38147668848248       -1.80112776965037
H           -8.22309424166594        3.68658625763025       -0.54961131171744
H           -9.03978952997629        5.73753684603951        0.57184929166136
H           -7.64433378499427        6.89706314402698        2.22111031605457
H           -5.40038183622694        6.04015479916455        2.79699048383218
H            0.45230783596349        2.42325656923045        1.43288012480766
H            2.36054876079162        2.49912998291051       -0.01926624649210

          :  Hamiltonian                  GFN2-xTB          :
         :: gradient norm              0.000069144704 Eh/a0 ::
         :: HOMO-LUMO gap              3.055110276374 eV    ::
         :: SCC energy              -201.922780800646 Eh    ::
         :: -> dispersion             -0.195514532578 Eh    ::
         :: repulsion energy           3.898743679569 Eh    ::

    * Orbital Energies and Occupations

         #    Occupation            Energy/Eh            Energy/eV
      -------------------------------------------------------------
         1        2.0000           -0.6610852             -17.9890
       ...           ...                  ...                  ...
       174        2.0000           -0.3976492             -10.8206
       175        2.0000           -0.3936907             -10.7129
       176        2.0000           -0.3936176             -10.7109
       177        2.0000           -0.3936171             -10.7109
       178        2.0000           -0.3934985             -10.7076
       179        2.0000           -0.3927301             -10.6867
       180        2.0000           -0.3927296             -10.6867
       181        2.0000           -0.3805790             -10.3561
       182        2.0000           -0.3795314             -10.3276
       183        2.0000           -0.3795310             -10.3276
       184        2.0000           -0.3743850             -10.1875
       185        2.0000           -0.3710641             -10.0972
       186        2.0000           -0.3710630             -10.0971 (HOMO)
       187                         -0.2587897              -7.0420 (LUMO)
       188                         -0.2587851              -7.0419
       189                         -0.2512544              -6.8370
       190                         -0.2507783              -6.8240
       191                         -0.2507782              -6.8240
       192                         -0.2507778              -6.8240
       193                         -0.2244111              -6.1065
       194                         -0.2244103              -6.1065
       195                         -0.2241644              -6.0998
       196                         -0.2239650              -6.0944
       197                         -0.2239641              -6.0944
       ...                                ...                  ...
       372                          0.7378403              20.0777
      -------------------------------------------------------------
                  HL-Gap            0.1122732 Eh            3.0551 eV

     #   Z          covCN         q      C6AA      α(0)
     1   6 C        2.921    -0.032    28.808     8.802
     2   6 C        2.923    -0.031    28.782     8.798
     3   6 C        2.914    -0.032    28.809     8.802
     4   6 C        3.057     0.007    27.812     8.649
     5   6 C        3.036     0.001    27.968     8.674
     6   6 C        2.915    -0.034    28.837     8.806
     7   6 C        3.037     0.001    27.965     8.674
     8   6 C        2.915    -0.034    28.838     8.806
     9   6 C        2.921    -0.032    28.809     8.802
    10   6 C        2.923    -0.032    28.790     8.799
    11   6 C        2.914    -0.033    28.814     8.802
    12   6 C        3.056     0.006    27.823     8.650
    13   6 C        3.979     0.009    20.349     6.409
    14   6 C        3.057     0.007    27.819     8.650
    15   6 C        2.914    -0.033    28.813     8.802
    16   6 C        2.923    -0.032    28.790     8.799
    17   6 C        2.921    -0.032    28.810     8.802
    18   6 C        2.915    -0.034    28.846     8.807
    19   6 C        3.036     0.001    27.959     8.673
    20   6 C        3.037    -0.001    28.021     8.683
    21   6 C        2.913    -0.035    28.860     8.809
    22   6 C        2.926    -0.037    28.928     8.820
    23   6 C        2.980     0.008    27.833     8.654
    24   6 C        2.974     0.009    27.806     8.650
    25   6 C        2.930    -0.041    29.018     8.834
    26   6 C        2.974     0.009    27.806     8.650
    27   6 C        2.980     0.008    27.833     8.654
    28   6 C        2.926    -0.037    28.928     8.820
    29   6 C        2.913    -0.035    28.860     8.809
    30   6 C        3.037    -0.001    28.021     8.683
    31   6 C        3.054     0.006    27.837     8.653
    32   6 C        2.918    -0.038    28.933     8.821
    33   6 C        3.979     0.009    20.349     6.409
    34   6 C        3.056     0.006    27.823     8.650
    35   6 C        2.914    -0.033    28.814     8.802
    36   6 C        2.923    -0.032    28.790     8.799
    37   6 C        2.921    -0.032    28.809     8.802
    38   6 C        2.915    -0.034    28.838     8.806
    39   6 C        3.037     0.001    27.965     8.674
    40   6 C        3.036     0.001    27.968     8.674
    41   6 C        2.915    -0.034    28.837     8.806
    42   6 C        2.921    -0.032    28.808     8.802
    43   6 C        2.923    -0.031    28.782     8.798
    44   6 C        2.914    -0.032    28.809     8.802
    45   6 C        3.057     0.007    27.812     8.649
    46   6 C        3.057     0.007    27.819     8.650
    47   6 C        2.914    -0.033    28.813     8.802
    48   6 C        2.923    -0.032    28.790     8.799
    49   6 C        2.921    -0.032    28.810     8.802
    50   6 C        2.915    -0.034    28.846     8.807
    51   6 C        3.036     0.001    27.959     8.673
    52   6 C        2.930    -0.041    29.018     8.834
    53   6 C        2.974     0.009    27.806     8.650
    54   6 C        2.980     0.008    27.833     8.654
    55   6 C        2.926    -0.037    28.928     8.820
    56   6 C        2.913    -0.035    28.860     8.809
    57   6 C        3.037    -0.001    28.021     8.683
    58   6 C        3.054     0.006    27.837     8.653
    59   6 C        2.918    -0.038    28.933     8.821
    60   6 C        3.979     0.009    20.349     6.409
    61   6 C        3.056     0.006    27.823     8.650
    62   6 C        2.914    -0.033    28.814     8.802
    63   6 C        2.923    -0.032    28.790     8.799
    64   6 C        2.921    -0.032    28.809     8.802
    65   6 C        2.915    -0.034    28.838     8.806
    66   6 C        3.037     0.001    27.965     8.674
    67   6 C        3.036     0.001    27.968     8.674
    68   6 C        2.915    -0.034    28.837     8.806
    69   6 C        2.921    -0.032    28.808     8.802
    70   6 C        2.923    -0.031    28.782     8.798
    71   6 C        2.914    -0.032    28.809     8.802
    72   6 C        3.057     0.007    27.812     8.649
    73   6 C        3.057     0.007    27.819     8.650
    74   6 C        2.914    -0.033    28.813     8.802
    75   6 C        2.923    -0.032    28.790     8.799
    76   6 C        2.921    -0.032    28.810     8.802
    77   6 C        2.915    -0.034    28.846     8.807
    78   6 C        3.036     0.001    27.959     8.673
    79   6 C        2.930    -0.041    29.018     8.834
    80   6 C        2.918    -0.038    28.933     8.821
    81   6 C        3.054     0.006    27.837     8.653
    82   1 H        0.926     0.030     2.580     2.512
    83   1 H        0.926     0.031     2.576     2.510
    84   1 H        0.926     0.028     2.616     2.529
    85   1 H        0.926     0.031     2.568     2.506
    86   1 H        0.926     0.031     2.571     2.507
    87   1 H        0.926     0.030     2.583     2.513
    88   1 H        0.926     0.030     2.580     2.512
    89   1 H        0.926     0.028     2.619     2.531
    90   1 H        0.926     0.028     2.619     2.531
    91   1 H        0.926     0.031     2.579     2.511
    92   1 H        0.926     0.030     2.582     2.513
    93   1 H        0.926     0.031     2.571     2.507
    94   1 H        0.926     0.032     2.564     2.504
    95   1 H        0.926     0.033     2.549     2.497
    96   1 H        0.926     0.033     2.543     2.494
    97   1 H        0.926     0.033     2.549     2.497
    98   1 H        0.926     0.032     2.564     2.504
    99   1 H        0.926     0.030     2.588     2.516
   100   1 H        0.926     0.028     2.619     2.531
   101   1 H        0.926     0.030     2.580     2.512
   102   1 H        0.926     0.030     2.583     2.513
   103   1 H        0.926     0.031     2.571     2.507
   104   1 H        0.926     0.031     2.568     2.506
   105   1 H        0.926     0.030     2.580     2.512
   106   1 H        0.926     0.031     2.576     2.510
   107   1 H        0.926     0.028     2.616     2.529
   108   1 H        0.926     0.028     2.619     2.531
   109   1 H        0.926     0.031     2.579     2.511
   110   1 H        0.926     0.030     2.582     2.513
   111   1 H        0.926     0.031     2.571     2.507
   112   1 H        0.926     0.033     2.543     2.494
   113   1 H        0.926     0.033     2.549     2.497
   114   1 H        0.926     0.032     2.564     2.504
   115   1 H        0.926     0.030     2.588     2.516
   116   1 H        0.926     0.028     2.619     2.531
   117   1 H        0.926     0.030     2.580     2.512
   118   1 H        0.926     0.030     2.583     2.513
   119   1 H        0.926     0.031     2.571     2.507
   120   1 H        0.926     0.031     2.568     2.506
   121   1 H        0.926     0.030     2.580     2.512
   122   1 H        0.926     0.031     2.576     2.510
   123   1 H        0.926     0.028     2.616     2.529
   124   1 H        0.926     0.028     2.619     2.531
   125   1 H        0.926     0.031     2.579     2.511
   126   1 H        0.926     0.030     2.582     2.513
   127   1 H        0.926     0.031     2.571     2.507
   128   1 H        0.926     0.033     2.543     2.494
   129   1 H        0.926     0.030     2.588     2.516

molecular dipole:
                 x           y           z       tot (Debye)
 q only:       -0.000       0.000      -0.004
   full:       -0.000       0.000      -0.021       0.053

 projected vibrational frequencies (cm⁻¹)
eigval :       -0.00    -0.00    -0.00    -0.00     0.00     0.00
eigval :        6.16     6.18     6.81     9.85    10.79    10.86
eigval :       21.07    22.98    23.04    32.95    32.99    37.15
eigval :       43.43    43.46    45.82    54.55    56.02    56.03
eigval :       75.44    75.48    78.38    93.82    93.83   106.66
eigval :      124.25   124.92   124.94   128.28   134.37   134.40
eigval :      142.45   148.89   148.90   168.34   189.11   189.13
eigval :      204.05   210.44   210.45   227.69   227.69   233.31
eigval :      234.12   234.13   238.56   258.34   262.96   262.98
eigval :      281.36   281.38   286.58   308.63   308.64   325.47
eigval :      337.36   337.42   351.21   361.35   361.36   386.98
eigval :      387.26   387.26   396.79   404.86   404.87   414.31
eigval :      414.34   414.34   415.31   416.06   416.07   440.08
eigval :      451.36   451.36   455.84   457.72   457.75   466.41
eigval :      471.21   471.21   475.64   481.26   481.27   499.16
eigval :      503.99   504.00   507.53   511.29   511.29   525.07
eigval :      538.42   538.42   538.76   553.76   553.77   578.18
eigval :      585.98   585.98   589.57   589.59   592.39   596.48
eigval :      596.49   604.17   604.88   604.88   617.83   633.73
eigval :      634.60   634.60   643.84   651.26   651.27   679.60
eigval :      685.40   685.42   688.63   688.64   688.82   689.16
eigval :      700.98   701.09   707.25   707.80   707.81   711.96
eigval :      735.64   735.65   739.76   739.91   739.91   754.07
eigval :      754.44   754.46   765.69   767.61   767.65   774.38
eigval :      776.07   776.23   776.23   785.91   785.93   785.98
eigval :      817.72   828.89   828.94   843.68   843.71   850.20
eigval :      878.45   878.47   878.50   878.83   878.84   878.85
eigval :      879.38   879.98   880.00   882.92   882.93   887.23
eigval :      897.39   897.40   900.84   901.81   901.82   904.43
eigval :      909.88   909.91   910.12   910.20   910.22   911.68
eigval :      911.75   911.76   915.20   917.14   917.84   917.84
eigval :      926.86   926.86   926.89   927.42   927.45   927.55
eigval :      927.55   927.56   927.82   930.17   930.20   939.60
eigval :      976.65   976.72   987.70  1009.05  1009.06  1009.07
eigval :     1010.09  1012.49  1012.50  1073.70  1073.88  1073.88
eigval :     1073.91  1074.59  1074.63  1077.36  1077.38  1077.56
eigval :     1078.82  1079.11  1079.12  1083.77  1116.32  1116.45
eigval :     1134.36  1134.38  1134.42  1143.67  1143.68  1143.73
eigval :     1155.54  1157.02  1157.05  1169.47  1169.53  1173.78
eigval :     1177.68  1177.74  1178.31  1178.39  1178.40  1179.09
eigval :     1181.43  1181.46  1182.33  1196.21  1196.33  1202.28
eigval :     1210.28  1210.29  1210.33  1224.05  1224.15  1224.71
eigval :     1224.89  1224.92  1229.51  1244.81  1244.84  1246.84
eigval :     1254.89  1260.13  1260.18  1260.73  1261.87  1261.92
eigval :     1262.51  1264.47  1264.70  1283.68  1285.04  1285.08
eigval :     1287.32  1293.22  1293.25  1319.39  1326.02  1326.12
eigval :     1326.13  1327.43  1327.43  1327.44  1347.07  1362.75
eigval :     1362.80  1366.83  1366.88  1366.90  1374.05  1412.41
eigval :     1412.49  1422.61  1426.83  1426.91  1429.18  1429.18
eigval :     1429.20  1431.70  1431.91  1431.98  1441.65  1443.55
eigval :     1443.58  1456.15  1460.25  1460.28  1462.55  1462.61
eigval :     1462.62  1472.54  1472.55  1472.58  1480.81  1481.35
eigval :     1481.43  1572.55  1572.56  1575.40  1579.69  1579.71
eigval :     1585.49  1585.49  1585.50  1593.99  1594.18  1594.19
eigval :     1596.45  1596.47  1596.48  1598.64  1598.92  1598.93
eigval :     1604.35  1604.58  1604.58  1604.68  1604.74  1604.74
eigval :     1605.36  1605.54  1605.54  3072.22  3072.23  3072.24
eigval :     3072.70  3072.72  3072.75  3072.92  3072.92  3072.93
eigval :     3074.99  3075.02  3075.43  3076.30  3076.31  3076.32
eigval :     3077.10  3077.14  3077.20  3077.23  3077.24  3077.27
eigval :     3078.65  3078.68  3079.22  3083.12  3083.16  3083.31
eigval :     3083.32  3083.34  3083.86  3084.37  3084.46  3084.70
eigval :     3085.26  3085.40  3085.46  3087.84  3087.87  3087.91
eigval :     3091.04  3091.04  3091.06  3091.90  3091.93  3092.00
eigval :     3092.62  3092.69  3092.84

   temp. (K)  partition function   enthalpy   heat capacity  entropy
                                   cal/mol     cal/K/mol   cal/K/mol   J/K/mol
 298.15  VIB  0.424E+31            36598.615    232.156    229.940
         ROT  0.132E+09              888.752      2.981     40.133
         INT  0.558E+39            37487.368    235.137    270.073
         TR   0.316E+29             1481.254      4.968     46.623
         TOT                       38968.6217   240.1055   316.6960  1325.0560

       T/K    H(0)-H(T)+PV         H(T)/Eh          T*S/Eh         G(T)/Eh
   ------------------------------------------------------------------------
    298.15    0.621005E-01    0.105440E+01    0.150472E+00    0.903926E+00
   ------------------------------------------------------------------------

         :::::::::::::::::::::::::::::::::::::::::::::::::::::
         ::                  THERMODYNAMIC                  ::
         :::::::::::::::::::::::::::::::::::::::::::::::::::::
         :: total free energy        -197.120111065471 Eh   ::
         ::.................................................::
         :: total energy             -198.024037121077 Eh   ::
         :: zero point energy           0.992298086644 Eh   ::
         :: G(RRHO) w/o ZPVE           -0.088372031038 Eh   ::
         :: G(RRHO) contrib.            0.903926055606 Eh   ::
         :::::::::::::::::::::::::::::::::::::::::::::::::::::

           -------------------------------------------------
          | TOTAL ENERGY             -198.024037121077 Eh   |
          | TOTAL ENTHALPY           -196.969638582944 Eh   |
          | TOTAL FREE ENERGY        -197.120111065471 Eh   |
          | GRADIENT NORM               0.000069144621 Eh/α |
          | HOMO-LUMO GAP               3.055110282666 eV   |
           -------------------------------------------------

 * finished run on 2025/09/10 at 09:08:58.333
