   * xtb version 6.7.1 (edcfbbe) compiled by 'albert@albert-system' on 2024-07-22

   ID    Z sym.   atoms
    1    6 C      1-81
    2    1 H      82-129

          program call               : xtb data2507/gas/TSBFB/TSBFB_gas_T1_crest.xyz --gfn 2 --spinpol --tblite --uhf 2 --ohess vtight --parallel 40 --molden --ceasefiles --namespace data2507/gas/TSBFB/TSBFB_gas_T1_finalOpt
 * total energy  :  -197.9329309 Eh     change        0.4525381E-07 Eh
 * total energy  :  -197.9329487 Eh     change       -0.1783483E-04 Eh
 * total energy  :  -197.9329540 Eh     change       -0.5291275E-05 Eh
 * total energy  :  -197.9329553 Eh     change       -0.1258077E-05 Eh
 * total energy  :  -197.9329574 Eh     change       -0.2167542E-05 Eh
 * total energy  :  -197.9329592 Eh     change       -0.1715904E-05 Eh
 * total energy  :  -197.9329604 Eh     change       -0.1218017E-05 Eh
 * total energy  :  -197.9329615 Eh     change       -0.1071697E-05 Eh
 * total energy  :  -197.9329625 Eh     change       -0.1022156E-05 Eh
 * total energy  :  -197.9329634 Eh     change       -0.9279493E-06 Eh
 * total energy  :  -197.9329666 Eh     change       -0.7089826E-06 Eh
 * total energy  :  -197.9329675 Eh     change       -0.9004914E-06 Eh
 * total energy  :  -197.9329685 Eh     change       -0.1073716E-05 Eh
 * total energy  :  -197.9329696 Eh     change       -0.1079735E-05 Eh
 * total energy  :  -197.9329700 Eh     change       -0.4097427E-06 Eh
 * total energy  :  -197.9329708 Eh     change       -0.7907452E-06 Eh
 * total energy  :  -197.9329715 Eh     change       -0.6788713E-06 Eh
 * total energy  :  -197.9329715 Eh     change        0.1613108E-07 Eh
 * total energy  :  -197.9329715 Eh     change       -0.1998140E-07 Eh
   *** GEOMETRY OPTIMIZATION CONVERGED AFTER 23 ITERATIONS ***

 final structure:
================
129
 xtb: 6.7.1 (edcfbbe)
C            5.64092239855481        1.74250006002513        3.64839957187439
C            5.16065325227032        3.04207940947943        3.70826394217129
C            4.84066051315614        3.73714256630426        2.54925434715144
C            5.02831653708177        3.11083917456091        1.33691747936388
C            5.52952980843462        1.80148625534739        1.27055789634683
C            5.83033757739067        1.10828841076392        2.43098019766865
C            5.64973168379548        1.42302650959172       -0.12858915280488
C            6.08261923615078        0.25150780628765       -0.72667387869340
C            6.10870993765558        0.18348012239954       -2.11031287287129
C            5.71369435102077        1.26368542609630       -2.88480073232830
C            5.26220398980411        2.43577137590889       -2.29318512834162
C            5.23379471844203        2.50436762446003       -0.91799795637226
C            4.70199386347095        3.61732390575854       -0.04355526044586
C            5.15590556476200        5.00292511197465       -0.40992280852137
C            6.42833968611658        5.52781942617881       -0.36293301415444
C            6.61869809896294        6.84168515422249       -0.77101576011654
C            5.55356791021192        7.60713297752673       -1.22114591491532
C            4.27170444799395        7.08323958708825       -1.27257715173308
C            4.07233066079660        5.77497627191556       -0.86320778436072
C            2.86642845512219        4.96685530139586       -0.79329639033941
C            1.54711303492449        5.22214003811840       -1.13521767568497
C            0.60339169876891        4.22522083581440       -0.95827982389570
C            0.94297239433059        2.97717947415232       -0.43075715726373
C           -0.05623866318379        1.91842408091005       -0.23877791730571
C           -1.37531510236173        2.23188848381915        0.12015662218324
C           -2.31597711936847        1.21013412962834        0.31095295898262
C           -3.69839800627174        1.53745154594330        0.68757449075874
C           -3.96150805828528        2.54177022942121        1.62035539963218
C           -5.25289953759366        2.84713389111316        2.01037835590822
C           -6.30450580926814        2.13686446751685        1.45367006434523
C           -6.04566467951298        1.13388791364496        0.50760425460771
C           -4.76243859518191        0.82939085372788        0.12262218913546
C           -7.33244304086793        0.49418392239974        0.04546897461094
C           -7.35867788182914       -0.99887569686827        0.26459119931189
C           -7.19973486892598       -1.69185999873711        1.44443896821472
C           -7.24996089915871       -3.07903982242934        1.40765158659677
C           -7.45471321950752       -3.75085667073702        0.21178302110326
C           -7.61424160181885       -3.05651476376321       -0.97688329154629
C           -7.56490268540458       -1.67255654093662       -0.94803726755277
C           -7.69054301473838       -0.68474301889197       -2.00826362084350
C           -7.90725832467959       -0.82653707909327       -3.36890662436237
C           -7.98602860803387        0.31504908222890       -4.15040921526386
C           -7.85040100609592        1.57496178932573       -3.58703641444429
C           -7.63274927898701        1.72496320802702       -2.22393466496815
C           -7.55492606968996        0.59208893838846       -1.44431757100844
C           -8.35950183221986        1.24946059546450        0.85349803091749
C           -9.72761689225393        1.09211002031586        0.85703947454530
C          -10.48455348699736        1.90903311184317        1.68659090691334
C           -9.87772520571394        2.86148162835399        2.49161886806525
C           -8.50159693748330        3.02252436625151        2.49056571240374
C           -7.73950662960220        2.21056399205164        1.66632845146118
C           -1.93587283355946       -0.10693481567966        0.16694424023975
C           -0.60189890066572       -0.47128057599315       -0.16443781361947
C           -0.18841071576925       -1.82516637578777       -0.21914445765277
C           -1.14758571679229       -2.90309726266067       -0.29770815509129
C           -0.79314360433934       -4.20737380880180       -0.23701955635750
C            0.57848284758307       -4.55581027667156       -0.07931839250519
C            1.56000736115205       -3.49396746680700       -0.06851938131597
C            1.20462351459185       -2.19550106230015       -0.14617056831612
C            2.93892031632847       -4.08845689722585        0.08092608834379
C            3.75826655319423       -3.57057263559455        1.23674209083670
C            3.39102907297125       -3.43937377405423        2.55807821443535
C            4.33417728713875       -2.97323590875340        3.46414940462052
C            5.62153294553065       -2.66218703037846        3.05297504589326
C            5.99521879045877       -2.79328691464337        1.72487063554408
C            5.05435800111656       -3.24083311349367        0.81175528670536
C            5.13421334618220       -3.44556944494946       -0.62556516990547
C            6.18267690361785       -3.28226717167378       -1.51566094487709
C            5.95750209719150       -3.53654541182931       -2.85925023445457
C            4.71066115721072       -3.94544798375709       -3.30796161416917
C            3.66099379473692       -4.13189401211064       -2.41870916180440
C            3.88146270650189       -3.88195997193429       -1.08208557762058
C            2.62855652306208       -5.56507360081042        0.22048678509632
C            3.49544124792477       -6.60329542730619        0.41606682046041
C            2.98250430360773       -7.90196177893542        0.49380127993411
C            1.60918016588333       -8.13543816221233        0.37007491968559
C            0.72394326049883       -7.10503602534333        0.17324654816153
C            1.22171815698005       -5.78527274437540        0.09494448115524
C            0.30764465120337        0.59613769634583       -0.38856569320429
C            2.27241087532587        2.73036394670896       -0.07797738371800
C            3.21010205490349        3.71173250719225       -0.27480654278114
H            5.87151042669952        1.21832769895691        4.56458006175242
H            5.02769814871348        3.51808715461001        4.66877015614114
H            4.45566210810357        4.74557183741254        2.59636107677576
H            6.19800675440847        0.09417648482452        2.38787137386532
H            6.38226239982331       -0.59369047789979       -0.12690573531062
H            6.43539197681236       -0.72520216981554       -2.59330497133626
H            5.74837209753110        1.18881361098723       -3.96176083595201
H            4.93868913499746        3.27265150744456       -2.89523994224350
H            7.25823117886948        4.93042773381702       -0.01417481348077
H            7.60868327695004        7.27242375099160       -0.73809956000438
H            5.72646886572831        8.62634333989003       -1.53520666615530
H            3.44525580129534        7.68352447712268       -1.62347142377349
H            1.25822436386574        6.17900882340261       -1.54469880359208
H           -0.41815311534596        4.41013474878831       -1.25689379471047
H           -1.67054397072793        3.26105206344638        0.24879201140228
H           -3.13299059768856        3.07244347308878        2.06666965458070
H           -5.43495652268183        3.62075625816702        2.74171767926530
H           -4.57760209974236        0.06524865653983       -0.61862254745743
H           -7.03930354292893       -1.16751639571514        2.37543608992458
H           -7.12751731867227       -3.64156275687173        2.32160619836093
H           -7.48989401482698       -4.83072559429861        0.20790244434406
H           -7.77257040846623       -3.58440212996687       -1.90570270509364
H           -8.01390278452316       -1.80549850067934       -3.81238364574478
H           -8.15581686926878        0.22338126752702       -5.21343032689529
H           -7.91553771371082        2.45044894457155       -4.21626051011777
H           -7.52781207036981        2.70622061481890       -1.78411822144081
H          -10.19973794761702        0.35030770268200        0.22920656274045
H          -11.55910506062257        1.80140859845535        1.70479250426336
H          -10.48761069785198        3.48587924512368        3.12834392120340
H           -8.03350373078205        3.76529907082659        3.11950072468085
H           -2.65973772288465       -0.87490023857641        0.38772598069719
H           -2.18666788500163       -2.65255950060104       -0.44343146394636
H           -1.53453021277145       -4.98939630240061       -0.30836264196051
H            1.96358152345984       -1.43028141362239       -0.09736114102356
H            2.39117558956751       -3.69160990026502        2.88030982362570
H            4.06413276460798       -2.85717901486485        4.50342406016506
H            6.34203992711723       -2.31463052866792        3.77974733773084
H            7.00256213029739       -2.55662398388251        1.41213172486132
H            7.15805536470514       -2.96944521439099       -1.17217220845911
H            6.76421930814622       -3.41652087117185       -3.56848844784318
H            4.55741102096911       -4.13090297313929       -4.36093276253865
H            2.69428724303833       -4.46707218908458       -2.76560219675095
H            4.55786801996238       -6.42894698308102        0.50944149895716
H            3.65336578643055       -8.73281137568657        0.64898253709271
H            1.24449387877333       -9.15082234331868        0.43248193461889
H           -0.33566888560191       -7.28829660150254        0.07942992485919
H            1.30265833055100        0.37020961324620       -0.73614014865062
H            2.56098569390693        1.78588342341089        0.35917805303236

 projected vibrational frequencies (cm⁻¹)
eigval :       -0.00    -0.00    -0.00    -0.00    -0.00    -0.00
eigval :        6.82     8.63    11.84    14.80    17.96    19.34
eigval :       21.61    23.94    28.51    31.93    39.14    44.07
eigval :       44.54    47.12    49.85    56.71    61.14    67.49
eigval :       71.24    77.36    84.41    93.61    98.05    99.27
eigval :      117.64   123.17   125.71   128.11   131.32   137.18
eigval :      142.67   149.49   153.78   156.42   178.86   187.03
eigval :      192.78   205.80   211.57   220.31   222.94   232.84
eigval :      233.41   236.20   241.45   245.19   256.79   262.06
eigval :      273.59   283.25   284.91   292.07   312.07   313.61
eigval :      328.05   334.15   347.35   359.22   362.56   374.20
eigval :      386.72   387.36   390.04   397.91   406.14   408.09
eigval :      414.25   414.34   414.79   415.29   416.42   438.27
eigval :      442.81   448.54   452.01   454.62   458.40   459.23
eigval :      460.34   466.90   468.58   475.32   480.13   497.88
eigval :      502.03   503.43   504.35   507.59   511.14   520.74
eigval :      529.30   538.23   538.64   540.24   543.81   564.56
eigval :      570.86   576.61   582.82   585.99   589.22   592.05
eigval :      594.22   597.52   603.98   604.39   606.30   612.56
eigval :      629.73   631.25   637.47   639.86   641.13   644.22
eigval :      663.18   682.51   683.48   685.17   687.62   688.27
eigval :      688.52   694.28   700.34   706.84   707.84   709.43
eigval :      726.48   729.81   735.30   738.55   739.66   740.32
eigval :      752.54   754.51   754.82   761.93   766.45   768.18
eigval :      771.85   773.84   775.66   780.83   784.47   785.56
eigval :      786.19   787.34   821.17   826.66   831.53   833.73
eigval :      836.26   839.06   840.53   843.13   876.24   877.83
eigval :      878.41   878.68   878.88   880.04   881.88   883.38
eigval :      884.44   886.11   888.37   894.89   899.34   900.38
eigval :      900.57   900.94   903.34   908.63   909.65   910.46
eigval :      911.04   911.35   911.48   911.60   911.84   913.92
eigval :      914.92   916.76   925.43   925.66   926.71   927.16
eigval :      927.21   927.34   928.14   928.71   930.05   932.51
eigval :      940.22   963.22   975.99   988.21  1007.68  1008.42
eigval :     1009.00  1009.92  1013.70  1037.41  1053.22  1063.40
eigval :     1073.78  1073.94  1074.69  1075.23  1075.45  1077.31
eigval :     1077.47  1079.29  1079.33  1080.83  1100.35  1113.16
eigval :     1119.94  1134.59  1134.81  1139.91  1142.80  1143.75
eigval :     1143.77  1153.00  1155.75  1157.32  1162.34  1166.18
eigval :     1174.23  1176.13  1177.01  1177.90  1178.21  1179.06
eigval :     1179.97  1180.94  1181.43  1182.34  1192.64  1198.47
eigval :     1202.01  1208.29  1209.63  1210.18  1221.94  1223.24
eigval :     1224.94  1226.97  1234.02  1241.04  1244.59  1246.51
eigval :     1249.55  1250.11  1260.74  1260.91  1261.39  1261.77
eigval :     1262.53  1265.54  1271.52  1275.40  1284.62  1285.06
eigval :     1286.06  1289.56  1295.06  1299.52  1324.15  1327.30
eigval :     1327.33  1328.48  1328.67  1331.09  1334.93  1342.42
eigval :     1344.37  1353.04  1365.55  1366.78  1366.83  1367.09
eigval :     1372.62  1376.73  1398.96  1417.40  1420.94  1423.07
eigval :     1427.47  1428.04  1428.13  1428.34  1431.33  1432.36
eigval :     1434.80  1435.12  1450.72  1455.67  1461.08  1462.08
eigval :     1462.55  1466.96  1469.59  1471.15  1472.21  1472.89
eigval :     1479.72  1497.61  1500.50  1530.89  1560.96  1564.23
eigval :     1572.19  1573.56  1583.79  1584.99  1585.31  1591.69
eigval :     1592.81  1593.92  1595.30  1595.50  1596.35  1596.82
eigval :     1601.35  1603.14  1603.55  1603.70  1604.26  1604.70
eigval :     1604.99  1606.32  1630.55  3065.88  3069.59  3072.55
eigval :     3072.59  3072.69  3072.90  3073.01  3073.31  3074.46
eigval :     3074.72  3075.12  3075.38  3075.49  3076.52  3076.56
eigval :     3076.90  3077.33  3077.43  3077.68  3077.94  3078.66
eigval :     3079.72  3081.82  3082.83  3083.52  3083.95  3084.33
eigval :     3084.38  3085.80  3087.35  3087.52  3087.79  3088.79
eigval :     3090.29  3091.04  3091.45  3091.70  3092.02  3092.20
eigval :     3093.25  3093.41  3094.53  3094.92  3096.68  3100.59
eigval :     3104.21  3106.35  3108.07

   temp. (K)  partition function   enthalpy   heat capacity  entropy
                                   cal/mol     cal/K/mol   cal/K/mol   J/K/mol
 298.15  VIB  0.226E+30            36855.470    235.161    229.272
         ROT  0.366E+09              888.752      2.981     42.165
         INT  0.827E+38            37744.222    238.142    271.437
         TR   0.316E+29             1481.254      4.968     46.623
         TOT                       39225.4763   243.1104   318.0598  1330.7621

       T/K    H(0)-H(T)+PV         H(T)/Eh          T*S/Eh         G(T)/Eh
   ------------------------------------------------------------------------
    298.15    0.625098E-01    0.105076E+01    0.151120E+00    0.899641E+00
   ------------------------------------------------------------------------

         :::::::::::::::::::::::::::::::::::::::::::::::::::::
         ::                  THERMODYNAMIC                  ::
         :::::::::::::::::::::::::::::::::::::::::::::::::::::
         :: total free energy        -197.033330509669 Eh   ::
         ::.................................................::
         :: total energy             -197.932971488477 Eh   ::
         :: zero point energy           0.988251660970 Eh   ::
         :: G(RRHO) w/o ZPVE           -0.088610682162 Eh   ::
         :: G(RRHO) contrib.            0.899640978808 Eh   ::
         :::::::::::::::::::::::::::::::::::::::::::::::::::::

           -------------------------------------------------
          | TOTAL ENERGY             -197.932971488477 Eh   |
          | TOTAL ENTHALPY           -196.882210052085 Eh   |
          | TOTAL FREE ENERGY        -197.033330509669 Eh   |
          | GRADIENT NORM               0.000166653882 Eh/α |
           -------------------------------------------------

 * finished run on 2025/09/10 at 09:47:57.974
