   * xtb version 6.7.1 (edcfbbe) compiled by 'albert@albert-system' on 2024-07-22

   ID    Z sym.   atoms
    1    6 C      1-5, 7-12, 14-29, 31-37, 39-56
    2    7 N      6, 13, 30, 38
    3    1 H      57-90

          program call               : xtb data2507/gas/BPBiPA/BPBiPA_gas_S0_finalOpt.xtbopt.xyz --gfn 2 --spinpol --tblite --uhf 2 --ohess vtight --parallel 40 --molden --ceasefiles --namespace data2507/gas/BPBiPA/BPBiPA_gas_T1_preOpt
 * total energy  :  -140.3732227 Eh     change        0.2070038E-07 Eh
 * total energy  :  -140.3795413 Eh     change       -0.6318566E-02 Eh
 * total energy  :  -140.3810024 Eh     change       -0.1461132E-02 Eh
 * total energy  :  -140.3811330 Eh     change       -0.1305966E-03 Eh
 * total energy  :  -140.3812685 Eh     change       -0.1355400E-03 Eh
 * total energy  :  -140.3813425 Eh     change       -0.7395896E-04 Eh
 * total energy  :  -140.3814307 Eh     change       -0.8822921E-04 Eh
 * total energy  :  -140.3815019 Eh     change       -0.7115949E-04 Eh
 * total energy  :  -140.3815429 Eh     change       -0.4103778E-04 Eh
 * total energy  :  -140.3815701 Eh     change       -0.2719840E-04 Eh
 * total energy  :  -140.3822931 Eh     change       -0.5495027E-06 Eh
 * total energy  :  -140.3822935 Eh     change       -0.3949333E-06 Eh
 * total energy  :  -140.3822938 Eh     change       -0.2852601E-06 Eh
 * total energy  :  -140.3822940 Eh     change       -0.2173055E-06 Eh
 * total energy  :  -140.3822941 Eh     change       -0.1272827E-06 Eh
 * total energy  :  -140.3822944 Eh     change       -0.2554089E-06 Eh
 * total energy  :  -140.3822946 Eh     change       -0.1961810E-06 Eh
 * total energy  :  -140.3822948 Eh     change       -0.2012829E-06 Eh
 * total energy  :  -140.3822949 Eh     change       -0.8831944E-07 Eh
   *** GEOMETRY OPTIMIZATION CONVERGED AFTER 56 ITERATIONS ***

 final structure:
================
90
 xtb: 6.7.1 (edcfbbe)
C           -6.33566624431217       -4.67914306980288        0.21702705669596
C           -5.70542177336603       -3.73676579625214       -0.57881031717291
C           -6.18794656350737       -2.44319588270425       -0.64391738958037
C           -7.30823512891088       -2.07693636099159        0.10037212622087
C           -7.85176247806981       -0.72655158308398        0.06335311140548
N           -9.12904423883156       -0.46412934047365        0.09159210360384
C           -9.24297632958246        0.89463699354617       -0.01154572863822
C          -10.37265107656582        1.70516704240034       -0.02649097218598
C          -10.18171082156233        3.06696008280807       -0.12561306913699
C           -8.90374720429650        3.62503037733830       -0.19886626779511
C           -7.76826137557968        2.83976791679418       -0.18694810991763
C           -7.95304332460845        1.46907683842267       -0.10733502934429
N           -7.07430080131738        0.41051946197325       -0.05348411836634
C           -5.67673498138182        0.49135928443852       -0.01456457181107
C           -4.96764780540009       -0.16339121970890        0.99109351871585
C           -3.59129747702580       -0.12623994240989        0.99969357798036
C           -2.88231153426946        0.58346563727220        0.02378590950636
C           -1.42335516651170        0.59062464777514        0.01664981306312
C           -0.71424020991783        1.83257115390870        0.03527887063586
C           -1.37719316042479        3.05603832062384        0.15115893791403
C           -0.68753587590518        4.26594300316554        0.09035169585809
C            0.67707603603132        4.26759938616272       -0.09361189728641
C            1.36970196195917        3.05937508439203       -0.15410556431785
C            0.70975061852888        1.83431460484938       -0.03796169551490
C            1.42196986749225        0.59413747844000       -0.01899041428877
C            2.88094548785770        0.59080914368039       -0.02523644059617
C            3.59257786815994       -0.11694359083291       -1.00062924169889
C            4.96903357000706       -0.15016181085730       -0.99113244323815
C            5.67559937316147        0.50670465064897        0.01491468304694
N            7.07340081739060        0.43030671058992        0.05453432972859
C            7.85472981242656       -0.70415153512261       -0.06185292021015
C            7.31598445137134       -2.05643652050862       -0.09885405193198
C            7.96611013198777       -3.01452845494359       -0.87486500041026
C            7.48390539364787       -4.30780516829261       -0.93336708362098
C            6.35316969787825       -4.66229542435695       -0.21520798918989
C            5.71854799039214       -3.72181928744415        0.57939679962842
C            6.19621517735978       -2.42643748154310        0.64436385449201
N            9.13114058886634       -0.43741021983840       -0.08963146574064
C            9.24045557588540        0.92173619514288        0.01334065312036
C           10.36738374141699        1.73608030663660        0.02856287082884
C           10.17181079171026        3.09723445610344        0.12739878535150
C            8.89194251760683        3.65099691523063        0.20011128243345
C            7.75912009053488        2.86190268647224        0.18790282785960
C            7.94855809775652        1.49183040931960        0.10856464987803
C            4.98326407890981        1.23122558469273        0.98159176699582
C            3.60540267139923        1.27810076979066        0.95366255357862
C            0.71377632336276       -0.64912460156773        0.01663104566012
C            1.37944728920705       -1.87314694610283        0.11405134193550
C            0.68840857253146       -3.08290262950152        0.07123757764101
C           -0.68073457719468       -3.08456698834827       -0.07440629470784
C           -1.37473830616580       -1.87649868215235       -0.11692138133520
C           -0.71206425939588       -0.65087226090936       -0.01927396883314
C           -3.60935477119050        1.26872006468478       -0.95461596833426
C           -4.98710306836843        1.21789940887923       -0.98165248268105
C           -7.95397083418914       -3.03699845144682        0.87759283173039
C           -7.46690911716545       -4.32845329670941        0.93624767391895
H           -5.95186003693888       -5.68737762338636        0.26781167122048
H           -4.83573266602210       -4.01175786052904       -1.15787529084426
H           -5.70465837992231       -1.72471841014326       -1.28981654458743
H          -11.35673643698621        1.27067729062936        0.04262550620069
H          -11.03827515656867        3.72461018157740       -0.14071048503654
H           -8.80214299765878        4.69819817436105       -0.26486884623355
H           -6.78148023957639        3.27628498339791       -0.23180010316358
H           -5.50541388816812       -0.70288076120345        1.75655301532433
H           -3.04673945530164       -0.62592372801226        1.78706476835733
H           -2.44633001167010        3.06956178803889        0.29734156039490
H           -1.23223123189801        5.19421585044585        0.17518525867262
H            1.21949245064643        5.19718512233340       -0.17866717091677
H            2.43881091653206        3.07548251217453       -0.30024115506542
H            3.04997125712697       -0.61815835490544       -1.78837462140148
H            5.50884251643551       -0.68813528585205       -1.75622253508274
H            8.84703337545718       -2.72245680899288       -1.42483256238008
H            7.98994229632500       -5.04303799138690       -1.54143267653743
H            5.97316895553569       -5.67197769275475       -0.26584860627117
H            4.84923583026841       -3.99971819581950        1.15763956392720
H            5.70954903086239       -1.70943321820684        1.28936050178716
H           11.35295537842647        1.30490458886440       -0.04013072789274
H           11.02614306245527        3.75777709633545        0.14269696131103
H            8.78668994563055        4.72382555635287        0.26591004586587
H            6.77085560046550        3.29509578205514        0.23232774348807
H            5.53111051038238        1.73007137709596        1.76741679844113
H            3.07230239795306        1.81419794910536        1.72510587651728
H            2.45252700848985       -1.88969735811597        0.22846497337826
H            1.23598544112701       -4.01089924871239        0.13936804902959
H           -1.22603494896741       -4.01388794564928       -0.14274194846348
H           -2.44778348369207       -1.89565507328111       -0.23126549101168
H           -3.07830083280878        1.80628441872379       -1.72644927744668
H           -5.53687779386523        1.71514654675710       -1.76714450129851
H           -8.83535089115068       -2.74790444209205        1.42840402242724
H           -7.96953927997813       -5.06522629307319        1.54527360397376

 projected vibrational frequencies (cm⁻¹)
eigval :       -0.00     0.00     0.00     0.00     0.00     0.00
eigval :        8.01     8.10     9.83    14.56    21.25    32.43
eigval :       35.15    38.69    53.89    54.19    57.72    60.31
eigval :       69.45    71.43    74.45    79.59    88.22    91.84
eigval :      105.80   114.26   139.77   155.30   168.04   183.91
eigval :      185.71   186.11   207.00   208.24   218.86   229.99
eigval :      249.92   252.80   262.76   285.02   286.31   302.79
eigval :      322.09   332.62   341.80   352.25   366.50   372.32
eigval :      373.84   376.81   379.63   379.92   385.49   387.98
eigval :      405.84   408.05   413.77   420.61   420.87   426.21
eigval :      463.64   471.13   484.30   485.82   495.37   509.63
eigval :      539.79   541.80   546.98   547.27   564.66   570.81
eigval :      574.84   576.13   585.64   586.52   587.70   597.26
eigval :      601.24   615.96   616.89   626.03   640.94   653.19
eigval :      655.91   664.79   667.48   673.22   676.42   676.69
eigval :      686.06   688.80   699.36   709.63   710.69   716.44
eigval :      724.21   747.51   751.17   760.79   764.38   764.86
eigval :      774.66   774.69   817.33   821.33   845.01   849.14
eigval :      865.68   865.90   866.69   868.04   873.48   877.46
eigval :      878.23   879.27   885.06   885.49   890.34   892.56
eigval :      894.59   900.07   900.43   904.93   905.16   906.16
eigval :      906.63   911.32   913.55   921.73   921.90   925.40
eigval :      926.58   930.15   930.17   932.68   932.69   935.26
eigval :      935.50   945.74   967.35   969.45   992.25   995.57
eigval :     1031.94  1033.77  1060.78  1060.80  1081.78  1081.79
eigval :     1101.54  1105.73  1114.14  1119.81  1119.84  1125.91
eigval :     1131.31  1131.40  1133.85  1133.91  1137.12  1137.23
eigval :     1174.86  1174.87  1181.44  1181.46  1181.47  1181.72
eigval :     1182.96  1188.72  1191.52  1191.62  1197.87  1198.03
eigval :     1208.70  1209.46  1232.53  1254.03  1257.13  1261.22
eigval :     1261.64  1268.38  1269.29  1279.00  1279.07  1293.15
eigval :     1293.54  1296.68  1297.62  1307.53  1309.82  1316.80
eigval :     1318.12  1321.31  1321.36  1334.68  1362.58  1362.64
eigval :     1365.31  1370.03  1377.57  1382.69  1384.87  1407.37
eigval :     1408.64  1409.17  1413.86  1414.00  1427.76  1431.73
eigval :     1431.78  1462.16  1462.34  1471.19  1478.85  1483.23
eigval :     1486.14  1488.76  1491.25  1519.19  1531.32  1534.35
eigval :     1534.85  1541.66  1541.90  1558.53  1576.85  1579.41
eigval :     1580.61  1580.63  1588.80  1588.81  1597.90  1597.91
eigval :     1615.89  1615.98  3073.32  3073.32  3074.96  3074.97
eigval :     3078.94  3079.52  3079.53  3079.77  3080.93  3080.94
eigval :     3081.78  3081.84  3083.51  3083.58  3086.19  3086.43
eigval :     3086.88  3087.56  3092.28  3092.30  3092.98  3093.11
eigval :     3093.12  3093.18  3094.20  3094.73  3095.34  3096.20
eigval :     3098.95  3100.01  3106.75  3106.77  3109.68  3109.72

   temp. (K)  partition function   enthalpy   heat capacity  entropy
                                   cal/mol     cal/K/mol   cal/K/mol   J/K/mol
 298.15  VIB  0.707E+21            25667.249    162.747    161.468
         ROT  0.777E+08              888.752      2.981     39.087
         INT  0.550E+29            26556.002    165.728    200.556
         TR   0.185E+29             1481.254      4.968     45.560
         TOT                       28037.2556   170.6958   246.1161  1029.7499

       T/K    H(0)-H(T)+PV         H(T)/Eh          T*S/Eh         G(T)/Eh
   ------------------------------------------------------------------------
    298.15    0.446802E-01    0.733047E+00    0.116938E+00    0.616109E+00
   ------------------------------------------------------------------------

         :::::::::::::::::::::::::::::::::::::::::::::::::::::
         ::                  THERMODYNAMIC                  ::
         :::::::::::::::::::::::::::::::::::::::::::::::::::::
         :: total free energy        -139.766186032823 Eh   ::
         ::.................................................::
         :: total energy             -140.382294851424 Eh   ::
         :: zero point energy           0.688366326939 Eh   ::
         :: G(RRHO) w/o ZPVE           -0.072257508338 Eh   ::
         :: G(RRHO) contrib.            0.616108818601 Eh   ::
         :::::::::::::::::::::::::::::::::::::::::::::::::::::

           -------------------------------------------------
          | TOTAL ENERGY             -140.382294851424 Eh   |
          | TOTAL ENTHALPY           -139.649248313604 Eh   |
          | TOTAL FREE ENERGY        -139.766186032823 Eh   |
          | GRADIENT NORM               0.000042894133 Eh/α |
           -------------------------------------------------

 * finished run on 2025/09/04 at 04:58:04.369
