   * xtb version 6.7.1 (edcfbbe) compiled by 'albert@albert-system' on 2024-07-22

   ID    Z sym.   atoms
    1    6 C      1-5, 7-12, 14-29, 31-37, 39-56
    2    7 N      6, 13, 30, 38
    3    1 H      57-90

          program call               : xtb data2507/gas/BPBiPA/BPBiPA.xyz --gfn 2 --ohess vtight --parallel 40 --molden --ceasefiles --namespace data2507/gas/BPBiPA/BPBiPA_gas_S0_preOpt
          :  Hamiltonian                  GFN2-xTB          :
 * total energy  :  -140.4166959 Eh     change       -0.2309676E-07 Eh
 * total energy  :  -140.4345338 Eh     change       -0.1783793E-01 Eh
 * total energy  :  -140.4395807 Eh     change       -0.5046958E-02 Eh
 * total energy  :  -140.4404793 Eh     change       -0.8985453E-03 Eh
 * total energy  :  -140.4410617 Eh     change       -0.5824081E-03 Eh
 * total energy  :  -140.4414573 Eh     change       -0.3955975E-03 Eh
 * total energy  :  -140.4418752 Eh     change       -0.4178652E-03 Eh
 * total energy  :  -140.4423856 Eh     change       -0.5104127E-03 Eh
 * total energy  :  -140.4428909 Eh     change       -0.5053458E-03 Eh
 * total energy  :  -140.4433154 Eh     change       -0.4244543E-03 Eh
 * total energy  :  -140.4442066 Eh     change       -0.3907412E-06 Eh
 * total energy  :  -140.4442071 Eh     change       -0.4867999E-06 Eh
 * total energy  :  -140.4442078 Eh     change       -0.6761831E-06 Eh
 * total energy  :  -140.4442086 Eh     change       -0.8674473E-06 Eh
 * total energy  :  -140.4442096 Eh     change       -0.9262585E-06 Eh
 * total energy  :  -140.4442104 Eh     change       -0.8251338E-06 Eh
 * total energy  :  -140.4442111 Eh     change       -0.7308835E-06 Eh
 * total energy  :  -140.4442118 Eh     change       -0.7175857E-06 Eh
 * total energy  :  -140.4442118 Eh     change       -0.3755559E-08 Eh
   *** GEOMETRY OPTIMIZATION CONVERGED AFTER 68 ITERATIONS ***

 final structure:
================
90
 xtb: 6.7.1 (edcfbbe)
C           -6.63086933299329       -4.62056133893325       -0.47265906335151
C           -5.92952749322702       -3.75992658109255        0.35543938761311
C           -6.33065423829336       -2.44464772339916        0.49570004519458
C           -7.44018675794054       -1.97386345525279       -0.20419027830734
C           -7.90743530970512       -0.60077702184181       -0.08276659687215
N           -9.16931262811640       -0.26932664928421       -0.10641397966250
C           -9.21338850145098        1.08338692523954        0.08545779406635
C          -10.29889113885568        1.95079968324393        0.14384987266030
C          -10.03732729097700        3.29049683552831        0.33580813938644
C           -8.73258609105620        3.77307459363362        0.46001539329244
C           -7.64017795875215        2.93072524349216        0.40666239799333
C           -7.89663062621511        1.58062622280033        0.23159534944792
N           -7.07399946391745        0.48249606139624        0.11814744486124
C           -5.67118131771892        0.50541098413762        0.08775042393841
C           -4.96183286184082        1.09957741105561        1.12588789694177
C           -3.58039798712569        1.10675940503782        1.09852507104210
C           -2.88975847563194        0.52777839193089        0.03913510713479
C           -1.40987937145977        0.51960287900706        0.02816135341427
C           -0.71229116085907        1.44475228121809       -0.75825669808645
C           -1.38750706504631        2.40777355666448       -1.55337384750428
C           -0.69771695207743        3.30957592820695       -2.30310427874659
C            0.71195891035187        3.30938333123741       -2.29836424623761
C            1.39702968304817        2.40668612923665       -1.54527054988387
C            0.71707083619878        1.44284090888247       -0.75517515706303
C            1.40874191933318        0.51470826382353        0.03360271877767
C            2.88813864507148        0.51856343576754        0.05025573225878
C            3.60946530342551       -0.01754641952116       -1.01227837653210
C            4.98969064966118       -0.02975196491302       -0.99009896206705
C            5.66987836032706        0.49367153324178        0.10546645785979
N            7.07264115068543        0.47234021488887        0.13791313110448
C            7.90978235416889       -0.59915028217673       -0.10614416924433
C            7.44707917523487       -1.96715487364128       -0.28744508634264
C            8.16809698302459       -2.80746650614520       -1.13464517363893
C            7.76687188877987       -4.11526005440870       -1.32576008065773
C            6.64673469835395       -4.60231079850722       -0.67127558685615
C            5.94038956205794       -3.77998401204454        0.19079972050127
C            6.33700119767972       -2.47069556146849        0.38832557749663
N            9.17076619072713       -0.26351021979872       -0.11188686760061
C            9.21042130311128        1.08000883510560        0.13705470931474
C           10.29325087441182        1.94717997828834        0.23524573846060
C           10.02725893651558        3.27693500558196        0.48233587176184
C            8.72075420681284        3.75032103704494        0.62234019030952
C            7.63095689083438        2.90792411805772        0.53038219416056
C            7.89182975071599        1.56700756734774        0.29996413838834
C            4.95758190978056        1.04424291917524        1.16544526731513
C            3.57629354666271        1.05264825760205        1.13474726694204
C            0.71072470933488       -0.41787191303525        0.81202160932918
C            1.38418726912203       -1.39034058786790        1.59726031130342
C            0.69344827546509       -2.29669682584474        2.34063937858370
C           -0.71619840562398       -2.29222198928710        2.33980979321976
C           -1.39981432975489       -1.38215422461982        1.59449520023095
C           -0.71847956353126       -0.41492161406205        0.80957936656229
C           -3.60791815514961       -0.05081288946448       -1.00286786756534
C           -4.98821381839723       -0.06174874719899       -0.98404923837020
C           -8.15615663583575       -2.85186762651379       -1.01672091100617
C           -7.75051081568187       -4.16541040688442       -1.15052701368864
H           -6.31078390309890       -5.64629968149552       -0.58122856521328
H           -5.06700856132011       -4.11610300864983        0.89974458588336
H           -5.79256695193847       -1.79096484081216        1.16633102837403
H          -11.30363996813195        1.57523894060710        0.03684004288715
H          -10.85793246338672        3.99088729347308        0.38636997327673
H           -8.57554149689180        4.83240898549080        0.59991686956136
H           -6.63196363276805        3.30856041456639        0.49261387742252
H           -5.49643287732559        1.53471963794753        1.95732446015118
H           -3.02679703114850        1.55935368370713        1.90820493409757
H           -2.46765327144264        2.41209902378534       -1.54907445583130
H           -1.22396434283049        4.03663530048744       -2.90381549010973
H            1.24232019537828        4.03674898869396       -2.89508707045775
H            2.47707584550455        2.41168101485557       -1.53462857652405
H            3.07972647937099       -0.42828338337592       -1.85909337390262
H            5.54829674064632       -0.44866975513263       -1.81386045565620
H            9.04016205214335       -2.41277907504919       -1.63202942217295
H            8.32808828807982       -4.75850154458046       -1.98733346839966
H            6.33010403561422       -5.62339816178367       -0.82459702237341
H            5.07744382728197       -4.16165295975626        0.71683091355379
H            5.79484315726121       -1.84782917406775        1.08451442103105
H           11.29939902767333        1.57920191986959        0.11577462037706
H           10.84568277440666        3.97684308819303        0.56483774903414
H            8.56019109637305        4.80246699028409        0.80573511772204
H            6.62140538797175        3.27912919689921        0.62863808534357
H            5.48991058390388        1.44500738078794        2.01541536479543
H            3.02065585473661        1.47223088154198        1.96067189918391
H            2.46419554114737       -1.40129218178679        1.58758251312753
H            1.21878835602954       -3.03134833213036        2.93298638179237
H           -1.24696433672987       -3.02304263500814        2.93205109357515
H           -2.47989962171639       -1.38548605424187        1.58270927228352
H           -3.07579713495641       -0.49545601864209       -1.83082901193435
H           -5.54474465674393       -0.51379014742406       -1.79153848522591
H           -9.02790195223200       -2.48151805382827       -1.53302412929421
H           -8.30790247452253       -4.83811438409899       -1.78549669795158

          :  Hamiltonian                  GFN2-xTB          :
         :: gradient norm              0.000045138586 Eh/a0 ::
         :: HOMO-LUMO gap              2.164858188613 eV    ::
         :: SCC energy              -143.091079789787 Eh    ::
         :: -> dispersion             -0.131151071500 Eh    ::
         :: repulsion energy           2.646867951762 Eh    ::

    * Orbital Energies and Occupations

         #    Occupation            Energy/Eh            Energy/eV
      -------------------------------------------------------------
         1        2.0000           -0.6861994             -18.6724
       ...           ...                  ...                  ...
       119        2.0000           -0.4144372             -11.2774
       120        2.0000           -0.4131183             -11.2415
       121        2.0000           -0.4119317             -11.2092
       122        2.0000           -0.4099101             -11.1542
       123        2.0000           -0.4082942             -11.1103
       124        2.0000           -0.4078076             -11.0970
       125        2.0000           -0.3808456             -10.3633
       126        2.0000           -0.3807799             -10.3615
       127        2.0000           -0.3790636             -10.3148
       128        2.0000           -0.3790531             -10.3146
       129        2.0000           -0.3755391             -10.2189
       130        2.0000           -0.3754795             -10.2173
       131        2.0000           -0.3684592             -10.0263 (HOMO)
       132                         -0.2889021              -7.8614 (LUMO)
       133                         -0.2615814              -7.1180
       134                         -0.2615239              -7.1164
       135                         -0.2427886              -6.6066
       136                         -0.2422526              -6.5920
       137                         -0.2411040              -6.5608
       138                         -0.2410649              -6.5597
       139                         -0.2394705              -6.5163
       140                         -0.2293460              -6.2408
       141                         -0.2285570              -6.2194
       142                         -0.2284849              -6.2174
       ...                                ...                  ...
       258                          0.7066091              19.2278
      -------------------------------------------------------------
                  HL-Gap            0.0795571 Eh            2.1649 eV

     #   Z          covCN         q      C6AA      α(0)
     1   6 C        2.920    -0.028    28.698     8.785
     2   6 C        2.919    -0.029    28.714     8.787
     3   6 C        2.923    -0.032    28.787     8.799
     4   6 C        2.975     0.004    27.935     8.670
     5   6 C        3.180     0.135    24.672     8.108
     6   7 N        1.887    -0.291    28.387     7.899
     7   6 C        3.192     0.067    26.028     8.320
     8   6 C        2.910    -0.042    29.035     8.836
     9   6 C        2.923    -0.039    28.974     8.827
    10   6 C        2.927    -0.037    28.916     8.818
    11   6 C        2.907    -0.051    29.263     8.870
    12   6 C        3.087     0.034    27.139     8.539
    13   7 N        2.826    -0.052    22.241     7.004
    14   6 C        2.913     0.064    26.560     8.451
    15   6 C        2.920    -0.042    29.037     8.837
    16   6 C        2.924    -0.031    28.784     8.798
    17   6 C        2.977     0.015    27.663     8.627
    18   6 C        2.978    -0.006    28.170     8.706
    19   6 C        2.984     0.007    27.861     8.658
    20   6 C        2.917    -0.034    28.843     8.807
    21   6 C        2.914    -0.029    28.717     8.787
    22   6 C        2.914    -0.029    28.718     8.788
    23   6 C        2.917    -0.034    28.845     8.807
    24   6 C        2.984     0.007    27.861     8.658
    25   6 C        2.978    -0.006    28.171     8.706
    26   6 C        2.977     0.015    27.665     8.628
    27   6 C        2.924    -0.030    28.754     8.794
    28   6 C        2.920    -0.040    28.994     8.830
    29   6 C        2.913     0.064    26.560     8.451
    30   7 N        2.826    -0.052    22.241     7.004
    31   6 C        3.180     0.135    24.672     8.109
    32   6 C        2.975     0.004    27.935     8.670
    33   6 C        2.927    -0.027    28.664     8.780
    34   6 C        2.919    -0.027    28.669     8.780
    35   6 C        2.920    -0.028    28.698     8.785
    36   6 C        2.919    -0.029    28.714     8.787
    37   6 C        2.922    -0.032    28.786     8.799
    38   7 N        1.887    -0.291    28.387     7.899
    39   6 C        3.192     0.067    26.029     8.321
    40   6 C        2.910    -0.042    29.035     8.836
    41   6 C        2.923    -0.039    28.974     8.827
    42   6 C        2.927    -0.037    28.916     8.819
    43   6 C        2.907    -0.051    29.263     8.870
    44   6 C        3.087     0.034    27.139     8.539
    45   6 C        2.920    -0.042    29.038     8.837
    46   6 C        2.924    -0.031    28.783     8.798
    47   6 C        2.984     0.007    27.866     8.659
    48   6 C        2.917    -0.034    28.837     8.806
    49   6 C        2.914    -0.029    28.724     8.789
    50   6 C        2.914    -0.029    28.723     8.788
    51   6 C        2.917    -0.034    28.835     8.806
    52   6 C        2.985     0.007    27.866     8.659
    53   6 C        2.924    -0.030    28.754     8.794
    54   6 C        2.921    -0.040    28.993     8.830
    55   6 C        2.927    -0.027    28.664     8.780
    56   6 C        2.919    -0.027    28.669     8.780
    57   1 H        0.926     0.034     2.524     2.484
    58   1 H        0.926     0.032     2.557     2.501
    59   1 H        0.926     0.026     2.639     2.541
    60   1 H        0.926     0.044     2.398     2.422
    61   1 H        0.926     0.032     2.565     2.504
    62   1 H        0.926     0.030     2.582     2.513
    63   1 H        0.926     0.025     2.659     2.550
    64   1 H        0.926     0.043     2.409     2.427
    65   1 H        0.926     0.038     2.475     2.460
    66   1 H        0.926     0.030     2.580     2.512
    67   1 H        0.926     0.032     2.562     2.503
    68   1 H        0.926     0.032     2.562     2.503
    69   1 H        0.926     0.031     2.577     2.511
    70   1 H        0.926     0.038     2.473     2.459
    71   1 H        0.926     0.038     2.469     2.457
    72   1 H        0.926     0.054     2.276     2.359
    73   1 H        0.926     0.037     2.486     2.466
    74   1 H        0.926     0.034     2.524     2.484
    75   1 H        0.926     0.032     2.557     2.500
    76   1 H        0.926     0.026     2.639     2.540
    77   1 H        0.926     0.044     2.398     2.422
    78   1 H        0.926     0.032     2.565     2.504
    79   1 H        0.926     0.030     2.582     2.513
    80   1 H        0.926     0.025     2.659     2.550
    81   1 H        0.926     0.043     2.410     2.427
    82   1 H        0.926     0.038     2.474     2.460
    83   1 H        0.926     0.029     2.594     2.519
    84   1 H        0.926     0.031     2.570     2.507
    85   1 H        0.926     0.031     2.571     2.507
    86   1 H        0.926     0.029     2.596     2.520
    87   1 H        0.926     0.038     2.474     2.460
    88   1 H        0.926     0.039     2.468     2.457
    89   1 H        0.926     0.054     2.276     2.359
    90   1 H        0.926     0.037     2.486     2.466

molecular dipole:
                 x           y           z       tot (Debye)
 q only:        0.003      -0.421      -0.170
   full:        0.001       0.021      -0.039       0.112

 projected vibrational frequencies (cm⁻¹)
eigval :       -0.00    -0.00    -0.00     0.00     0.00     0.00
eigval :       -3.51     3.68     7.67    10.92    15.11    28.88
eigval :       31.40    45.07    50.12    50.73    53.07    60.20
eigval :       60.86    63.98    70.27    83.45    83.75    85.90
eigval :       94.43   105.36   115.21   150.83   168.33   180.37
eigval :      181.22   185.66   188.58   199.77   210.60   226.71
eigval :      245.75   250.02   263.95   284.49   285.97   301.01
eigval :      323.81   332.41   341.53   346.83   372.63   372.84
eigval :      376.99   377.39   381.98   383.71   385.54   403.68
eigval :      405.68   412.06   418.24   423.79   441.68   445.10
eigval :      458.06   460.78   484.78   486.83   492.46   509.04
eigval :      540.10   541.73   546.99   547.27   570.25   578.20
eigval :      580.21   585.84   587.19   587.41   592.95   602.50
eigval :      605.19   614.04   625.06   638.94   646.29   652.04
eigval :      656.67   665.12   668.86   675.62   676.19   684.41
eigval :      692.67   693.02   705.13   710.17   710.92   727.32
eigval :      740.31   754.47   763.77   764.69   773.41   774.82
eigval :      774.84   775.26   813.44   818.07   866.11   866.15
eigval :      868.06   868.15   872.78   874.73   875.38   876.20
eigval :      877.31   877.37   885.30   885.94   898.14   899.82
eigval :      900.10   903.81   903.94   913.56   915.32   915.57
eigval :      916.70   917.15   918.68   922.32   922.38   927.41
eigval :      928.30   928.62   928.84   929.27   929.52   932.22
eigval :      932.24   933.23   968.37   970.77   994.13   998.79
eigval :     1034.22  1036.45  1060.54  1060.59  1079.58  1080.44
eigval :     1081.93  1081.94  1119.61  1119.63  1129.75  1129.94
eigval :     1133.35  1133.87  1134.80  1135.18  1135.39  1146.50
eigval :     1175.03  1175.04  1180.37  1181.28  1181.38  1183.80
eigval :     1186.93  1187.72  1197.95  1198.39  1203.43  1203.89
eigval :     1215.56  1223.61  1227.52  1256.75  1261.66  1262.18
eigval :     1264.52  1266.34  1268.31  1278.97  1279.01  1294.80
eigval :     1294.81  1306.01  1306.56  1317.63  1318.13  1322.33
eigval :     1322.44  1327.12  1350.03  1361.15  1362.95  1364.99
eigval :     1384.45  1385.76  1391.90  1402.86  1403.19  1414.38
eigval :     1414.89  1420.89  1429.90  1432.36  1432.60  1448.71
eigval :     1462.42  1462.60  1476.03  1485.64  1486.75  1500.30
eigval :     1503.24  1527.38  1533.86  1535.45  1535.56  1544.30
eigval :     1562.34  1562.98  1581.08  1581.09  1589.14  1589.17
eigval :     1597.62  1597.79  1598.77  1598.85  1608.72  1616.83
eigval :     1616.98  1623.37  3073.45  3073.48  3074.19  3074.27
eigval :     3074.86  3075.76  3079.43  3079.74  3079.80  3080.11
eigval :     3080.25  3080.30  3081.84  3082.08  3083.95  3084.41
eigval :     3087.10  3087.27  3088.27  3088.91  3091.68  3091.69
eigval :     3093.31  3093.33  3093.69  3093.79  3094.11  3094.89
eigval :     3095.27  3095.82  3107.37  3107.38  3109.31  3109.33

   temp. (K)  partition function   enthalpy   heat capacity  entropy
                                   cal/mol     cal/K/mol   cal/K/mol   J/K/mol
 298.15  VIB  0.209E+23            25746.281    161.523    165.135
         ROT  0.157E+09              888.752      2.981     40.486
         INT  0.329E+31            26635.033    164.504    205.621
         TR   0.185E+29             1481.254      4.968     45.560
         TOT                       28116.2871   169.4722   251.1810  1050.9412

       T/K    H(0)-H(T)+PV         H(T)/Eh          T*S/Eh         G(T)/Eh
   ------------------------------------------------------------------------
    298.15    0.448062E-01    0.735209E+00    0.119344E+00    0.615865E+00
   ------------------------------------------------------------------------

         :::::::::::::::::::::::::::::::::::::::::::::::::::::
         ::                  THERMODYNAMIC                  ::
         :::::::::::::::::::::::::::::::::::::::::::::::::::::
         :: total free energy        -139.828347328274 Eh   ::
         ::.................................................::
         :: total energy             -140.444211838024 Eh   ::
         :: zero point energy           0.690402536852 Eh   ::
         :: G(RRHO) w/o ZPVE           -0.074538027103 Eh   ::
         :: G(RRHO) contrib.            0.615864509750 Eh   ::
         :::::::::::::::::::::::::::::::::::::::::::::::::::::

           -------------------------------------------------
          | TOTAL ENERGY             -140.444211838024 Eh   |
          | TOTAL ENTHALPY           -139.709003145631 Eh   |
          | TOTAL FREE ENERGY        -139.828347328274 Eh   |
          | GRADIENT NORM               0.000045133779 Eh/α |
          | HOMO-LUMO GAP               2.164858179544 eV   |
           -------------------------------------------------

 * finished run on 2025/09/04 at 04:52:15.061
