   * xtb version 6.7.1 (edcfbbe) compiled by 'albert@albert-system' on 2024-07-22

   ID    Z sym.   atoms
    1    6 C      1-5, 7-12, 14-29, 31-37, 39-56
    2    7 N      6, 13, 30, 38
    3    1 H      57-90

          program call               : xtb data2507/gas/BPBiPA/BPBiPA_gas_T1_crest.xyz --gfn 2 --spinpol --tblite --uhf 2 --ohess vtight --parallel 40 --molden --ceasefiles --namespace data2507/gas/BPBiPA/BPBiPA_gas_T1_finalOpt
 * total energy  :  -140.3821602 Eh     change       -0.1835971E-07 Eh
 * total energy  :  -140.3822038 Eh     change       -0.4361697E-04 Eh
 * total energy  :  -140.3822194 Eh     change       -0.1558946E-04 Eh
 * total energy  :  -140.3822267 Eh     change       -0.7345790E-05 Eh
 * total energy  :  -140.3822356 Eh     change       -0.8915546E-05 Eh
 * total energy  :  -140.3822407 Eh     change       -0.5042250E-05 Eh
 * total energy  :  -140.3822446 Eh     change       -0.3921322E-05 Eh
 * total energy  :  -140.3822476 Eh     change       -0.3026190E-05 Eh
 * total energy  :  -140.3822490 Eh     change       -0.1365427E-05 Eh
 * total energy  :  -140.3822500 Eh     change       -0.9904414E-06 Eh
 * total energy  :  -140.3822737 Eh     change       -0.3643804E-06 Eh
 * total energy  :  -140.3822741 Eh     change       -0.4155044E-06 Eh
 * total energy  :  -140.3822745 Eh     change       -0.4804906E-06 Eh
 * total energy  :  -140.3822752 Eh     change       -0.6760420E-06 Eh
 * total energy  :  -140.3822760 Eh     change       -0.8205813E-06 Eh
 * total energy  :  -140.3822772 Eh     change       -0.1164666E-05 Eh
 * total energy  :  -140.3822780 Eh     change       -0.7546256E-06 Eh
 * total energy  :  -140.3822786 Eh     change       -0.6010466E-06 Eh
 * total energy  :  -140.3822786 Eh     change       -0.1495400E-07 Eh
   *** GEOMETRY OPTIMIZATION CONVERGED AFTER 44 ITERATIONS ***

 final structure:
================
90
 xtb: 6.7.1 (edcfbbe)
C           -6.41582175795164       -4.66741815752370        0.05433525868306
C           -5.76519450658782       -3.71137655782041       -0.70804988199810
C           -6.22599470002700       -2.40854828641379       -0.73579700744755
C           -7.34478487809007       -2.04687361043994        0.01299176515707
C           -7.86784531806226       -0.68815911065297        0.01383371049738
N           -9.14120343923097       -0.40807243122715        0.05533083998321
C           -9.23596071320401        0.95427484549804       -0.01226528726152
C          -10.35358424416642        1.78146292755659        0.00026338043288
C          -10.14301242668138        3.14240118512727       -0.06485295123506
C           -8.85737341998656        3.68349777171763       -0.13164635829742
C           -7.73359101671570        2.88166147742609       -0.14655417730785
C           -7.93831728159626        1.51228670078070       -0.10042604699416
N           -7.07479576170119        0.44023785072851       -0.07823204298802
C           -5.67614497584105        0.50294244968849       -0.03993172766304
C           -4.97392383550132       -0.17502956320786        0.95504953476871
C           -3.59735795791943       -0.14872082371289        0.96664133426027
C           -2.88076990035755        0.57085379244480        0.00327269266510
C           -1.42223905028518        0.57209670609750        0.00206361295049
C           -0.70889287849016        1.81172790487512        0.02762082470078
C           -1.36745552234061        3.03726098354963        0.14751231648140
C           -0.67429459589070        4.24496132335042        0.08628043500740
C            0.68965717087297        4.24239338265977       -0.10300488757863
C            1.37828468601390        3.03207391690871       -0.16405569773939
C            0.71514891149233        1.80904691091303       -0.04409100833589
C            1.42409907616558        0.56678874939237       -0.01841464038336
C            2.88253319870190        0.56095897959861       -0.01510187412038
C            3.60055729205183       -0.16110861997734       -0.97555772422739
C            4.97696982456790       -0.19203908738788       -0.95840433838708
C            5.67751958021878        0.48422507246014        0.03889438273833
N            7.07580059284807        0.41671218830593        0.08250340623033
C            7.86485848436481       -0.71482843143145       -0.00473690746559
C            7.33627888075463       -2.07138332451030       -0.00091032945994
C            7.99988472853995       -3.04968731205496       -0.73958008343194
C            7.52925779641961       -4.34835864528169       -0.75717362286056
C            6.39653962579260       -4.68818749146958       -0.03498673364958
C            5.74810139928902       -3.72672708525629        0.72242843607698
C            6.21422676598855       -2.42573263812250        0.74651036154809
N            9.13935463442806       -0.43959770407370       -0.04375389071655
C            9.23897282066163        0.92257264263556        0.02066408002618
C           10.35962009308074        1.74567072281510        0.00884491074005
C           10.15385461383844        3.10751685164356        0.07034902275985
C            8.87006395388473        3.65348104647763        0.13300128024229
C            7.74332514263820        2.85579176079919        0.14700991092186
C            7.94318513815655        1.48559839175446        0.10428897538071
C            4.97923330142638        1.22184065065827        0.99129399626680
C            3.60149718964160        1.26369050649185        0.95737815350571
C            0.71140057704275       -0.67412160103726        0.01453345795200
C            1.37166689118585       -1.90039451779861        0.12052706558105
C            0.67733351313450       -3.10779349206786        0.06853482010942
C           -0.68982364746674       -3.10488402335029       -0.09543076044831
C           -1.37936736831053       -1.89459129439674       -0.14337869374884
C           -0.71410638136574       -0.67129790998236       -0.03434712314767
C           -3.60111624256598        1.27524406787361       -0.96687993199327
C           -4.97912024262139        1.23752964696539       -0.99559061759975
C           -8.01077096194423       -3.01980475546803        0.75662299224448
C           -7.54550950625147       -4.32034468658790        0.77781598873607
H           -6.04911886337258       -5.68304649257659        0.07563678439398
H           -4.89656195793935       -3.98268543184167       -1.29044004990557
H           -5.72694149298566       -1.67896013176065       -1.35670357249800
H          -11.34363112363677        1.35988371889523        0.06404080043971
H          -10.98981814240651        3.81270921598648       -0.05769438732145
H           -8.74036940167479        4.75641148783546       -0.17089191757565
H           -6.74059609942263        3.30439747777190       -0.18656101463475
H           -5.51749317498564       -0.72252461470156        1.71070037542212
H           -3.05839910548136       -0.66378826215718        1.74792129223790
H           -2.43602088506810        3.05422681216753        0.29730971738215
H           -1.21574115430568        5.17486344714110        0.17396114701509
H            1.23459995434091        5.17023543053123       -0.19082049146559
H            2.44691424139071        3.04503458686630       -0.31382154679375
H            3.06308206845945       -0.67428335327501       -1.75909889401254
H            5.52176260591653       -0.74175865881904       -1.71156663627899
H            8.88227835959909       -2.76864520188780       -1.29289131257086
H            8.04593602717885       -5.09944322416881       -1.33622149237223
H            6.02573670854301       -5.70238273614802       -0.05341260583985
H            4.87707603587834       -3.99233409815136        1.30387769869725
H            5.71677043381727       -1.69187156907911        1.36364806913530
H           11.34827965182550        1.32036809342003       -0.05164978559123
H           11.00312127602812        3.77470982831668        0.06362127086501
H            8.75691805435577        4.72689648495209        0.16974450394934
H            6.75176547004737        3.28216234506688        0.18394239329665
H            5.52275604996438        1.73553131123242        1.77057812097575
H            3.06381342580450        1.80917499802257        1.71898529431290
H            2.44307268524644       -1.92061199922343        0.24909384862591
H            1.22095656892867       -4.03760298715914        0.14324513031828
H           -1.23706227337508       -4.03232718065908       -0.17307616638216
H           -2.45095231981446       -1.90999173742987       -0.27118981926039
H           -3.06463393517188        1.81859952916236       -1.73085301090455
H           -5.52395210156541        1.75223509699331       -1.77328432260071
H           -8.89074298840312       -2.73310387195547        1.31089090751514
H           -8.06405860476339       -5.06721560711009        1.36063240055673

 projected vibrational frequencies (cm⁻¹)
eigval :       -0.00    -0.00     0.00     0.00     0.00     0.00
eigval :        7.89     7.96     9.68    14.42    21.17    32.28
eigval :       34.93    38.45    53.66    54.14    57.79    60.31
eigval :       69.58    71.48    74.42    79.92    87.55    92.03
eigval :      105.68   114.56   141.85   155.47   168.89   183.73
eigval :      185.34   185.82   206.68   208.40   218.79   230.07
eigval :      250.14   253.70   263.02   285.12   286.47   302.82
eigval :      321.53   332.57   341.77   353.18   366.68   372.13
eigval :      373.73   376.59   379.15   379.74   385.31   388.11
eigval :      405.90   407.81   413.89   420.75   421.41   426.20
eigval :      463.95   471.38   484.45   485.94   495.31   509.15
eigval :      539.67   541.72   546.95   547.23   564.73   570.80
eigval :      574.74   576.34   585.59   586.48   587.82   597.21
eigval :      601.21   615.78   616.84   625.91   640.86   652.88
eigval :      655.66   664.81   667.49   673.46   676.21   676.48
eigval :      685.75   688.81   699.18   709.58   710.62   716.59
eigval :      723.97   747.63   751.27   761.05   764.21   764.67
eigval :      774.57   774.61   817.24   821.33   845.38   849.93
eigval :      865.73   866.02   866.65   868.02   873.22   877.34
eigval :      877.95   879.20   885.06   885.48   890.67   893.00
eigval :      894.53   899.98   900.37   904.71   904.93   906.15
eigval :      906.64   911.39   913.60   921.73   921.88   925.60
eigval :      926.89   929.95   929.98   932.46   932.47   935.56
eigval :      935.80   945.83   967.34   969.47   992.15   995.45
eigval :     1031.93  1033.69  1060.67  1060.70  1081.90  1081.91
eigval :     1101.38  1105.77  1114.26  1119.85  1119.90  1125.78
eigval :     1131.13  1131.22  1133.60  1133.71  1136.89  1136.97
eigval :     1174.56  1174.57  1181.11  1181.14  1181.15  1181.37
eigval :     1182.54  1188.54  1191.49  1192.16  1197.69  1197.83
eigval :     1208.61  1209.34  1232.54  1253.83  1256.84  1261.00
eigval :     1261.53  1268.17  1269.16  1278.80  1278.88  1292.93
eigval :     1293.41  1296.47  1297.33  1307.55  1309.83  1316.88
eigval :     1318.24  1321.50  1321.57  1334.42  1362.49  1362.56
eigval :     1364.58  1369.43  1377.39  1382.47  1384.75  1407.44
eigval :     1408.68  1408.84  1413.52  1413.66  1427.25  1431.47
eigval :     1431.54  1461.79  1461.94  1470.96  1478.46  1482.93
eigval :     1486.33  1488.49  1490.85  1519.36  1531.03  1533.74
eigval :     1534.36  1540.96  1541.25  1558.25  1576.43  1579.06
eigval :     1580.41  1580.45  1588.77  1588.79  1597.78  1597.80
eigval :     1615.71  1615.81  3073.04  3073.05  3074.47  3074.49
eigval :     3078.75  3079.35  3079.37  3079.56  3080.50  3080.52
eigval :     3081.39  3081.46  3083.05  3083.10  3086.15  3086.41
eigval :     3086.69  3087.43  3091.83  3091.86  3092.52  3092.64
eigval :     3093.05  3093.11  3093.73  3094.25  3095.11  3096.17
eigval :     3098.66  3100.02  3106.73  3106.75  3109.41  3109.45

   temp. (K)  partition function   enthalpy   heat capacity  entropy
                                   cal/mol     cal/K/mol   cal/K/mol   J/K/mol
 298.15  VIB  0.753E+21            25666.031    162.738    161.493
         ROT  0.780E+08              888.752      2.981     39.093
         INT  0.587E+29            26554.783    165.719    200.586
         TR   0.185E+29             1481.254      4.968     45.560
         TOT                       28036.0373   170.6870   246.1462  1029.8755

       T/K    H(0)-H(T)+PV         H(T)/Eh          T*S/Eh         G(T)/Eh
   ------------------------------------------------------------------------
    298.15    0.446783E-01    0.732989E+00    0.116952E+00    0.616037E+00
   ------------------------------------------------------------------------

         :::::::::::::::::::::::::::::::::::::::::::::::::::::
         ::                  THERMODYNAMIC                  ::
         :::::::::::::::::::::::::::::::::::::::::::::::::::::
         :: total free energy        -139.766241883770 Eh   ::
         ::.................................................::
         :: total energy             -140.382278578276 Eh   ::
         :: zero point energy           0.688310408190 Eh   ::
         :: G(RRHO) w/o ZPVE           -0.072273713683 Eh   ::
         :: G(RRHO) contrib.            0.616036694506 Eh   ::
         :::::::::::::::::::::::::::::::::::::::::::::::::::::

           -------------------------------------------------
          | TOTAL ENERGY             -140.382278578276 Eh   |
          | TOTAL ENTHALPY           -139.649289900692 Eh   |
          | TOTAL FREE ENERGY        -139.766241883770 Eh   |
          | GRADIENT NORM               0.000038332267 Eh/α |
           -------------------------------------------------

 * finished run on 2025/09/04 at 05:02:51.390
