   * xtb version 6.7.1 (edcfbbe) compiled by 'albert@albert-system' on 2024-07-22

   ID    Z sym.   atoms
    1    6 C      1-5, 7-12, 14-29, 31-37, 39-56
    2    7 N      6, 13, 30, 38
    3    1 H      57-90

          program call               : xtb data2507/gas/BPBiPA/BPBiPA_gas_S0_crest.xyz --gfn 2 --ohess vtight --parallel 40 --molden --ceasefiles --namespace data2507/gas/BPBiPA/BPBiPA_gas_S0_finalOpt
          :  Hamiltonian                  GFN2-xTB          :
 * total energy  :  -140.4451311 Eh     change       -0.7663630E-08 Eh
 * total energy  :  -140.4451330 Eh     change       -0.1894582E-05 Eh
 * total energy  :  -140.4451349 Eh     change       -0.1934873E-05 Eh
 * total energy  :  -140.4451404 Eh     change       -0.5486855E-05 Eh
 * total energy  :  -140.4451461 Eh     change       -0.5737242E-05 Eh
 * total energy  :  -140.4451508 Eh     change       -0.4644792E-05 Eh
 * total energy  :  -140.4451565 Eh     change       -0.5705221E-05 Eh
 * total energy  :  -140.4451651 Eh     change       -0.8586088E-05 Eh
 * total energy  :  -140.4451736 Eh     change       -0.8531956E-05 Eh
 * total energy  :  -140.4451786 Eh     change       -0.4996938E-05 Eh
 * total energy  :  -140.4452912 Eh     change       -0.3745708E-06 Eh
 * total energy  :  -140.4452917 Eh     change       -0.5325116E-06 Eh
 * total energy  :  -140.4452923 Eh     change       -0.5892352E-06 Eh
 * total energy  :  -140.4452928 Eh     change       -0.5357059E-06 Eh
 * total energy  :  -140.4452934 Eh     change       -0.5587985E-06 Eh
 * total energy  :  -140.4452941 Eh     change       -0.7311411E-06 Eh
 * total energy  :  -140.4452950 Eh     change       -0.8908837E-06 Eh
 * total energy  :  -140.4452960 Eh     change       -0.9986432E-06 Eh
 * total energy  :  -140.4452960 Eh     change       -0.6520906E-08 Eh
   *** GEOMETRY OPTIMIZATION CONVERGED AFTER 68 ITERATIONS ***

 final structure:
================
90
 xtb: 6.7.1 (edcfbbe)
C           -6.36176509179346       -4.57763968582745        0.99483643703214
C           -5.70207528047889       -3.78730411968708        0.06823157064724
C           -6.17482686528837       -2.52423039191044       -0.23444623045732
C           -7.31516850998356       -2.03415887491211        0.39994511502619
C           -7.85121107220197       -0.71146211733125        0.11194489266103
N           -9.12781459768865       -0.44613723843215        0.07021338643086
C           -9.23314836011499        0.87228953411160       -0.27638048486224
C          -10.35811755889370        1.66944674057859       -0.45775896484878
C          -10.15798964248403        2.99048015701645       -0.79693678240018
C           -8.87587377562016        3.52345261155456       -0.94728079374984
C           -7.74503925329448        2.75100430518236       -0.77323175491586
C           -7.93896386000044        1.41800441785063       -0.44980711894487
N           -7.06691130260971        0.38449411483145       -0.19270213187906
C           -5.66818809378908        0.47303853131490       -0.13657034794681
C           -4.99035294104323        0.04171994749023        1.00013267966283
C           -3.61187948639150        0.08824861395537        1.03734529363476
C           -2.88747937905457        0.57763730537048       -0.04684737114400
C           -1.41101474561928        0.58732959796633       -0.01846366600950
C           -0.71706820769189        1.80528465805998       -0.00151289893530
C           -1.39503721598628        3.05229215236111        0.03563629501455
C           -0.71090828813474        4.22834526516359        0.02419192131143
C            0.69712660651425        4.23091900277687       -0.03166412528339
C            1.38565389555108        3.05741309650541       -0.04108288264054
C            0.71234422547350        1.80794885699147       -0.00177646793625
C            1.41081545933070        0.59263284084664        0.01763558617183
C            2.88735655529157        0.58834324851970        0.04569635113249
C            3.61330035573849        0.10060011181812       -1.03819714862340
C            4.99192790948374        0.05849379151947       -1.00099004683174
C            5.66846890742703        0.49257650468956        0.13544925301273
N            7.06737059246357        0.40706131675018        0.19210076004623
C            7.85334525084798       -0.68810385463738       -0.11111365216736
C            7.31898918699426       -2.01134617967218       -0.39992176395751
C            7.99297712277645       -2.81974147022073       -1.31380476100196
C            7.51700878296941       -4.08210998375485       -1.61084427401315
C            6.36834814470369       -4.55523885695501       -0.99700822465147
C            5.70899000776638       -3.76725045822393       -0.06816397464031
C            6.18034461020829       -2.50390155533340        0.23555272537849
N            9.12955784334922       -0.42142317388008       -0.06776347901144
C            9.23296486753250        0.89721878710957        0.27861205431666
C           10.35694801906985        1.69539055340142        0.46148795843594
C           10.15513650061999        3.01631606022033        0.80006270496045
C            8.87228379619776        3.54809875324398        0.94828596296161
C            7.74238855834895        2.77456381549439        0.77282191966946
C            7.93794922638172        1.44163351093439        0.45006083379855
C            4.95422896972429        1.00275566800042        1.21410819919912
C            3.57439065504029        1.05128330220107        1.16401189214834
C            0.71679170083226       -0.62654622689220        0.01868377440329
C            1.39374013272095       -1.87394992260864        0.07189586564515
C            0.70982128867802       -3.04992353429729        0.04717305979971
C           -0.69653525400287       -3.05267257056926       -0.03712638792839
C           -1.38477549351685       -1.87932324026762       -0.06599640645585
C           -0.71247289596694       -0.62926281170766       -0.01634303208180
C           -3.57590653741947        1.03735275174771       -1.16564406963565
C           -4.95557377853396        0.98448058505253       -1.21570342965779
C           -7.98935318359906       -2.84488763469661        1.31166212601237
C           -7.51207703926122       -4.10703204551363        1.60753602261966
H           -5.98575663018736       -5.56223361883877        1.23066535930557
H           -4.81671987012068       -4.15863690024518       -0.42728273297093
H           -5.66813514132962       -1.92906303277266       -0.98004241611560
H          -11.34566575342843        1.25654111985292       -0.33021590836640
H          -11.01055967878334        3.63657691317610       -0.94581200943422
H           -8.76766587225643        4.56669700060135       -1.20487794474959
H           -6.75485910537522        3.16902670197294       -0.87970152927416
H           -5.54943491734779       -0.33843732715886        1.84212038485405
H           -3.08485588493509       -0.25253288956731        1.91632567515402
H           -2.47401456134772        3.05151737065277        0.07823444277847
H           -1.24099686094197        5.16885900829721        0.05352781404008
H            1.22367967426274        5.17336416130960       -0.06251190756743
H            2.46463756628499        3.06058577148861       -0.08344584828509
H            3.08738071748376       -0.24256155546029       -1.91691364099518
H            5.55211120730350       -0.32044711239663       -1.84279284086204
H            8.88778327155688       -2.43713552373326       -1.77931234442094
H            8.04199704260860       -4.70042630356869       -2.32391413692971
H            5.99335883725598       -5.53999992804224       -1.23373965886065
H            4.82504071104968       -4.14068168565217        0.42827451945942
H            5.67398359677422       -1.91039748916078        0.98271278936896
H           11.34501263498324        1.28321125227817        0.33557881778872
H           11.00689104167338        3.66322004926427        0.95011166117561
H            8.76273387707065        4.59131655961043        1.20541728294980
H            6.75171211185643        3.19179359289279        0.87774091012889
H            5.48276950567991        1.33584715658741        2.09506067066757
H            3.01791105806297        1.43140601151376        2.00834348061236
H            2.47183583500871       -1.87567819210300        0.13375943929680
H            1.23934811894861       -3.99039906793787        0.08740727527523
H           -1.22261547490726       -3.99521499982690       -0.07415843218070
H           -2.46283278373839       -1.88525949025936       -0.12823128270573
H           -3.02059640230901        1.41867239310352       -2.01020665924682
H           -5.48519148824625        1.31528167004665       -2.09687402804480
H           -8.88539485152886       -2.46423548867277        1.77638406689871
H           -8.03731946697362       -4.72717949324277        2.31882958062629

          :  Hamiltonian                  GFN2-xTB          :
         :: gradient norm              0.000052687209 Eh/a0 ::
         :: HOMO-LUMO gap              2.095647777648 eV    ::
         :: SCC energy              -143.091060685614 Eh    ::
         :: -> dispersion             -0.132542864418 Eh    ::
         :: repulsion energy           2.645764678167 Eh    ::

    * Orbital Energies and Occupations

         #    Occupation            Energy/Eh            Energy/eV
      -------------------------------------------------------------
         1        2.0000           -0.6864437             -18.6791
       ...           ...                  ...                  ...
       119        2.0000           -0.4138755             -11.2621
       120        2.0000           -0.4124454             -11.2232
       121        2.0000           -0.4115307             -11.1983
       122        2.0000           -0.4099421             -11.1551
       123        2.0000           -0.4081150             -11.1054
       124        2.0000           -0.4078748             -11.0988
       125        2.0000           -0.3816178             -10.3843
       126        2.0000           -0.3807723             -10.3613
       127        2.0000           -0.3794956             -10.3266
       128        2.0000           -0.3794546             -10.3255
       129        2.0000           -0.3759895             -10.2312
       130        2.0000           -0.3757636             -10.2250
       131        2.0000           -0.3670659              -9.9884 (HOMO)
       132                         -0.2900522              -7.8927 (LUMO)
       133                         -0.2616497              -7.1199
       134                         -0.2613473              -7.1116
       135                         -0.2425351              -6.5997
       136                         -0.2421763              -6.5900
       137                         -0.2411717              -6.5626
       138                         -0.2411562              -6.5622
       139                         -0.2393619              -6.5134
       140                         -0.2293513              -6.2410
       141                         -0.2290021              -6.2315
       142                         -0.2286309              -6.2214
       ...                                ...                  ...
       258                          0.7069850              19.2380
      -------------------------------------------------------------
                  HL-Gap            0.0770136 Eh            2.0956 eV

     #   Z          covCN         q      C6AA      α(0)
     1   6 C        2.920    -0.028    28.698     8.785
     2   6 C        2.919    -0.028    28.712     8.787
     3   6 C        2.923    -0.032    28.789     8.799
     4   6 C        2.975     0.004    27.931     8.669
     5   6 C        3.181     0.135    24.668     8.108
     6   7 N        1.886    -0.290    28.379     7.897
     7   6 C        3.193     0.067    26.024     8.319
     8   6 C        2.910    -0.042    29.032     8.835
     9   6 C        2.923    -0.039    28.973     8.827
    10   6 C        2.927    -0.037    28.915     8.818
    11   6 C        2.907    -0.051    29.260     8.870
    12   6 C        3.086     0.034    27.139     8.540
    13   7 N        2.826    -0.051    22.232     7.003
    14   6 C        2.913     0.064    26.560     8.451
    15   6 C        2.920    -0.040    29.003     8.832
    16   6 C        2.924    -0.030    28.752     8.793
    17   6 C        2.977     0.015    27.679     8.630
    18   6 C        2.977    -0.006    28.174     8.707
    19   6 C        2.984     0.007    27.861     8.658
    20   6 C        2.917    -0.034    28.857     8.809
    21   6 C        2.914    -0.029    28.727     8.789
    22   6 C        2.914    -0.029    28.727     8.789
    23   6 C        2.917    -0.034    28.857     8.809
    24   6 C        2.984     0.007    27.861     8.658
    25   6 C        2.977    -0.006    28.174     8.707
    26   6 C        2.977     0.015    27.679     8.630
    27   6 C        2.924    -0.030    28.751     8.793
    28   6 C        2.920    -0.040    29.003     8.832
    29   6 C        2.913     0.064    26.561     8.451
    30   7 N        2.826    -0.051    22.232     7.003
    31   6 C        3.181     0.135    24.667     8.107
    32   6 C        2.975     0.004    27.930     8.669
    33   6 C        2.927    -0.026    28.661     8.780
    34   6 C        2.919    -0.027    28.669     8.780
    35   6 C        2.920    -0.028    28.698     8.785
    36   6 C        2.919    -0.028    28.712     8.787
    37   6 C        2.923    -0.032    28.788     8.799
    38   7 N        1.886    -0.290    28.379     7.897
    39   6 C        3.193     0.067    26.023     8.319
    40   6 C        2.910    -0.042    29.032     8.835
    41   6 C        2.923    -0.039    28.973     8.827
    42   6 C        2.927    -0.037    28.915     8.818
    43   6 C        2.907    -0.051    29.260     8.870
    44   6 C        3.086     0.034    27.139     8.540
    45   6 C        2.920    -0.042    29.047     8.838
    46   6 C        2.924    -0.031    28.784     8.798
    47   6 C        2.984     0.007    27.863     8.659
    48   6 C        2.917    -0.035    28.861     8.810
    49   6 C        2.914    -0.029    28.727     8.789
    50   6 C        2.914    -0.029    28.727     8.789
    51   6 C        2.917    -0.035    28.861     8.810
    52   6 C        2.984     0.007    27.863     8.659
    53   6 C        2.924    -0.031    28.784     8.798
    54   6 C        2.920    -0.042    29.047     8.838
    55   6 C        2.927    -0.026    28.662     8.780
    56   6 C        2.919    -0.027    28.669     8.780
    57   1 H        0.926     0.034     2.524     2.485
    58   1 H        0.926     0.032     2.564     2.504
    59   1 H        0.926     0.027     2.633     2.538
    60   1 H        0.926     0.044     2.397     2.421
    61   1 H        0.926     0.032     2.564     2.504
    62   1 H        0.926     0.030     2.581     2.512
    63   1 H        0.926     0.025     2.660     2.550
    64   1 H        0.926     0.038     2.473     2.459
    65   1 H        0.926     0.039     2.464     2.454
    66   1 H        0.926     0.031     2.568     2.506
    67   1 H        0.926     0.031     2.568     2.506
    68   1 H        0.926     0.031     2.568     2.506
    69   1 H        0.926     0.031     2.568     2.506
    70   1 H        0.926     0.039     2.464     2.455
    71   1 H        0.926     0.038     2.473     2.459
    72   1 H        0.926     0.053     2.283     2.363
    73   1 H        0.926     0.037     2.485     2.465
    74   1 H        0.926     0.034     2.524     2.485
    75   1 H        0.926     0.032     2.564     2.504
    76   1 H        0.926     0.027     2.633     2.538
    77   1 H        0.926     0.044     2.397     2.421
    78   1 H        0.926     0.032     2.564     2.504
    79   1 H        0.926     0.030     2.581     2.512
    80   1 H        0.926     0.025     2.660     2.550
    81   1 H        0.926     0.043     2.412     2.429
    82   1 H        0.926     0.039     2.463     2.454
    83   1 H        0.926     0.031     2.569     2.506
    84   1 H        0.926     0.030     2.582     2.513
    85   1 H        0.926     0.030     2.582     2.513
    86   1 H        0.926     0.031     2.569     2.506
    87   1 H        0.926     0.039     2.463     2.454
    88   1 H        0.926     0.043     2.412     2.429
    89   1 H        0.926     0.053     2.282     2.362
    90   1 H        0.926     0.037     2.485     2.465

molecular dipole:
                 x           y           z       tot (Debye)
 q only:       -0.000      -0.304      -0.001
   full:       -0.000       0.157      -0.001       0.399

 projected vibrational frequencies (cm⁻¹)
eigval :       -0.00    -0.00     0.00     0.00     0.00     0.00
eigval :        7.83     8.13     9.52    14.38    16.97    30.53
eigval :       38.04    40.81    53.16    53.27    56.51    59.39
eigval :       66.68    67.71    75.86    81.10    86.73    88.27
eigval :       98.65   114.52   118.59   152.83   170.05   182.31
eigval :      184.40   185.63   198.97   205.00   212.87   226.73
eigval :      247.16   249.04   263.46   285.56   286.20   302.20
eigval :      322.66   338.90   342.51   351.95   373.83   373.88
eigval :      379.06   379.58   382.14   383.61   390.55   392.06
eigval :      407.39   410.40   418.63   424.19   445.06   447.85
eigval :      458.92   461.70   484.80   487.16   492.79   512.73
eigval :      540.15   541.73   547.09   547.48   571.49   577.52
eigval :      580.11   585.93   586.51   589.93   592.69   602.36
eigval :      602.78   617.71   621.60   640.60   645.24   653.04
eigval :      656.78   665.01   668.84   676.29   676.66   684.55
eigval :      692.66   693.84   705.06   710.12   710.88   727.16
eigval :      740.77   754.24   764.22   765.07   774.48   774.65
eigval :      774.98   776.17   816.17   820.14   865.91   865.96
eigval :      867.85   868.05   873.44   874.77   876.59   877.79
eigval :      878.29   880.20   885.64   886.31   898.16   899.78
eigval :      899.95   904.66   904.73   913.49   914.81   916.19
eigval :      918.37   918.54   921.78   922.44   923.49   927.31
eigval :      928.87   929.75   929.81   931.83   932.29   932.44
eigval :      932.50   932.95   968.29   970.78   994.00   998.55
eigval :     1034.14  1036.36  1060.52  1060.56  1081.79  1081.83
eigval :     1082.23  1084.60  1119.79  1119.80  1130.62  1130.67
eigval :     1133.48  1133.81  1134.99  1135.53  1135.77  1146.67
eigval :     1175.01  1175.03  1181.31  1181.34  1181.95  1185.28
eigval :     1187.72  1188.84  1198.08  1198.46  1203.67  1204.02
eigval :     1216.72  1224.24  1229.85  1258.31  1260.72  1262.42
eigval :     1263.35  1267.17  1269.58  1279.15  1279.15  1294.18
eigval :     1294.19  1308.14  1308.61  1317.42  1318.00  1321.68
eigval :     1321.75  1325.10  1350.05  1360.76  1362.91  1364.96
eigval :     1384.27  1384.79  1391.77  1403.33  1404.45  1414.27
eigval :     1414.96  1419.87  1429.20  1432.14  1432.38  1445.98
eigval :     1462.71  1462.83  1475.63  1485.47  1486.64  1499.29
eigval :     1501.78  1527.32  1529.84  1536.64  1536.81  1542.13
eigval :     1561.86  1562.09  1580.99  1581.02  1589.23  1589.25
eigval :     1596.19  1596.36  1598.56  1598.59  1608.61  1617.13
eigval :     1617.29  1622.76  3073.18  3073.22  3073.74  3073.77
eigval :     3075.32  3076.27  3079.40  3079.42  3080.37  3080.38
eigval :     3081.21  3081.28  3081.67  3082.32  3083.84  3084.28
eigval :     3086.44  3086.51  3090.74  3091.31  3091.75  3091.77
eigval :     3092.88  3092.92  3093.56  3093.66  3095.00  3095.36
eigval :     3095.45  3096.52  3106.84  3106.90  3109.35  3109.39

   temp. (K)  partition function   enthalpy   heat capacity  entropy
                                   cal/mol     cal/K/mol   cal/K/mol   J/K/mol
 298.15  VIB  0.116E+22            25614.496    161.754    161.907
         ROT  0.776E+08              888.752      2.981     39.083
         INT  0.901E+29            26503.248    164.735    200.990
         TR   0.185E+29             1481.254      4.968     45.560
         TOT                       27984.5019   169.7030   246.5503  1031.5663

       T/K    H(0)-H(T)+PV         H(T)/Eh          T*S/Eh         G(T)/Eh
   ------------------------------------------------------------------------
    298.15    0.445961E-01    0.735367E+00    0.117144E+00    0.618223E+00
   ------------------------------------------------------------------------

         :::::::::::::::::::::::::::::::::::::::::::::::::::::
         ::                  THERMODYNAMIC                  ::
         :::::::::::::::::::::::::::::::::::::::::::::::::::::
         :: total free energy        -139.827072795561 Eh   ::
         ::.................................................::
         :: total energy             -140.445296007447 Eh   ::
         :: zero point energy           0.690771057571 Eh   ::
         :: G(RRHO) w/o ZPVE           -0.072547845685 Eh   ::
         :: G(RRHO) contrib.            0.618223211886 Eh   ::
         :::::::::::::::::::::::::::::::::::::::::::::::::::::

           -------------------------------------------------
          | TOTAL ENERGY             -140.445296007447 Eh   |
          | TOTAL ENTHALPY           -139.709928807360 Eh   |
          | TOTAL FREE ENERGY        -139.827072795561 Eh   |
          | GRADIENT NORM               0.000052702391 Eh/α |
          | HOMO-LUMO GAP               2.095647757916 eV   |
           -------------------------------------------------

 * finished run on 2025/09/04 at 04:57:51.499
