   * xtb version 6.7.1 (edcfbbe) compiled by 'albert@albert-system' on 2024-07-22

   ID    Z sym.   atoms
    1    6 C      1-7, 9-20, 22-27, 29-40, 42-46, 48-55, 57-62, 64-71, 73-91,
                  93, 94
    2    8 O      8, 28, 56, 72
    3    7 N      21, 41, 47, 63, 92
    4    1 H      95-167

          program call               : xtb data2507/gas/DVCz-2CzCN/DVCz-2CzCN.xyz --gfn 2 --ohess vtight --parallel 40 --molden --ceasefiles --namespace data2507/gas/DVCz-2CzCN/DVCz-2CzCN_gas_S0_preOpt
          :  Hamiltonian                  GFN2-xTB          :
 * total energy  :  -250.1616553 Eh     change       -0.5464017E-08 Eh
 * total energy  :  -250.1888768 Eh     change       -0.2722151E-01 Eh
 * total energy  :  -250.1963502 Eh     change       -0.7473369E-02 Eh
 * total energy  :  -250.1981532 Eh     change       -0.1803009E-02 Eh
 * total energy  :  -250.1993373 Eh     change       -0.1184069E-02 Eh
 * total energy  :  -250.1999538 Eh     change       -0.6165129E-03 Eh
 * total energy  :  -250.2004307 Eh     change       -0.4769637E-03 Eh
 * total energy  :  -250.2009094 Eh     change       -0.4786484E-03 Eh
 * total energy  :  -250.2014075 Eh     change       -0.4981035E-03 Eh
 * total energy  :  -250.2018893 Eh     change       -0.4818112E-03 Eh
 * total energy  :  -250.2144221 Eh     change       -0.1575867E-05 Eh
 * total energy  :  -250.2144238 Eh     change       -0.1667971E-05 Eh
 * total energy  :  -250.2144255 Eh     change       -0.1697912E-05 Eh
 * total energy  :  -250.2144272 Eh     change       -0.1732695E-05 Eh
 * total energy  :  -250.2144289 Eh     change       -0.1632151E-05 Eh
 * total energy  :  -250.2144304 Eh     change       -0.1501117E-05 Eh
 * total energy  :  -250.2144318 Eh     change       -0.1452325E-05 Eh
 * total energy  :  -250.2144335 Eh     change       -0.1648985E-05 Eh
 * total energy  :  -250.2144335 Eh     change       -0.5687156E-08 Eh
   *** GEOMETRY OPTIMIZATION CONVERGED AFTER 340 ITERATIONS ***

 final structure:
================
167
 xtb: 6.7.1 (edcfbbe)
C          -16.00069001127650        8.09776034477075       -2.07176983300481
C          -15.33232383784460        7.15873547599749       -1.41301818028763
C          -15.42164946259297        5.71832828256492       -1.61845397906757
C          -14.77589556444779        4.86538161599492       -0.72247200509162
C          -14.84182571178293        3.49393658133374       -0.86560792106651
C          -15.54499886139143        2.93245992543415       -1.92228296393927
C          -15.64187427288657        1.43461652091457       -2.07957082023190
O          -14.62137623565778        0.71456924725253       -1.43040677340220
C          -13.35013270581395        0.79445113107586       -1.91756604629223
C          -12.94784106555214        1.55190431371030       -3.00646241224492
C          -11.62046004668344        1.54045682908472       -3.43049527334526
C          -10.65112102703313        0.79042995638087       -2.79913445558109
C          -11.03982056706372        0.03576760901598       -1.69819844227906
C          -12.38084631936861        0.03275321919617       -1.25405786760616
C          -12.43672914023617       -0.84063062699720       -0.11929717273105
C          -13.45723692888057       -1.24277315880959        0.73267252290631
C          -13.15645189708848       -2.12506255809165        1.75098634230498
C          -11.86135247765006       -2.60988394412926        1.92163219098711
C          -10.83100573977665       -2.22467436382811        1.08545226288997
C          -11.12159620539412       -1.32845544785292        0.06595996720936
N          -10.29227183306839       -0.77701640684398       -0.88211834107868
C           -8.89459805359157       -1.08588311104749       -1.01574560175338
C           -8.67155401187908       -2.42472954292502       -1.73208031085750
C           -7.26144283636003       -2.95732352746948       -1.49609753185696
C           -7.05670407007107       -4.33997326158016       -2.11556782051866
C           -5.81925451176647       -5.05715982324847       -1.57118657648519
C           -5.98268403890643       -5.50415164971343       -0.11287293049130
O           -5.84685497431591       -4.44933815109013        0.81770432548624
C           -4.61480834292694       -3.94631116842537        1.09659640678055
C           -3.39957073370829       -4.52743587097974        0.76230035387320
C           -2.19875511317572       -3.95557342276171        1.16940213189632
C           -2.14915803858397       -2.77339087099617        1.87866981766165
C           -3.35446579759524       -2.14760804950016        2.16009129647465
C           -4.58339472333718       -2.74134433392860        1.81140555914134
C           -5.62002421774274       -1.88063767788193        2.30708559511842
C           -7.00705397695310       -1.94379593101266        2.28571577337083
C           -7.72776085646549       -0.89801031787664        2.82823827624513
C           -7.07986841470210        0.20559216025128        3.37644026684237
C           -5.70026115327239        0.27800803253590        3.43236320383118
C           -4.97364294290405       -0.78552923778420        2.91887499803928
N           -3.60059207882356       -0.96046376584421        2.83190808695291
C           -2.65724607255753       -0.11858737596976        3.41573408383593
C           -2.84331094888457        0.31267500048128        4.72703664747421
C           -1.94070230185698        1.17680824837503        5.31807373837264
C           -0.81444747503348        1.59490812733508        4.63235839949890
C           -0.58724634889369        1.15815613917782        3.33249093098855
N            0.57350238890218        1.54963696324664        2.66350177961145
C            1.03704585442266        2.84906120815104        2.55695554256594
C            0.40610622205452        4.03776825383090        2.88793471452147
C            1.08764442237710        5.21573431608743        2.64387003807527
C            2.35962532422674        5.21382854485110        2.07693785300544
C            2.98396912255511        4.03238453281703        1.72785942118372
C            2.31952867316023        2.83706273202626        1.96711309096451
C            2.64885057992768        1.45852566149999        1.73820567376401
C            3.80555963387866        0.82482112284668        1.26492691670054
O            4.84031137754849        1.63552879390695        0.91838044438245
C            6.11366859927439        1.07395915197184        0.67901137312281
C            6.29422165429162        0.57995577523752       -0.76041650574540
C            7.53688518637190       -0.29644707431348       -0.92282882584185
C            8.85896184603210        0.43645326827536       -0.68037720485269
C            9.26392946080390        1.36576596840056       -1.82636886724563
C            9.91926638166701        0.61459101430790       -2.99377821939446
N           11.20030102781319        0.07381570415319       -2.62767288252646
C           12.35375417048569        0.81289215108891       -2.51447833457128
C           12.57286634917429        2.15307254055702       -2.80324741232769
C           13.85169619546279        2.64968964681449       -2.64227616200910
C           14.89692632894947        1.83370706673334       -2.21647952950672
C           14.68814228798276        0.50055418395879       -1.92638826553429
C           13.40451592140277       -0.01772789259823       -2.05635041214314
C           12.82971789121263       -1.32110305812242       -1.86492715023970
C           13.32836644069998       -2.55144732433056       -1.42412585181859
O           14.63129598977474       -2.71679782096677       -1.01239414618864
C           14.96528716678215       -2.05162956767808        0.19448289502926
C           16.41191207565000       -1.63718111657525        0.20572543296022
C           16.84505018663024       -0.65278559014769        1.08767185165480
C           18.16960819704482       -0.26980240303063        1.12000498243315
C           19.10622684796389       -0.85585253221631        0.26619167607318
C           20.51619607629777       -0.48671288459992        0.25728468276697
C           21.11649544711626        0.38692176503043        1.05687201928446
C           18.65873527527934       -1.83842084577681       -0.61819121536042
C           17.33409620679214       -2.22771457350670       -0.64681410156807
C           12.48389485865488       -3.64998535676337       -1.42963214192169
C           11.15960367719812       -3.53694639158325       -1.83874898250750
C           10.62904887147957       -2.32621051568528       -2.23423871547214
C           11.46915925180228       -1.21913873229319       -2.24747988761671
C            3.80872415153152       -0.56299604228667        1.22623272163806
C            2.70839926121122       -1.29533162298236        1.66210801900194
C            1.56922757250709       -0.68965565151069        2.14912195837296
C            1.54585091957799        0.69683162962025        2.17037458159312
C           -1.52792504180065        0.32327928790338        2.70311629443993
C           -1.37745036455349        0.03676753823226        1.32779653264588
N           -1.27325416966429       -0.13012201506510        0.19812326836933
C          -16.18273956958758        3.77277895902378       -2.82748892712955
C          -16.12616551978941        5.14293560444991       -2.67726655001720
H          -15.87075236402491        9.14171826303484       -1.84315275044789
H          -16.70369966724684        7.87286782963481       -2.85542611636384
H          -14.65115429853753        7.45693587904188       -0.62484163845906
H          -14.22016352688886        5.28680938314041        0.10333337999177
H          -14.34099319735820        2.84932796236997       -0.15829676513011
H          -15.68831659679237        1.16685476764080       -3.14501493542978
H          -16.56577149748142        1.08260395455335       -1.60348482602809
H          -13.65256498099464        2.17093153219973       -3.53847266757057
H          -11.35033004459427        2.14256760369369       -4.28560319937445
H           -9.63215309524381        0.79566064790856       -3.15333527402502
H          -14.45820698988147       -0.86772667345175        0.58951679624681
H          -13.93403911345106       -2.45139234844376        2.42613657472522
H          -11.65859838522132       -3.30510558789565        2.72375648012647
H           -9.83596873224019       -2.61794202071897        1.22360053050143
H           -8.45394220060770       -1.13088199877033       -0.01417935145036
H           -8.40378809149596       -0.27575692138610       -1.55888891826922
H           -9.39544193607620       -3.14541659608004       -1.34356156694029
H           -8.86430047038630       -2.30830909868497       -2.80069343831897
H           -7.09171698383926       -3.02169436565348       -0.42243714448414
H           -6.52641315967541       -2.25948745560439       -1.90331755016853
H           -7.93530313348517       -4.95847085340519       -1.91476635056453
H           -6.96581598508145       -4.24444011483471       -3.19987107017375
H           -5.62870001786323       -5.94647896741999       -2.17529905281869
H           -4.94946237149572       -4.40137783525679       -1.64805419516391
H           -5.28085639233467       -6.31332222772096        0.12091741773085
H           -6.99728622646577       -5.87991983977608        0.04880030710191
H           -3.36256798817927       -5.44179924240860        0.19221515037645
H           -1.27634130521535       -4.45545389759025        0.91571227644612
H           -1.20309535241225       -2.36360207635831        2.19050905772807
H           -7.49584720353302       -2.80658429267655        1.86157202590335
H           -8.80762125155367       -0.92552562110043        2.82317127331674
H           -7.66735326342331        1.02090249995621        3.77141657997626
H           -5.21152812452726        1.14359746018822        3.85403819056206
H           -3.69522412227599       -0.05002069637332        5.28058077450384
H           -2.10170769457268        1.50520150071860        6.33353628474565
H           -0.08996460305862        2.24178065158373        5.10228515011159
H           -0.58642877974821        4.04720081737433        3.31392605797861
H            0.62092367341150        6.15680512884869        2.89492109305915
H            2.85855036040121        6.15548834145817        1.90200447088826
H            3.96256404695987        4.02245575126946        1.27572235270487
H            6.81083368482386        1.89035049651180        0.88803273804865
H            6.31127382612634        0.26094551540487        1.38918159598614
H            5.41258396486816        0.00156445880972       -1.04430141965827
H            6.34089960310075        1.44235294605616       -1.42662791497285
H            7.53350542767693       -0.71666676992821       -1.93035278860291
H            7.46866220263115       -1.13230612660781       -0.22201804400765
H            9.65051209054966       -0.30104338759963       -0.53238350770351
H            8.78324710323301        1.01307559385241        0.24179292143131
H            8.39245185302656        1.90488832971476       -2.19912944772034
H            9.97868668666891        2.10210648316088       -1.45398887027778
H            9.27888710689229       -0.20287463203526       -3.32875220431489
H           10.05952738669643        1.29966539593534       -3.83634099191233
H           11.77588168781976        2.79255553904565       -3.15203717449136
H           14.04674867978826        3.68949334206540       -2.86060986718932
H           15.88804467821445        2.25067029579091       -2.11708033451905
H           15.51114132654116       -0.12609126734433       -1.62156299795997
H           14.78110354551798       -2.74032822626880        1.03799322240158
H           14.32593329817067       -1.17193563836510        0.34206105296052
H           16.13248281931703       -0.18183258398239        1.75052406582799
H           18.47748283351112        0.49889757113040        1.81163449854249
H           21.10809913895727       -1.00204910125342       -0.48998530071049
H           20.59407108954104        0.93192260630260        1.82424871238631
H           22.17031169782719        0.59023778260813        0.97206846773424
H           19.36412941551014       -2.30463731357607       -1.29183103208553
H           16.99716145148288       -2.98447012410162       -1.33810860105130
H           12.87469285532613       -4.60259037617123       -1.10744645026249
H           10.53044927945092       -4.41443765262958       -1.82938685969108
H            9.59318966074354       -2.25440545718623       -2.52685094106399
H            4.66938793123547       -1.10397912766998        0.86735433819688
H            2.75833146801285       -2.37324331090625        1.62446448270134
H            0.74246073776385       -1.27837791455231        2.51248029161222
H          -16.72846102183795        3.34508808064175       -3.65744102131843
H          -16.62606820005369        5.77218479447775       -3.39714442605520

          :  Hamiltonian                  GFN2-xTB          :
         :: gradient norm              0.000107928511 Eh/a0 ::
         :: HOMO-LUMO gap              1.842679372434 eV    ::
         :: SCC energy              -254.515381997241 Eh    ::
         :: -> dispersion             -0.223769451710 Eh    ::
         :: repulsion energy           4.300948513807 Eh    ::

    * Orbital Energies and Occupations

         #    Occupation            Energy/Eh            Energy/eV
      -------------------------------------------------------------
         1        2.0000           -0.7162838             -19.4911
       ...           ...                  ...                  ...
       219        2.0000           -0.3962751             -10.7832
       220        2.0000           -0.3925095             -10.6807
       221        2.0000           -0.3834279             -10.4336
       222        2.0000           -0.3806394             -10.3577
       223        2.0000           -0.3785044             -10.2996
       224        2.0000           -0.3768022             -10.2533
       225        2.0000           -0.3746848             -10.1957
       226        2.0000           -0.3726827             -10.1412
       227        2.0000           -0.3657770              -9.9533
       228        2.0000           -0.3634647              -9.8904
       229        2.0000           -0.3606267              -9.8132
       230        2.0000           -0.3598040              -9.7908
       231        2.0000           -0.3482365              -9.4760 (HOMO)
       232                         -0.2805192              -7.6333 (LUMO)
       233                         -0.2571805              -6.9982
       234                         -0.2501332              -6.8065
       235                         -0.2488852              -6.7725
       236                         -0.2443639              -6.6495
       237                         -0.2419735              -6.5844
       238                         -0.2419020              -6.5825
       239                         -0.2295888              -6.2474
       240                         -0.2223822              -6.0513
       241                         -0.2214772              -6.0267
       242                         -0.2198308              -5.9819
       ...                                ...                  ...
       449                          1.1665626              31.7438
      -------------------------------------------------------------
                  HL-Gap            0.0677173 Eh            1.8427 eV

     #   Z          covCN         q      C6AA      α(0)
     1   6 C        2.837    -0.086    30.154     8.999
     2   6 C        2.896    -0.030    28.743     8.790
     3   6 C        2.971     0.013    27.725     8.637
     4   6 C        2.928    -0.034    28.849     8.808
     5   6 C        2.920    -0.030    28.754     8.793
     6   6 C        2.968    -0.000    28.034     8.685
     7   6 C        3.700     0.080    19.404     6.300
     8   8 O        1.705    -0.271    18.486     5.805
     9   6 C        2.857     0.141    24.929     8.184
    10   6 C        2.917    -0.081    30.020     8.985
    11   6 C        2.925    -0.036    28.903     8.816
    12   6 C        2.908    -0.065    29.627     8.925
    13   6 C        3.081     0.044    26.934     8.508
    14   6 C        3.077    -0.042    28.948     8.821
    15   6 C        3.070    -0.012    28.241     8.714
    16   6 C        2.912    -0.034    28.847     8.807
    17   6 C        2.920    -0.044    29.084     8.844
    18   6 C        2.923    -0.037    28.916     8.818
    19   6 C        2.910    -0.055    29.372     8.887
    20   6 C        3.087     0.042    26.971     8.513
    21   7 N        2.800    -0.048    22.166     6.992
    22   6 C        3.741    -0.002    20.693     6.490
    23   6 C        3.802    -0.063    21.700     6.632
    24   6 C        3.803    -0.065    21.737     6.638
    25   6 C        3.802    -0.058    21.610     6.618
    26   6 C        3.799    -0.067    21.787     6.646
    27   6 C        3.690     0.077    19.473     6.315
    28   8 O        1.705    -0.270    18.474     5.803
    29   6 C        2.854     0.144    24.872     8.174
    30   6 C        2.918    -0.077    29.915     8.969
    31   6 C        2.926    -0.032    28.786     8.799
    32   6 C        2.909    -0.057    29.411     8.893
    33   6 C        3.067     0.048    26.850     8.497
    34   6 C        3.072    -0.037    28.834     8.804
    35   6 C        3.066    -0.007    28.125     8.696
    36   6 C        2.913    -0.033    28.834     8.805
    37   6 C        2.920    -0.040    29.006     8.832
    38   6 C        2.924    -0.034    28.846     8.808
    39   6 C        2.910    -0.050    29.250     8.868
    40   6 C        3.072     0.044    26.932     8.509
    41   7 N        2.804    -0.042    22.059     6.976
    42   6 C        2.915     0.074    26.338     8.416
    43   6 C        2.922    -0.048    29.195     8.861
    44   6 C        2.917    -0.023    28.581     8.767
    45   6 C        2.921    -0.047    29.172     8.857
    46   6 C        2.920     0.075    26.319     8.413
    47   7 N        2.806    -0.046    22.121     6.985
    48   6 C        3.075     0.045    26.907     8.505
    49   6 C        2.910    -0.050    29.253     8.869
    50   6 C        2.924    -0.034    28.839     8.807
    51   6 C        2.921    -0.039    28.978     8.828
    52   6 C        2.913    -0.032    28.796     8.799
    53   6 C        3.068    -0.006    28.106     8.693
    54   6 C        3.072    -0.036    28.813     8.801
    55   6 C        2.855     0.144    24.868     8.173
    56   8 O        1.705    -0.272    18.503     5.808
    57   6 C        3.692     0.078    19.450     6.311
    58   6 C        3.799    -0.068    21.810     6.649
    59   6 C        3.801    -0.060    21.652     6.625
    60   6 C        3.801    -0.063    21.712     6.634
    61   6 C        3.801    -0.065    21.742     6.639
    62   6 C        3.740    -0.001    20.673     6.487
    63   7 N        2.797    -0.047    22.149     6.990
    64   6 C        3.083     0.042    26.959     8.512
    65   6 C        2.910    -0.054    29.341     8.882
    66   6 C        2.923    -0.034    28.851     8.808
    67   6 C        2.920    -0.043    29.057     8.840
    68   6 C        2.912    -0.034    28.858     8.809
    69   6 C        3.066    -0.013    28.280     8.720
    70   6 C        3.067    -0.042    28.982     8.828
    71   6 C        2.867     0.136    25.032     8.201
    72   8 O        1.703    -0.305    19.082     5.898
    73   6 C        3.707     0.089    19.238     6.269
    74   6 C        2.969     0.005    27.899     8.664
    75   6 C        2.922    -0.040    29.005     8.832
    76   6 C        2.923    -0.033    28.812     8.802
    77   6 C        2.970     0.012    27.739     8.639
    78   6 C        2.896    -0.030    28.744     8.790
    79   6 C        2.837    -0.087    30.164     9.000
    80   6 C        2.928    -0.034    28.855     8.809
    81   6 C        2.920    -0.031    28.770     8.796
    82   6 C        2.918    -0.066    29.643     8.928
    83   6 C        2.923    -0.036    28.904     8.817
    84   6 C        2.910    -0.062    29.530     8.911
    85   6 C        3.078     0.043    26.952     8.511
    86   6 C        2.918    -0.079    29.977     8.978
    87   6 C        2.926    -0.033    28.826     8.805
    88   6 C        2.909    -0.058    29.443     8.898
    89   6 C        3.072     0.049    26.823     8.492
    90   6 C        2.974    -0.011    28.286     8.724
    91   6 C        1.910     0.121    28.138     8.567
    92   7 N        0.911    -0.236    26.172     7.399
    93   6 C        2.921    -0.041    29.018     8.834
    94   6 C        2.923    -0.033    28.811     8.802
    95   1 H        0.926     0.037     2.493     2.469
    96   1 H        0.926     0.039     2.464     2.455
    97   1 H        0.925     0.034     2.527     2.486
    98   1 H        0.926     0.033     2.540     2.492
    99   1 H        0.926     0.043     2.411     2.428
   100   1 H        0.923     0.033     2.545     2.495
   101   1 H        0.924     0.055     2.258     2.350
   102   1 H        0.926     0.027     2.628     2.535
   103   1 H        0.926     0.028     2.608     2.526
   104   1 H        0.926     0.025     2.665     2.553
   105   1 H        0.926     0.039     2.456     2.451
   106   1 H        0.926     0.023     2.691     2.565
   107   1 H        0.926     0.023     2.681     2.561
   108   1 H        0.926     0.027     2.623     2.532
   109   1 H        0.924     0.052     2.297     2.370
   110   1 H        0.924     0.047     2.362     2.403
   111   1 H        0.924     0.041     2.435     2.440
   112   1 H        0.924     0.035     2.521     2.483
   113   1 H        0.925     0.056     2.246     2.344
   114   1 H        0.924     0.030     2.588     2.516
   115   1 H        0.924     0.035     2.523     2.484
   116   1 H        0.924     0.033     2.539     2.492
   117   1 H        0.924     0.036     2.498     2.472
   118   1 H        0.924     0.048     2.343     2.394
   119   1 H        0.924     0.029     2.603     2.523
   120   1 H        0.924     0.053     2.281     2.362
   121   1 H        0.926     0.035     2.520     2.482
   122   1 H        0.926     0.038     2.480     2.462
   123   1 H        0.926     0.026     2.644     2.543
   124   1 H        0.926     0.043     2.405     2.425
   125   1 H        0.926     0.035     2.516     2.481
   126   1 H        0.926     0.031     2.567     2.505
   127   1 H        0.926     0.026     2.642     2.542
   128   1 H        0.926     0.052     2.301     2.372
   129   1 H        0.926     0.047     2.351     2.398
   130   1 H        0.926     0.050     2.317     2.381
   131   1 H        0.926     0.024     2.673     2.557
   132   1 H        0.926     0.030     2.584     2.514
   133   1 H        0.926     0.030     2.586     2.515
   134   1 H        0.926     0.046     2.367     2.406
   135   1 H        0.924     0.048     2.349     2.397
   136   1 H        0.924     0.031     2.574     2.509
   137   1 H        0.924     0.046     2.373     2.409
   138   1 H        0.924     0.043     2.406     2.425
   139   1 H        0.924     0.037     2.485     2.465
   140   1 H        0.924     0.032     2.557     2.501
   141   1 H        0.924     0.042     2.421     2.433
   142   1 H        0.924     0.034     2.533     2.489
   143   1 H        0.924     0.043     2.408     2.427
   144   1 H        0.924     0.043     2.415     2.430
   145   1 H        0.924     0.052     2.298     2.371
   146   1 H        0.924     0.046     2.371     2.408
   147   1 H        0.926     0.023     2.686     2.563
   148   1 H        0.926     0.027     2.633     2.537
   149   1 H        0.926     0.026     2.646     2.544
   150   1 H        0.926     0.039     2.469     2.457
   151   1 H        0.923     0.030     2.583     2.513
   152   1 H        0.924     0.033     2.550     2.497
   153   1 H        0.926     0.026     2.644     2.543
   154   1 H        0.926     0.037     2.492     2.469
   155   1 H        0.925     0.034     2.531     2.488
   156   1 H        0.926     0.038     2.473     2.459
   157   1 H        0.926     0.036     2.502     2.473
   158   1 H        0.926     0.034     2.536     2.490
   159   1 H        0.926     0.052     2.299     2.371
   160   1 H        0.926     0.042     2.421     2.433
   161   1 H        0.926     0.034     2.537     2.491
   162   1 H        0.926     0.028     2.619     2.531
   163   1 H        0.926     0.036     2.508     2.476
   164   1 H        0.926     0.035     2.515     2.480
   165   1 H        0.926     0.021     2.711     2.575
   166   1 H        0.925     0.026     2.640     2.541
   167   1 H        0.926     0.037     2.487     2.466

molecular dipole:
                 x           y           z       tot (Debye)
 q only:        0.083       0.110       0.541
   full:        0.021       0.124       0.889       2.281

 projected vibrational frequencies (cm⁻¹)
eigval :       -0.00    -0.00    -0.00     0.00     0.00     0.00
eigval :        1.87     2.62     2.70     4.26     6.10     8.47
eigval :        9.61    12.26    14.00    15.26    17.23    18.73
eigval :       19.88    21.71    26.18    27.02    27.97    28.86
eigval :       33.47    34.03    37.24    39.90    45.00    48.65
eigval :       53.31    55.27    60.82    64.80    67.85    80.23
eigval :       81.27    82.77    96.95   100.74   101.62   104.36
eigval :      106.01   112.50   114.02   118.90   119.63   121.58
eigval :      122.83   126.76   135.37   139.76   141.39   150.64
eigval :      157.78   161.08   166.79   169.90   174.44   183.74
eigval :      192.32   201.55   207.91   208.63   215.91   221.24
eigval :      232.30   238.00   243.10   248.98   253.14   254.15
eigval :      257.28   273.64   275.52   275.97   277.80   281.22
eigval :      284.79   289.84   300.78   303.18   304.82   313.43
eigval :      320.47   327.49   330.33   333.01   337.67   345.35
eigval :      353.49   359.79   367.95   369.11   385.64   386.39
eigval :      395.96   403.35   407.09   409.27   409.43   411.92
eigval :      412.11   415.26   416.36   417.21   418.56   424.42
eigval :      427.24   433.63   435.77   446.39   449.03   457.33
eigval :      483.76   493.73   495.02   500.88   503.80   510.43
eigval :      511.86   518.74   522.02   522.42   527.45   529.00
eigval :      536.24   539.06   539.94   540.45   541.59   542.09
eigval :      544.76   545.69   559.92   563.95   564.51   574.91
eigval :      577.39   579.56   580.43   588.81   590.65   597.45
eigval :      602.94   605.28   606.17   612.71   613.54   616.02
eigval :      616.25   623.35   635.64   653.02   657.36   669.67
eigval :      670.27   670.42   674.84   687.13   690.52   691.72
eigval :      698.52   702.66   705.65   706.41   707.87   711.30
eigval :      711.88   739.85   739.91   749.63   750.08   760.22
eigval :      762.37   767.03   771.42   773.27   773.67   774.57
eigval :      774.86   777.56   781.55   782.13   787.12   790.16
eigval :      795.46   797.21   803.87   808.92   809.23   816.86
eigval :      828.58   835.99   839.39   844.76   846.39   854.30
eigval :      854.45   857.33   861.71   862.42   867.18   867.77
eigval :      868.73   869.18   869.25   872.89   878.16   887.30
eigval :      888.21   898.75   899.94   902.64   905.47   906.54
eigval :      906.79   906.90   909.32   911.02   911.60   912.25
eigval :      912.42   913.44   918.33   921.28   923.00   924.12
eigval :      926.61   926.84   927.17   929.08   933.22   933.34
eigval :      946.34   949.07   956.75   972.16   979.68   990.16
eigval :      991.62   996.18  1003.95  1005.92  1007.06  1008.20
eigval :     1012.18  1012.27  1017.37  1020.86  1026.68  1033.22
eigval :     1034.46  1037.95  1051.48  1052.52  1057.89  1068.75
eigval :     1069.92  1070.27  1073.05  1080.28  1081.03  1091.20
eigval :     1094.69  1101.57  1105.69  1110.83  1113.23  1115.38
eigval :     1118.84  1119.75  1123.11  1125.22  1131.87  1132.77
eigval :     1138.47  1144.34  1144.73  1145.53  1147.14  1149.52
eigval :     1159.42  1163.79  1169.32  1174.76  1177.59  1180.67
eigval :     1181.65  1183.70  1186.54  1187.02  1188.61  1193.28
eigval :     1193.59  1193.88  1196.45  1197.63  1198.12  1200.91
eigval :     1202.91  1205.77  1209.58  1210.20  1211.05  1214.88
eigval :     1216.26  1227.78  1231.25  1231.98  1235.07  1240.33
eigval :     1245.08  1248.40  1249.36  1252.08  1253.68  1259.66
eigval :     1261.44  1261.74  1266.22  1275.84  1276.10  1276.95
eigval :     1278.09  1284.03  1287.75  1289.09  1292.02  1294.93
eigval :     1295.50  1300.40  1300.98  1302.51  1306.18  1307.10
eigval :     1314.18  1321.77  1323.96  1324.88  1328.39  1330.36
eigval :     1332.07  1333.65  1341.11  1341.55  1341.87  1343.86
eigval :     1345.50  1351.88  1356.47  1358.19  1358.98  1359.75
eigval :     1361.45  1362.36  1362.71  1363.61  1364.80  1366.97
eigval :     1368.96  1375.61  1377.24  1377.74  1380.55  1405.87
eigval :     1411.35  1412.02  1412.10  1416.96  1420.04  1420.17
eigval :     1420.76  1423.79  1428.40  1439.22  1441.92  1452.03
eigval :     1452.34  1453.81  1460.88  1464.70  1468.50  1471.40
eigval :     1472.68  1472.88  1475.66  1477.82  1479.94  1483.90
eigval :     1487.11  1488.73  1490.31  1492.85  1492.97  1494.05
eigval :     1494.26  1495.20  1495.40  1496.02  1499.47  1500.52
eigval :     1500.61  1552.62  1564.23  1569.02  1573.03  1573.75
eigval :     1575.24  1576.90  1577.97  1587.25  1589.86  1590.10
eigval :     1591.10  1591.86  1592.41  1593.19  1595.59  1601.10
eigval :     1602.02  1607.02  1608.99  1610.49  1613.77  1675.98
eigval :     1676.47  2365.28  2815.36  2876.06  2902.28  2909.78
eigval :     2912.60  2923.87  2943.11  2944.79  2957.81  2959.35
eigval :     2963.16  2964.02  2966.50  2974.36  2978.42  2979.63
eigval :     2981.74  2982.89  2983.21  2985.53  2989.15  2989.45
eigval :     2992.73  2995.35  3000.65  3004.59  3010.18  3033.75
eigval :     3043.43  3044.40  3065.98  3069.07  3070.74  3071.13
eigval :     3072.15  3074.19  3074.62  3077.92  3078.51  3081.26
eigval :     3081.72  3082.11  3082.39  3082.57  3085.01  3089.64
eigval :     3090.93  3091.33  3091.47  3092.02  3092.85  3094.12
eigval :     3094.38  3096.22  3096.23  3097.27  3101.22  3103.81
eigval :     3104.10  3104.30  3105.72  3106.54  3107.27  3107.63
eigval :     3109.10  3110.36  3110.52  3110.54  3111.20  3112.56
eigval :     3114.39  3130.32  3130.57

   temp. (K)  partition function   enthalpy   heat capacity  entropy
                                   cal/mol     cal/K/mol   cal/K/mol   J/K/mol
 298.15  VIB  0.369E+48            50242.120    296.237    328.249
         ROT  0.134E+10              888.752      2.981     44.748
         INT  0.495E+57            51130.872    299.218    372.998
         TR   0.417E+29             1481.254      4.968     47.174
         TOT                       52612.1263   304.1863   420.1712  1757.9963

       T/K    H(0)-H(T)+PV         H(T)/Eh          T*S/Eh         G(T)/Eh
   ------------------------------------------------------------------------
    298.15    0.838428E-01    0.141669E+01    0.199637E+00    0.121706E+01
   ------------------------------------------------------------------------

         :::::::::::::::::::::::::::::::::::::::::::::::::::::
         ::                  THERMODYNAMIC                  ::
         :::::::::::::::::::::::::::::::::::::::::::::::::::::
         :: total free energy        -248.997376358749 Eh   ::
         ::.................................................::
         :: total energy             -250.214433483433 Eh   ::
         :: zero point energy           1.332851257560 Eh   ::
         :: G(RRHO) w/o ZPVE           -0.115794132876 Eh   ::
         :: G(RRHO) contrib.            1.217057124684 Eh   ::
         :::::::::::::::::::::::::::::::::::::::::::::::::::::

           -------------------------------------------------
          | TOTAL ENERGY             -250.214433483433 Eh   |
          | TOTAL ENTHALPY           -248.797739465765 Eh   |
          | TOTAL FREE ENERGY        -248.997376358749 Eh   |
          | GRADIENT NORM               0.000108001891 Eh/α |
          | HOMO-LUMO GAP               1.842681262633 eV   |
           -------------------------------------------------

 * finished run on 2025/08/26 at 13:11:36.074
