   * xtb version 6.7.1 (edcfbbe) compiled by 'albert@albert-system' on 2024-07-22

   ID    Z sym.   atoms
    1    6 C      1-7, 9-20, 22-27, 29-40, 42-46, 48-55, 57-62, 64-71, 73-91,
                  93, 94
    2    8 O      8, 28, 56, 72
    3    7 N      21, 41, 47, 63, 92
    4    1 H      95-167

          program call               : xtb data2507/gas/DVCz-2CzCN/DVCz-2CzCN_gas_T1_crest.xyz --gfn 2 --spinpol --tblite --uhf 2 --ohess vtight --parallel 40 --molden --ceasefiles --namespace data2507/gas/DVCz-2CzCN/DVCz-2CzCN_gas_T1_finalOpt
 * total energy  :  -250.1661962 Eh     change       -0.3364406E-07 Eh
 * total energy  :  -250.1662120 Eh     change       -0.1582978E-04 Eh
 * total energy  :  -250.1662176 Eh     change       -0.5630433E-05 Eh
 * total energy  :  -250.1662186 Eh     change       -0.9903589E-06 Eh
 * total energy  :  -250.1662208 Eh     change       -0.2159868E-05 Eh
 * total energy  :  -250.1662217 Eh     change       -0.9660094E-06 Eh
 * total energy  :  -250.1662235 Eh     change       -0.1764524E-05 Eh
 * total energy  :  -250.1662266 Eh     change       -0.3157043E-05 Eh
 * total energy  :  -250.1662287 Eh     change       -0.2031462E-05 Eh
 * total energy  :  -250.1662299 Eh     change       -0.1267616E-05 Eh
 * total energy  :  -250.1662640 Eh     change       -0.3407972E-06 Eh
 * total energy  :  -250.1662644 Eh     change       -0.3585195E-06 Eh
 * total energy  :  -250.1662647 Eh     change       -0.2562534E-06 Eh
 * total energy  :  -250.1662649 Eh     change       -0.2699201E-06 Eh
 * total energy  :  -250.1662653 Eh     change       -0.3760172E-06 Eh
 * total energy  :  -250.1662656 Eh     change       -0.3336667E-06 Eh
 * total energy  :  -250.1662660 Eh     change       -0.3143210E-06 Eh
 * total energy  :  -250.1662662 Eh     change       -0.2065299E-06 Eh
 * total energy  :  -250.1662662 Eh     change       -0.3425436E-07 Eh
   *** GEOMETRY OPTIMIZATION CONVERGED AFTER 53 ITERATIONS ***

 final structure:
================
167
 xtb: 6.7.1 (edcfbbe)
C            6.24772984856648        4.95210888424583       -3.93306093474202
C            4.92737328161562        5.07176731969817       -3.81297805154675
C            4.01157679226055        4.10476719559872       -3.23264394079260
C            4.42104344669146        2.85955636057898       -2.74336905549801
C            3.51614476877279        1.98600450055796       -2.18061404429714
C            2.16680782193013        2.31707636106455       -2.09065197381313
C            1.21958474225140        1.32535813799318       -1.48272513808876
O            0.04133506398430        1.96967919005807       -1.02578831320970
C           -0.97999038551944        1.18807550036749       -0.62270897491518
C           -0.89369319395159       -0.18663506393749       -0.40154190283243
C           -2.01322692749906       -0.92167871768889       -0.04164739376922
C           -3.26668084088282       -0.34796632279097        0.07040185610601
C           -3.36453957717361        1.02340656513380       -0.13767764435278
C           -2.22797974402766        1.80083477540081       -0.44558980987137
C           -2.67895732710651        3.15353710349020       -0.57516780653211
C           -2.03828745849460        4.35786091517976       -0.82759103775881
C           -2.79496060601051        5.51091078023560       -0.87950478548775
C           -4.17320318421821        5.47639687969204       -0.67170850307294
C           -4.83253081123576        4.29233731608670       -0.41037929309725
C           -4.08081957470870        3.12361464337237       -0.36672876255380
N           -4.47609187138328        1.83422372488148       -0.12289855710458
C           -5.84355660149368        1.39674493416868       -0.05801479703517
C           -6.58377256636770        1.51809778434707       -1.40068026334468
C           -6.21577203784164        0.46887875797593       -2.45262806427354
C           -4.77580149711594        0.57823733563427       -2.95265396040216
C           -4.54439169292777       -0.14455781459498       -4.27911338930595
C           -3.04730025001673       -0.28433894489167       -4.55122817146733
O           -2.56526182202300       -1.31613832189955       -3.71368070626429
C           -1.23398820961367       -1.53386941061733       -3.60134977298006
C           -0.23217574204467       -0.79289226989621       -4.22240791767280
C            1.11436853289996       -1.09497302586287       -4.02309945625541
C            1.52224230228005       -2.12997065010671       -3.20306436690053
C            0.53068487427421       -2.87782551188251       -2.58053538634937
C           -0.83961464121080       -2.60629207174785       -2.79211910354609
C           -1.57196304842392       -3.60505164005690       -2.07342395540285
C           -2.92466552616347       -3.86965869808173       -1.90882122765398
C           -3.29561670042497       -4.94796874874951       -1.12961392105681
C           -2.33906498187726       -5.74454823194146       -0.49813215573715
C           -0.98710242588044       -5.50000106922192       -0.64350894697133
C           -0.60574289213682       -4.43604463854842       -1.45093862787298
N            0.65487715829471       -3.98127499319680       -1.76343423886243
C            1.85592139923709       -4.49713661895134       -1.25622552355365
C            2.17015632663816       -5.83278151315906       -1.37312923419479
C            3.34275303821306       -6.35009198980012       -0.82402045157596
C            4.22280804508399       -5.50197023758274       -0.13369092334139
C            3.93798131535343       -4.16996144858293       -0.00449201770252
N            4.76428035415348       -3.27536001246412        0.71156641146134
C            4.79828473429898       -3.16970052286169        2.08287804584661
C            4.39142269061310       -4.08764214529671        3.04110478704751
C            4.54134471938333       -3.73659368524879        4.36871880057894
C            5.07755308345371       -2.50323476846713        4.73674100498495
C            5.47277127259430       -1.57962295099294        3.78630035667624
C            5.33064641708228       -1.90864156853605        2.44667916398483
C            5.60815004037318       -1.22068512540503        1.21670527839822
C            6.05395056534938        0.06848433901511        0.91316313110197
O            6.27823031498510        0.91326795807314        1.95591695052610
C            6.17564216716959        2.30763605526070        1.74058609744864
C            4.78807079309148        2.72388745368386        1.24014987612588
C            4.52212477218441        4.20820312843673        1.48107219279258
C            3.33997296054718        4.74589984007656        0.66993799656586
C            2.03181751703098        3.97637021762205        0.84169811330712
C            1.51128895023613        3.96606035629009        2.28064714360366
N            0.19924569246669        3.38288224806168        2.37538631300365
C           -0.98392131831524        4.07255767526546        2.45106284376945
C           -1.23047666512737        5.43489842387382        2.33745045388078
C           -2.53579635475144        5.86853520979587        2.46108057987471
C           -3.58043748120476        4.97581467777997        2.68986739205890
C           -3.34638664829781        3.61885720166249        2.80035188444743
C           -2.04311866163673        3.16056382103166        2.68366038441506
C           -1.44631441098118        1.85869591429305        2.73379679093703
C           -1.96237434920715        0.58442266391589        2.99725134470680
O           -3.27759055578788        0.51730703344222        3.31610136884336
C           -3.79240039712719       -0.62881141575891        3.98798646364030
C           -4.51393383709126       -1.57377487100562        3.06530621886041
C           -5.73448900957845       -1.18890534913499        2.51334550227490
C           -6.42260391024343       -2.03118739594078        1.66795034044103
C           -5.93130392079262       -3.30666103509241        1.35768948111844
C           -6.71093647282652       -4.17801690475940        0.50092768742987
C           -6.54720648134232       -5.49369130092172        0.35179160377387
C           -4.70066790453273       -3.68071637557371        1.91072230252688
C           -4.00676833401462       -2.82841257692098        2.74253476028168
C           -1.07906184514612       -0.49033470736978        2.94066514371181
C            0.26995752141816       -0.29879739054227        2.66578370606452
C            0.80646014392886        0.95785374907497        2.46327771152012
C           -0.06489509942364        2.04028033719470        2.50652996502135
C            6.23723836450194        0.38966573470253       -0.43009906539960
C            5.94145162046034       -0.52148411174499       -1.43822326134949
C            5.42455471219788       -1.77185388081504       -1.16053382099607
C            5.25398496943846       -2.10526915088932        0.17663731489674
C            2.73784874235553       -3.61050032024831       -0.55208691895794
C            2.42027835297324       -2.29693121466771       -0.28811907957312
N            2.18191926826911       -1.18807156631582       -0.02608453469415
C            1.74300438601887        3.53831814090848       -2.59888783443059
C            2.65091832895147        4.41767625560474       -3.15242253460132
H            6.84118770639660        5.73103862951563       -4.37971503427955
H            6.78834104755771        4.08379268735546       -3.59802975977468
H            4.45429439114591        5.97812061953528       -4.17262779894262
H            5.46039456885075        2.57614355865370       -2.80502925444905
H            3.84461074000466        1.02793558466854       -1.80305283574868
H            1.71339750255593        0.78488928510175       -0.66484944135852
H            0.95261918338848        0.57604552548853       -2.24356143103924
H            0.05448753198263       -0.69132406146104       -0.47991928408925
H           -1.90663246224364       -1.98092038683604        0.13347297211980
H           -4.12265557267784       -0.95729389712846        0.30914002586193
H           -0.96993107448737        4.37944640925597       -0.97103978989973
H           -2.31660575628791        6.45903473676100       -1.07574262051533
H           -4.73548307500724        6.39777205897479       -0.71005129341377
H           -5.89744320498941        4.28482981397232       -0.23359904530148
H           -6.36712637217228        2.00918386847424        0.68536393711365
H           -5.85757472226524        0.36061820197878        0.28117878366271
H           -7.65297289439386        1.43377220698096       -1.19259040466045
H           -6.40282785630543        2.51169388261709       -1.81517441915582
H           -6.89469662744065        0.59999647742787       -3.29976333544277
H           -6.38434127384061       -0.53126006746931       -2.04763700497293
H           -4.50909161814479        1.63166426175734       -3.07332432531899
H           -4.09976858019417        0.13988688943373       -2.22089236561313
H           -4.97652843441065       -1.14561223449126       -4.23799639716806
H           -5.01320007992903        0.39914238668410       -5.10083731024821
H           -2.54160929419930        0.66393327698320       -4.32760331493318
H           -2.86287919313268       -0.54509318181398       -5.60301535580711
H           -0.48265682276890        0.02931257522970       -4.87409850840947
H            1.85772955057628       -0.49629527436233       -4.52847865428089
H            2.56823196375968       -2.34724425690822       -3.06069623425803
H           -3.65869206725049       -3.23759047932711       -2.38177716162899
H           -4.34337661598767       -5.17354688391538       -0.99748568172445
H           -2.66185955081548       -6.57186438242685        0.11713610570899
H           -0.25092819084651       -6.11169680302966       -0.14414873751585
H            1.50150505180082       -6.48138458655961       -1.92096039139509
H            3.57859217544656       -7.39510797160514       -0.93689702143051
H            5.13631783027315       -5.89484393771100        0.28811088810842
H            3.97055726241549       -5.03934029896568        2.75283897947594
H            4.23627057576716       -4.43056748822054        5.13813634543083
H            5.18075975709374       -2.26779721343045        5.78586113286605
H            5.88261309545258       -0.62222450578437        4.06690218357403
H            6.36188749556669        2.73932761152891        2.72856753859186
H            6.95934717256119        2.66390804164217        1.05972639896318
H            4.69500287366843        2.50742124541029        0.17496345295721
H            4.05138216834217        2.11567918926408        1.76805399196269
H            5.41023979055964        4.77685152659290        1.19354542632670
H            4.35722355959332        4.38266572663226        2.54632160096064
H            3.60303932270075        4.71929339978723       -0.38955831261256
H            3.18130440275670        5.79190635660763        0.94476675684213
H            1.27354324665617        4.43492855875395        0.20446156392167
H            2.15971514550641        2.95099969431671        0.50246435894059
H            2.18607511152371        3.39260713368394        2.92239645206040
H            1.46016519850811        4.98806083291321        2.66627000110162
H           -0.43474841663456        6.13968534186020        2.14852325626516
H           -2.75298730942478        6.92283073853379        2.37401980565277
H           -4.58711369611302        5.35674221815902        2.77742905923439
H           -4.14844334556882        2.91908019503135        2.97359583948747
H           -4.50665884410445       -0.21966086017866        4.71406254044960
H           -2.99839296989386       -1.14313474701293        4.53791033911997
H           -6.13739035816731       -0.21676098295974        2.76058986077789
H           -7.37153835281740       -1.71769300763440        1.25274111361883
H           -7.51507894861435       -3.68913084876528       -0.03721114907177
H           -5.79695070090040       -6.04777500120736        0.88927090755021
H           -7.18024598134632       -6.06636234381702       -0.30409786385104
H           -4.27930578931400       -4.64515724216268        1.67605204961967
H           -3.06309558957671       -3.15117741779146        3.15997151713528
H           -1.43592361330906       -1.49565983803296        3.09112000448405
H            0.91867051633361       -1.15902442642213        2.60761668080808
H            1.85974614017435        1.07339429233269        2.26759299746927
H            6.61545290122826        1.36176706543281       -0.70480162353022
H            6.10587136246362       -0.23209633822939       -2.46581569959314
H            5.16486810359442       -2.46365765252370       -1.94666484292264
H            0.69526357159817        3.79352003834948       -2.55628498333339
H            2.30643065038821        5.36830212956880       -3.53591487612459

 projected vibrational frequencies (cm⁻¹)
eigval :       -0.00    -0.00     0.00     0.00     0.00     0.00
eigval :        5.81    10.79    13.27    14.78    16.48    19.54
eigval :       21.98    23.19    27.44    29.29    30.48    33.56
eigval :       36.73    40.67    45.73    46.94    49.67    52.47
eigval :       56.13    60.32    60.77    65.75    68.54    70.07
eigval :       74.91    75.83    81.22    84.97    87.21    89.73
eigval :       92.04    96.65    98.80   103.46   106.27   107.29
eigval :      109.85   114.13   118.12   121.92   124.25   134.06
eigval :      139.26   139.65   143.72   149.44   149.81   150.36
eigval :      161.83   166.80   168.93   180.97   182.42   191.47
eigval :      199.29   201.29   210.37   213.39   218.19   218.49
eigval :      224.94   226.08   227.76   228.89   235.73   239.12
eigval :      248.47   256.14   259.82   268.39   272.02   280.53
eigval :      281.30   284.71   286.79   289.12   296.25   297.48
eigval :      299.66   303.91   311.37   325.11   334.80   353.07
eigval :      365.73   367.90   373.53   373.98   374.49   377.88
eigval :      381.83   390.74   397.15   404.97   405.17   406.48
eigval :      409.13   409.27   410.26   414.86   416.36   420.16
eigval :      424.96   427.54   435.44   452.60   455.90   467.97
eigval :      468.24   475.41   484.92   491.85   499.40   499.84
eigval :      500.79   507.60   510.12   514.76   521.76   522.78
eigval :      531.83   532.24   534.75   535.63   536.16   536.31
eigval :      538.57   539.56   554.99   557.75   563.30   569.11
eigval :      575.06   576.07   576.65   587.62   588.57   589.13
eigval :      601.71   607.72   608.74   609.16   611.58   615.26
eigval :      616.61   616.88   626.38   645.41   648.58   663.32
eigval :      666.13   668.73   670.02   674.23   691.63   693.01
eigval :      700.43   700.58   703.50   705.61   707.84   708.56
eigval :      718.62   732.90   742.88   744.36   751.01   755.63
eigval :      760.42   762.08   764.59   766.08   767.02   771.88
eigval :      772.11   772.55   772.93   774.54   776.49   785.10
eigval :      787.42   788.67   807.87   809.21   809.67   818.72
eigval :      824.04   830.29   845.46   845.52   851.40   855.59
eigval :      856.55   856.98   857.84   858.62   860.55   861.53
eigval :      862.25   865.64   868.11   868.66   870.21   870.79
eigval :      872.36   874.04   888.01   892.57   899.71   901.15
eigval :      902.84   903.78   904.41   905.27   905.77   909.10
eigval :      911.11   916.94   917.16   918.17   919.19   919.60
eigval :      920.59   921.65   923.06   925.28   933.48   939.77
eigval :      940.18   945.45   960.55   962.95   968.24   975.97
eigval :      988.77   992.32   995.13   999.69  1000.76  1000.87
eigval :     1005.26  1012.52  1013.99  1020.13  1022.33  1026.39
eigval :     1032.27  1033.40  1041.51  1048.55  1057.51  1061.77
eigval :     1064.51  1066.33  1068.92  1069.68  1070.65  1077.16
eigval :     1093.10  1103.00  1104.38  1105.94  1107.16  1109.50
eigval :     1111.68  1118.87  1121.75  1128.91  1130.97  1132.09
eigval :     1132.97  1136.19  1139.80  1140.71  1142.91  1147.99
eigval :     1148.60  1158.69  1159.70  1161.96  1172.28  1174.24
eigval :     1175.70  1179.05  1181.88  1182.55  1183.03  1184.97
eigval :     1186.94  1189.91  1195.00  1196.68  1200.21  1202.43
eigval :     1203.89  1205.64  1211.54  1212.43  1214.39  1221.05
eigval :     1225.94  1228.04  1228.15  1230.29  1239.33  1241.96
eigval :     1243.72  1246.39  1249.42  1251.69  1253.42  1255.70
eigval :     1258.48  1263.84  1266.07  1267.72  1268.49  1273.62
eigval :     1277.25  1279.49  1280.45  1284.29  1286.60  1287.37
eigval :     1291.57  1294.32  1294.74  1296.54  1298.59  1303.62
eigval :     1303.94  1312.33  1316.21  1324.83  1326.81  1328.61
eigval :     1330.25  1331.18  1332.90  1334.46  1335.64  1340.44
eigval :     1343.15  1343.42  1344.68  1346.41  1348.71  1349.96
eigval :     1353.09  1353.67  1355.88  1356.33  1360.19  1360.66
eigval :     1365.60  1366.13  1367.35  1367.97  1369.79  1376.70
eigval :     1381.57  1401.96  1406.28  1406.64  1407.59  1409.42
eigval :     1412.27  1413.93  1417.29  1419.55  1421.59  1428.04
eigval :     1431.51  1453.60  1459.32  1462.17  1464.27  1466.28
eigval :     1467.75  1469.20  1471.37  1473.67  1474.63  1475.51
eigval :     1478.78  1480.02  1481.48  1483.24  1484.54  1487.04
eigval :     1487.70  1487.97  1488.32  1490.13  1492.82  1494.87
eigval :     1501.16  1502.77  1518.52  1524.04  1545.44  1547.54
eigval :     1549.66  1551.64  1557.75  1559.42  1562.50  1565.03
eigval :     1567.38  1568.98  1570.99  1579.65  1580.50  1582.54
eigval :     1584.37  1591.68  1597.74  1599.40  1602.41  1632.99
eigval :     1646.54  2212.50  2867.22  2876.70  2895.08  2906.06
eigval :     2908.27  2911.61  2925.47  2943.46  2954.37  2958.94
eigval :     2960.74  2962.27  2962.78  2963.41  2966.86  2972.33
eigval :     2982.86  2983.41  2984.99  2986.68  2989.99  2991.61
eigval :     2996.66  2998.17  3004.02  3010.75  3034.11  3035.22
eigval :     3040.47  3045.97  3055.41  3064.18  3065.52  3074.55
eigval :     3075.02  3075.18  3075.47  3075.64  3076.03  3078.10
eigval :     3080.62  3080.67  3080.71  3082.57  3082.95  3084.33
eigval :     3085.97  3090.49  3091.57  3092.06  3092.58  3093.30
eigval :     3095.56  3096.09  3096.44  3098.47  3102.77  3103.48
eigval :     3104.10  3105.86  3106.27  3107.83  3107.92  3109.20
eigval :     3109.96  3110.11  3110.68  3111.88  3116.35  3119.72
eigval :     3128.51  3130.21  3130.61

   temp. (K)  partition function   enthalpy   heat capacity  entropy
                                   cal/mol     cal/K/mol   cal/K/mol   J/K/mol
 298.15  VIB  0.439E+40            49814.656    304.437    314.835
         ROT  0.298E+09              888.752      2.981     41.758
         INT  0.131E+49            50703.408    307.418    356.593
         TR   0.417E+29             1481.254      4.968     47.174
         TOT                       52184.6620   312.3860   403.7663  1689.3583

       T/K    H(0)-H(T)+PV         H(T)/Eh          T*S/Eh         G(T)/Eh
   ------------------------------------------------------------------------
    298.15    0.831616E-01    0.141177E+01    0.191842E+00    0.121993E+01
   ------------------------------------------------------------------------

         :::::::::::::::::::::::::::::::::::::::::::::::::::::
         ::                  THERMODYNAMIC                  ::
         :::::::::::::::::::::::::::::::::::::::::::::::::::::
         :: total free energy        -248.946337078039 Eh   ::
         ::.................................................::
         :: total energy             -250.166266326300 Eh   ::
         :: zero point energy           1.328610103254 Eh   ::
         :: G(RRHO) w/o ZPVE           -0.108680854993 Eh   ::
         :: G(RRHO) contrib.            1.219929248261 Eh   ::
         :::::::::::::::::::::::::::::::::::::::::::::::::::::

           -------------------------------------------------
          | TOTAL ENERGY             -250.166266326300 Eh   |
          | TOTAL ENTHALPY           -248.754494670667 Eh   |
          | TOTAL FREE ENERGY        -248.946337078039 Eh   |
          | GRADIENT NORM               0.000148550833 Eh/α |
           -------------------------------------------------

 * finished run on 2025/08/27 at 23:39:17.872
