   * xtb version 6.7.1 (edcfbbe) compiled by 'albert@albert-system' on 2024-07-22

   ID    Z sym.   atoms
    1    6 C      1-7, 9-20, 22-27, 29-40, 42-46, 48-55, 57-62, 64-71, 73-91,
                  93, 94
    2    8 O      8, 28, 56, 72
    3    7 N      21, 41, 47, 63, 92
    4    1 H      95-167

          program call               : xtb data2507/gas/DVCz-2CzCN/DVCz-2CzCN_gas_S0_crest.xyz --gfn 2 --ohess vtight --parallel 40 --molden --ceasefiles --namespace data2507/gas/DVCz-2CzCN/DVCz-2CzCN_gas_S0_finalOpt
          :  Hamiltonian                  GFN2-xTB          :
 * total energy  :  -250.2603637 Eh     change       -0.7097611E-08 Eh
 * total energy  :  -250.2603800 Eh     change       -0.1621254E-04 Eh
 * total energy  :  -250.2603872 Eh     change       -0.7233715E-05 Eh
 * total energy  :  -250.2603972 Eh     change       -0.9990837E-05 Eh
 * total energy  :  -250.2604028 Eh     change       -0.5607071E-05 Eh
 * total energy  :  -250.2604066 Eh     change       -0.3827855E-05 Eh
 * total energy  :  -250.2604100 Eh     change       -0.3366063E-05 Eh
 * total energy  :  -250.2604136 Eh     change       -0.3626959E-05 Eh
 * total energy  :  -250.2604230 Eh     change       -0.9343499E-05 Eh
 * total energy  :  -250.2604379 Eh     change       -0.1498773E-04 Eh
 * total energy  :  -250.2605820 Eh     change       -0.3217976E-06 Eh
 * total energy  :  -250.2605824 Eh     change       -0.3365576E-06 Eh
 * total energy  :  -250.2605827 Eh     change       -0.3444241E-06 Eh
 * total energy  :  -250.2605831 Eh     change       -0.3707712E-06 Eh
 * total energy  :  -250.2605835 Eh     change       -0.3852595E-06 Eh
 * total energy  :  -250.2605839 Eh     change       -0.3897872E-06 Eh
 * total energy  :  -250.2605843 Eh     change       -0.3818374E-06 Eh
 * total energy  :  -250.2605846 Eh     change       -0.3541279E-06 Eh
 * total energy  :  -250.2605846 Eh     change       -0.2429857E-08 Eh
   *** GEOMETRY OPTIMIZATION CONVERGED AFTER 94 ITERATIONS ***

 final structure:
================
167
 xtb: 6.7.1 (edcfbbe)
C           -5.52987296790077       -8.07871871760452        0.59392834513771
C           -5.53852284421354       -6.92831500503827       -0.06794199751471
C           -4.83282520025664       -5.71041592906063        0.31000217809661
C           -4.31872546897342       -5.49909975132996        1.58914322384944
C           -3.62930568476939       -4.34244631929683        1.89085425323506
C           -3.41749328757627       -3.37074084318966        0.92090216906561
C           -2.59594896562243       -2.14386045301973        1.22472106963905
O           -2.91170658701416       -1.03787893305818        0.40814058297602
C           -4.13057696123611       -0.44270960516212        0.57313447413643
C           -5.05162431178501       -0.77472074246683        1.55362688986511
C           -6.25732581622687       -0.08815760887476        1.66376554582347
C           -6.60167868077005        0.93286130682900        0.80462764380544
C           -5.69939168757892        1.25573322399504       -0.20095406293285
C           -4.46367915521037        0.58078366628755       -0.32155119985983
C           -3.80035646140427        1.14640446666395       -1.46018232674318
C           -2.60353362650456        0.87735324799030       -2.10951868987554
C           -2.26746245257465        1.62414939636887       -3.22020337396921
C           -3.11190453464685        2.62391277984028       -3.69430048287610
C           -4.32102402614942        2.89183311396337       -3.08293466369362
C           -4.66554878746058        2.14525496640170       -1.96519117838303
N           -5.80793937946813        2.18998642103745       -1.20198652011160
C           -6.99362393845570        2.91761602662575       -1.56852663710657
C           -6.94624545422576        4.40054935854905       -1.18586260632477
C           -7.20585425619701        4.64048054795472        0.29972852581905
C           -7.27608555906822        6.13267796497756        0.65396981814367
C           -5.96645861571852        6.73611896626195        1.16567616059358
C           -4.78086946781411        6.57625418819488        0.21645652549391
O           -4.25613645198372        5.27967997868863        0.41052595691905
C           -3.12544317848827        4.91080975312240       -0.24689638475414
C           -2.58044883954476        5.56278716108019       -1.34228663827174
C           -1.43145814171651        5.07825921003336       -1.96086307695466
C           -0.76172322417457        3.96547902838834       -1.49867538048853
C           -1.27193884674010        3.33822112960331       -0.37117571786780
C           -2.46696392404816        3.77294785949253        0.23244911948149
C           -2.73836984243162        2.87871010793225        1.32111056537749
C           -3.74482121260347        2.80508040132722        2.27424969665205
C           -3.67456515096210        1.81619668854235        3.23425917600052
C           -2.60828181544190        0.92149685144130        3.26483346187795
C           -1.59773460942632        0.97132994268249        2.32304674830409
C           -1.68483645610851        1.94032000568738        1.33637538132793
N           -0.80164292532235        2.23176322578482        0.31209217299665
C            0.34180234600565        1.49117333813116        0.02056362445619
C            0.24350302583357        0.11137174986540       -0.12660886359140
C            1.35787432212103       -0.63835795445293       -0.44757019485668
C            2.59389537270987       -0.03443448544941       -0.58554720392461
C            2.73033013702099        1.33445113748965       -0.39185664001437
N            4.00284558144977        1.91065112804302       -0.46456158196133
C            4.65301626764974        2.58448365908285        0.55782555426983
C            4.17040323004265        3.03001456368776        1.77749591135969
C            5.05835049339812        3.65701199754139        2.63132252771281
C            6.39693162575461        3.83414392719523        2.29138457979948
C            6.88832630641098        3.37882348796460        1.08455988358096
C            6.01319914833554        2.74396086213862        0.21282422468631
C            6.18489679268677        2.13584738486755       -1.07661391199547
C            7.30071669643305        1.92437661363458       -1.89287293966629
O            8.52051417858621        2.36079237750067       -1.45114933197178
C            9.62330555273079        1.48367812601269       -1.58068575771201
C            9.87526887809372        0.68266944597075       -0.29221595191891
C            8.63633728881982       -0.02995809823266        0.25672356387073
C            8.09457152926898       -1.13636707375892       -0.65210812505777
C            6.62723368242186       -1.45812600366218       -0.37194224819842
C            6.39436219298294       -2.09860255486232        1.00020020702870
N            4.99430273935246       -2.31167858955557        1.25251189040048
C            4.16735763953053       -1.48580105193201        1.97816119779059
C            4.45142737344239       -0.30510793440640        2.64978827650024
C            3.42336483640852        0.31009126528782        3.33768030391435
C            2.13220708488834       -0.21283855816110        3.34419932641677
C            1.83749924399348       -1.38053387983706        2.67056642596055
C            2.85944735555157       -2.02770502015518        1.98877265405295
C            2.91748828210388       -3.23214536502516        1.21460559691925
C            1.96550819766711       -4.20350689720102        0.88300098176953
O            0.69945477890351       -4.01507729304539        1.36139113812941
C           -0.18457266914655       -5.11220942624346        1.35257417060706
C           -0.84414947909274       -5.39827034051403        0.02636434086398
C           -0.81249511583347       -4.48748060838149       -1.01867517028515
C           -1.46508230338801       -4.76098254422900       -2.20411380695672
C           -2.18512337317711       -5.94269805564473       -2.37334325833048
C           -2.90054357606871       -6.16816976689221       -3.62328120214235
C           -3.84308406294223       -7.07918422528698       -3.83194457381996
C           -2.19637433763643       -6.86118772004299       -1.32282914994958
C           -1.53464439251477       -6.59249333506171       -0.14429973927471
C            2.37167666682087       -5.27629916917675        0.10488137444229
C            3.69283487509193       -5.38525286953953       -0.32430818021841
C            4.65069781779241       -4.44688567803320       -0.00210971228285
C            4.25257933343699       -3.36398888925634        0.77349793802918
C            7.09482411066915        1.30259966254072       -3.11760584100053
C            5.82981720375716        0.87234596329732       -3.50409298619429
C            4.72777145746465        1.01684188303567       -2.68537760419985
C            4.92148290218470        1.64113665008219       -1.46087958314133
C            1.59643643454475        2.11390013548707       -0.10636566242393
C            1.72613184455746        3.51108990105409        0.05942231310409
N            1.84448113488118        4.64430818146477        0.19197437056098
C           -3.94673898287093       -3.56275058642376       -0.34759097790693
C           -4.65453891657662       -4.70867249422956       -0.64364875103370
H           -6.07109208953059       -8.93803661795698        0.23615200633649
H           -4.98160221567442       -8.21563279383963        1.51045441959389
H           -6.08735749447683       -6.85911502981074       -0.99956240658701
H           -4.47300915813015       -6.23897501478266        2.35961006735641
H           -3.25149394495884       -4.18890373764591        2.89316482416921
H           -1.54266383845096       -2.36173638637518        1.00766555140120
H           -2.67158052407287       -1.87557535618159        2.28678416500534
H           -4.85524541997002       -1.57462721369861        2.24856714376213
H           -6.94111117430221       -0.37299313273621        2.44986674588695
H           -7.54000690422607        1.45304001222155        0.91550266726549
H           -1.95991327726283        0.08828555972623       -1.75757617999473
H           -1.33695545332182        1.43119009373318       -3.73428835484401
H           -2.81953148362279        3.19586730543572       -4.56264327842409
H           -4.97344878389507        3.65869157324018       -3.47268950210020
H           -7.85470638915637        2.43770463000834       -1.09681301915240
H           -7.11569283943337        2.83333310501108       -2.65518091202697
H           -5.96824628724857        4.78945818911746       -1.46306448591599
H           -7.70417776756243        4.92817002215269       -1.77117611366104
H           -6.42405271953875        4.15729168718979        0.88451276722986
H           -8.15903124224694        4.17189738661916        0.55884895853534
H           -7.61030884092174        6.69431461674532       -0.22204958659146
H           -8.02496616748919        6.28006914685705        1.43533455935924
H           -6.12326275241787        7.80077381901005        1.34955210707191
H           -5.69334245346168        6.26649514242380        2.11219385511639
H           -4.00640993515564        7.32090553459359        0.45008938701526
H           -5.10167496569946        6.73069666188143       -0.82221307147378
H           -3.04522316574415        6.45215767122864       -1.73829442324561
H           -1.05276485545561        5.59932229389937       -2.82705845833518
H            0.12338437867185        3.60740259266126       -1.99936913217999
H           -4.55404484424507        3.51692242441270        2.26202316050352
H           -4.44997664347534        1.73821685559869        3.98182608689995
H           -2.56692300572162        0.17708058461146        4.04772773985001
H           -0.76533057865648        0.28476092010739        2.36091160541692
H           -0.72274358288855       -0.35053564323753       -0.00767110846765
H            1.27407416712856       -1.70548963523243       -0.58068946213049
H            3.46676082250938       -0.62593242114859       -0.81324378453482
H            3.13869862005323        2.89555550221757        2.05981593170009
H            4.70291575602280        4.02048144204169        3.58419924602773
H            7.05657029593791        4.33410529287891        2.98506580173560
H            7.92325876597169        3.50758516509778        0.80918581063376
H            9.49000948119223        0.80254686372857       -2.42544512267123
H           10.49448940888067        2.11398807666600       -1.78584210524040
H           10.66825267537540       -0.03985726502039       -0.49631041272345
H           10.23327788510433        1.37210040196920        0.47458998792816
H            7.85817401124078        0.71580254866718        0.42289663437869
H            8.89656110380725       -0.45262449292552        1.22964826927513
H            8.70108511676018       -2.03830320484758       -0.54033416471193
H            8.16273488229377       -0.82035182990717       -1.69347965736245
H            6.04647775824414       -0.53554713449611       -0.43156864932153
H            6.25160443616273       -2.13514976556704       -1.14307217364623
H            6.91457115010859       -3.06045796842045        1.05657959778652
H            6.78657277526274       -1.45175869957876        1.78679059014241
H            5.43936820938106        0.13095677887982        2.64505653139426
H            3.62943891137443        1.21640876975250        3.88629512932360
H            1.35812403891077        0.30642068898776        3.89069001854788
H            0.84361443719847       -1.80070671942805        2.67264183960489
H           -0.96525514302655       -4.84554322054578        2.07580935413379
H            0.32413975036705       -6.01373842754140        1.72208341820558
H           -0.27243197825196       -3.55944229770680       -0.90322505153943
H           -1.43326213612845       -4.03842009898307       -3.00726408243280
H           -2.63346024175642       -5.49200179559061       -4.42667124668950
H           -4.16972581336766       -7.76030808844070       -3.06451220665320
H           -4.33345447080627       -7.17139742731858       -4.78607722569246
H           -2.72364382655804       -7.79615571532106       -1.42949604385930
H           -1.55540554084641       -7.31340126597068        0.66071353988289
H            1.66586119163676       -6.03688482516260       -0.19022027238043
H            3.96751493530335       -6.23665889517794       -0.92920049894241
H            5.66857292708699       -4.55829977145991       -0.34099918249351
H            7.92196422510135        1.15773289719814       -3.79676967122148
H            5.71337997374758        0.40506123140234       -4.47054562481075
H            3.75521465460910        0.66299176169652       -2.98980056531809
H           -3.80210283268034       -2.80458671264313       -1.10279541167110
H           -5.05796293837576       -4.84426059182116       -1.63694247431117

          :  Hamiltonian                  GFN2-xTB          :
         :: gradient norm              0.000033851112 Eh/a0 ::
         :: HOMO-LUMO gap              2.150147799826 eV    ::
         :: SCC energy              -254.569322175854 Eh    ::
         :: -> dispersion             -0.282928161691 Eh    ::
         :: repulsion energy           4.308737561314 Eh    ::

    * Orbital Energies and Occupations

         #    Occupation            Energy/Eh            Energy/eV
      -------------------------------------------------------------
         1        2.0000           -0.7149210             -19.4540
       ...           ...                  ...                  ...
       219        2.0000           -0.3916015             -10.6560
       220        2.0000           -0.3847590             -10.4698
       221        2.0000           -0.3845581             -10.4644
       222        2.0000           -0.3832181             -10.4279
       223        2.0000           -0.3816405             -10.3850
       224        2.0000           -0.3723154             -10.1312
       225        2.0000           -0.3697269             -10.0608
       226        2.0000           -0.3643256              -9.9138
       227        2.0000           -0.3605238              -9.8104
       228        2.0000           -0.3587718              -9.7627
       229        2.0000           -0.3574979              -9.7280
       230        2.0000           -0.3513454              -9.5606
       231        2.0000           -0.3478227              -9.4647 (HOMO)
       232                         -0.2688062              -7.3146 (LUMO)
       233                         -0.2527091              -6.8766
       234                         -0.2512491              -6.8368
       235                         -0.2460588              -6.6956
       236                         -0.2388062              -6.4982
       237                         -0.2386865              -6.4950
       238                         -0.2309559              -6.2846
       239                         -0.2285586              -6.2194
       240                         -0.2257453              -6.1428
       241                         -0.2222230              -6.0470
       242                         -0.2188236              -5.9545
       ...                                ...                  ...
       449                          1.1766145              32.0173
      -------------------------------------------------------------
                  HL-Gap            0.0790165 Eh            2.1501 eV

     #   Z          covCN         q      C6AA      α(0)
     1   6 C        2.838    -0.087    30.174     9.002
     2   6 C        2.896    -0.028    28.704     8.784
     3   6 C        2.972     0.013    27.724     8.637
     4   6 C        2.924    -0.034    28.853     8.809
     5   6 C        2.922    -0.042    29.044     8.838
     6   6 C        2.969    -0.001    28.039     8.686
     7   6 C        3.701     0.082    19.365     6.293
     8   8 O        1.705    -0.278    18.611     5.825
     9   6 C        2.858     0.141    24.925     8.183
    10   6 C        2.918    -0.079    29.964     8.976
    11   6 C        2.926    -0.036    28.888     8.814
    12   6 C        2.909    -0.065    29.606     8.922
    13   6 C        3.085     0.046    26.870     8.497
    14   6 C        3.073    -0.040    28.913     8.816
    15   6 C        3.070    -0.011    28.224     8.711
    16   6 C        2.913    -0.036    28.894     8.814
    17   6 C        2.920    -0.043    29.071     8.842
    18   6 C        2.924    -0.035    28.875     8.812
    19   6 C        2.910    -0.053    29.315     8.878
    20   6 C        3.088     0.044    26.915     8.504
    21   7 N        2.798    -0.046    22.122     6.986
    22   6 C        3.740     0.001    20.639     6.482
    23   6 C        3.801    -0.061    21.679     6.629
    24   6 C        3.800    -0.059    21.630     6.622
    25   6 C        3.800    -0.059    21.629     6.622
    26   6 C        3.800    -0.064    21.724     6.636
    27   6 C        3.691     0.087    19.311     6.289
    28   8 O        1.706    -0.270    18.471     5.803
    29   6 C        2.857     0.140    24.938     8.185
    30   6 C        2.918    -0.078    29.950     8.974
    31   6 C        2.927    -0.030    28.761     8.795
    32   6 C        2.909    -0.054    29.347     8.883
    33   6 C        3.071     0.050    26.801     8.488
    34   6 C        3.076    -0.035    28.780     8.796
    35   6 C        3.068    -0.005    28.073     8.688
    36   6 C        2.914    -0.031    28.775     8.796
    37   6 C        2.920    -0.040    28.987     8.829
    38   6 C        2.925    -0.033    28.831     8.805
    39   6 C        2.910    -0.047    29.178     8.857
    40   6 C        3.078     0.050    26.805     8.488
    41   7 N        2.808    -0.039    21.998     6.966
    42   6 C        2.917     0.077    26.290     8.408
    43   6 C        2.922    -0.048    29.190     8.860
    44   6 C        2.918    -0.018    28.467     8.749
    45   6 C        2.922    -0.045    29.127     8.850
    46   6 C        2.919     0.073    26.369     8.421
    47   7 N        2.804    -0.048    22.162     6.992
    48   6 C        3.071     0.049    26.834     8.494
    49   6 C        2.910    -0.043    29.057     8.839
    50   6 C        2.925    -0.029    28.737     8.791
    51   6 C        2.921    -0.039    28.980     8.828
    52   6 C        2.912    -0.034    28.835     8.805
    53   6 C        3.071    -0.009    28.161     8.701
    54   6 C        3.068    -0.034    28.786     8.798
    55   6 C        2.857     0.144    24.866     8.173
    56   8 O        1.704    -0.286    18.743     5.845
    57   6 C        3.693     0.080    19.410     6.304
    58   6 C        3.798    -0.067    21.783     6.645
    59   6 C        3.801    -0.058    21.622     6.620
    60   6 C        3.801    -0.061    21.667     6.627
    61   6 C        3.802    -0.061    21.666     6.627
    62   6 C        3.740    -0.000    20.662     6.486
    63   7 N        2.800    -0.051    22.216     7.000
    64   6 C        3.082     0.042    26.960     8.512
    65   6 C        2.910    -0.052    29.303     8.876
    66   6 C        2.924    -0.035    28.883     8.813
    67   6 C        2.920    -0.044    29.084     8.844
    68   6 C        2.912    -0.035    28.863     8.810
    69   6 C        3.072    -0.013    28.272     8.718
    70   6 C        3.073    -0.041    28.946     8.821
    71   6 C        2.859     0.139    24.965     8.190
    72   8 O        1.705    -0.279    18.632     5.828
    73   6 C        3.701     0.080    19.398     6.298
    74   6 C        2.969    -0.004    28.110     8.697
    75   6 C        2.921    -0.029    28.729     8.790
    76   6 C        2.928    -0.033    28.834     8.806
    77   6 C        2.972     0.014    27.707     8.634
    78   6 C        2.896    -0.029    28.730     8.788
    79   6 C        2.838    -0.086    30.156     8.999
    80   6 C        2.924    -0.031    28.770     8.796
    81   6 C        2.923    -0.040    29.003     8.832
    82   6 C        2.917    -0.079    29.986     8.980
    83   6 C        2.925    -0.036    28.899     8.816
    84   6 C        2.908    -0.065    29.617     8.924
    85   6 C        3.082     0.043    26.937     8.509
    86   6 C        2.919    -0.072    29.798     8.952
    87   6 C        2.925    -0.035    28.881     8.813
    88   6 C        2.909    -0.061    29.507     8.907
    89   6 C        3.075     0.047    26.865     8.498
    90   6 C        2.974    -0.012    28.312     8.728
    91   6 C        1.909     0.121    28.132     8.566
    92   7 N        0.911    -0.239    26.245     7.409
    93   6 C        2.922    -0.029    28.736     8.791
    94   6 C        2.928    -0.032    28.810     8.802
    95   1 H        0.926     0.036     2.498     2.472
    96   1 H        0.926     0.038     2.476     2.460
    97   1 H        0.925     0.035     2.517     2.481
    98   1 H        0.926     0.037     2.494     2.470
    99   1 H        0.925     0.024     2.674     2.557
   100   1 H        0.924     0.061     2.188     2.313
   101   1 H        0.923     0.034     2.532     2.489
   102   1 H        0.926     0.028     2.619     2.531
   103   1 H        0.926     0.029     2.601     2.522
   104   1 H        0.926     0.026     2.643     2.542
   105   1 H        0.926     0.034     2.530     2.487
   106   1 H        0.926     0.019     2.743     2.590
   107   1 H        0.926     0.025     2.663     2.552
   108   1 H        0.926     0.022     2.706     2.572
   109   1 H        0.924     0.048     2.347     2.396
   110   1 H        0.924     0.042     2.428     2.437
   111   1 H        0.925     0.051     2.312     2.378
   112   1 H        0.924     0.031     2.576     2.510
   113   1 H        0.925     0.057     2.235     2.338
   114   1 H        0.924     0.027     2.636     2.539
   115   1 H        0.924     0.033     2.546     2.495
   116   1 H        0.924     0.035     2.513     2.479
   117   1 H        0.924     0.037     2.486     2.466
   118   1 H        0.924     0.055     2.255     2.348
   119   1 H        0.923     0.026     2.641     2.541
   120   1 H        0.923     0.028     2.616     2.529
   121   1 H        0.926     0.028     2.612     2.527
   122   1 H        0.926     0.036     2.502     2.474
   123   1 H        0.926     0.026     2.640     2.541
   124   1 H        0.926     0.039     2.462     2.454
   125   1 H        0.926     0.026     2.640     2.541
   126   1 H        0.926     0.023     2.695     2.567
   127   1 H        0.926     0.029     2.600     2.521
   128   1 H        0.926     0.073     2.058     2.243
   129   1 H        0.926     0.048     2.348     2.396
   130   1 H        0.926     0.044     2.393     2.419
   131   1 H        0.926     0.029     2.603     2.523
   132   1 H        0.926     0.032     2.560     2.502
   133   1 H        0.926     0.030     2.591     2.517
   134   1 H        0.926     0.046     2.370     2.407
   135   1 H        0.924     0.029     2.599     2.521
   136   1 H        0.924     0.043     2.412     2.429
   137   1 H        0.924     0.035     2.519     2.482
   138   1 H        0.924     0.045     2.384     2.415
   139   1 H        0.924     0.049     2.338     2.391
   140   1 H        0.924     0.029     2.607     2.525
   141   1 H        0.924     0.031     2.576     2.510
   142   1 H        0.924     0.038     2.471     2.458
   143   1 H        0.924     0.037     2.487     2.466
   144   1 H        0.924     0.036     2.504     2.474
   145   1 H        0.924     0.045     2.378     2.411
   146   1 H        0.924     0.053     2.288     2.366
   147   1 H        0.926     0.022     2.702     2.571
   148   1 H        0.926     0.031     2.577     2.510
   149   1 H        0.926     0.026     2.649     2.545
   150   1 H        0.926     0.036     2.506     2.475
   151   1 H        0.924     0.053     2.279     2.361
   152   1 H        0.923     0.036     2.508     2.477
   153   1 H        0.926     0.037     2.494     2.470
   154   1 H        0.926     0.036     2.507     2.476
   155   1 H        0.925     0.035     2.510     2.477
   156   1 H        0.926     0.040     2.451     2.448
   157   1 H        0.926     0.037     2.486     2.466
   158   1 H        0.926     0.038     2.478     2.462
   159   1 H        0.926     0.026     2.644     2.543
   160   1 H        0.926     0.030     2.586     2.515
   161   1 H        0.926     0.030     2.580     2.512
   162   1 H        0.926     0.027     2.631     2.537
   163   1 H        0.926     0.030     2.581     2.512
   164   1 H        0.926     0.034     2.537     2.491
   165   1 H        0.926     0.029     2.597     2.520
   166   1 H        0.926     0.042     2.423     2.434
   167   1 H        0.926     0.033     2.546     2.495

molecular dipole:
                 x           y           z       tot (Debye)
 q only:       -0.418      -1.293      -0.207
   full:       -0.379      -1.921      -0.422       5.090

 projected vibrational frequencies (cm⁻¹)
eigval :       -0.00    -0.00    -0.00     0.00     0.00     0.00
eigval :        9.26    11.79    12.42    13.24    16.95    19.62
eigval :       20.79    22.07    24.68    27.39    28.84    31.05
eigval :       35.85    40.49    45.42    45.67    52.21    57.56
eigval :       58.27    62.24    63.76    65.10    68.27    70.15
eigval :       73.71    76.88    79.33    81.89    84.46    85.63
eigval :       89.99    99.86   100.66   106.00   109.69   114.60
eigval :      117.25   121.27   122.48   125.98   129.02   133.34
eigval :      134.03   136.26   138.44   146.71   158.37   162.76
eigval :      165.94   166.91   173.62   186.47   195.04   202.27
eigval :      202.65   205.60   213.58   222.54   229.53   234.41
eigval :      240.97   243.47   248.96   250.72   253.02   258.06
eigval :      258.97   264.48   265.24   277.30   279.82   285.01
eigval :      289.20   294.34   298.59   299.06   304.91   306.10
eigval :      310.74   313.11   323.55   326.10   333.70   338.35
eigval :      345.47   347.27   361.23   367.75   371.17   376.36
eigval :      385.59   395.09   403.44   403.97   411.13   411.59
eigval :      413.00   415.99   417.69   418.59   419.85   423.23
eigval :      425.78   433.90   436.86   455.15   456.32   485.09
eigval :      490.27   496.89   499.59   503.61   504.97   507.00
eigval :      514.85   516.87   527.82   528.92   535.80   538.98
eigval :      539.37   540.48   541.32   542.62   544.44   547.35
eigval :      548.90   552.65   554.52   561.46   561.97   568.92
eigval :      574.28   578.67   583.46   585.99   591.26   602.58
eigval :      602.73   604.60   611.83   612.76   619.26   619.74
eigval :      633.81   635.87   638.67   647.06   667.60   669.33
eigval :      670.11   670.13   673.67   684.80   688.16   697.56
eigval :      698.80   701.30   702.41   706.93   707.35   707.67
eigval :      717.40   735.66   741.92   743.53   752.68   758.94
eigval :      763.04   770.05   770.80   771.49   774.15   777.55
eigval :      778.91   779.12   781.40   782.70   786.46   788.35
eigval :      796.22   804.67   806.59   808.35   813.60   816.11
eigval :      825.35   834.65   842.21   850.35   851.96   853.99
eigval :      854.23   855.96   857.25   865.28   866.21   866.94
eigval :      867.49   869.58   870.44   875.29   876.82   888.68
eigval :      890.56   897.61   901.90   902.18   902.90   904.22
eigval :      905.39   905.95   908.51   909.60   910.12   911.39
eigval :      911.76   916.72   916.90   920.70   922.04   922.50
eigval :      922.94   924.83   928.20   931.79   934.38   946.01
eigval :      946.76   952.39   963.08   968.38   988.06   991.33
eigval :      993.79   999.91  1001.59  1003.73  1004.35  1006.33
eigval :     1011.88  1014.04  1015.00  1015.98  1028.78  1034.23
eigval :     1035.24  1040.79  1053.04  1056.48  1067.94  1069.06
eigval :     1072.35  1073.74  1073.84  1079.87  1081.94  1095.20
eigval :     1099.01  1104.13  1110.77  1112.90  1115.47  1118.08
eigval :     1123.14  1123.85  1127.82  1132.22  1133.91  1136.05
eigval :     1136.38  1138.33  1142.45  1146.05  1147.79  1149.86
eigval :     1156.21  1156.93  1165.64  1168.41  1177.87  1178.27
eigval :     1183.82  1184.63  1187.16  1187.30  1192.53  1195.34
eigval :     1195.55  1197.24  1199.42  1200.17  1203.11  1205.16
eigval :     1206.40  1209.36  1210.62  1213.29  1216.59  1218.54
eigval :     1221.88  1231.25  1232.91  1234.47  1235.19  1240.67
eigval :     1246.56  1248.25  1249.65  1250.31  1258.34  1259.43
eigval :     1261.87  1263.48  1265.11  1270.95  1275.80  1277.12
eigval :     1283.77  1287.28  1288.02  1294.93  1295.71  1296.44
eigval :     1298.00  1301.46  1304.10  1304.52  1310.80  1313.42
eigval :     1314.60  1316.87  1320.64  1322.84  1333.00  1335.36
eigval :     1336.47  1339.12  1341.41  1341.97  1344.46  1344.60
eigval :     1346.95  1355.86  1358.38  1359.34  1359.92  1360.56
eigval :     1362.91  1363.25  1364.36  1364.94  1366.21  1370.68
eigval :     1372.58  1374.21  1375.10  1379.88  1381.48  1407.75
eigval :     1411.64  1412.25  1415.73  1418.32  1418.95  1420.04
eigval :     1421.91  1423.30  1429.01  1440.51  1442.10  1446.11
eigval :     1451.62  1455.08  1458.97  1462.76  1464.39  1467.15
eigval :     1467.28  1472.27  1473.51  1478.68  1480.41  1481.39
eigval :     1486.22  1487.16  1487.50  1488.00  1492.08  1494.52
eigval :     1495.08  1495.39  1496.25  1497.63  1500.39  1500.45
eigval :     1500.90  1555.49  1566.72  1574.43  1575.08  1575.86
eigval :     1576.52  1577.05  1579.76  1587.72  1589.68  1591.12
eigval :     1592.81  1593.19  1595.19  1595.74  1597.70  1604.85
eigval :     1605.03  1609.26  1610.81  1614.61  1615.83  1676.50
eigval :     1677.62  2362.48  2870.92  2882.93  2894.19  2901.53
eigval :     2919.96  2926.34  2928.24  2940.89  2942.29  2954.69
eigval :     2956.38  2962.04  2963.90  2964.34  2971.20  2972.73
eigval :     2975.38  2977.57  2978.55  2985.10  2991.72  2993.37
eigval :     2996.44  2996.70  3004.14  3013.61  3020.21  3031.68
eigval :     3044.88  3045.29  3056.26  3066.18  3070.76  3072.26
eigval :     3072.93  3074.89  3075.51  3077.62  3077.66  3078.31
eigval :     3078.56  3078.93  3081.58  3084.18  3085.79  3088.30
eigval :     3088.51  3088.57  3089.77  3090.85  3091.67  3093.33
eigval :     3095.01  3095.50  3096.02  3097.83  3098.37  3099.35
eigval :     3099.55  3100.46  3104.89  3104.97  3105.30  3106.77
eigval :     3107.66  3108.35  3108.84  3111.27  3114.15  3120.42
eigval :     3128.47  3129.39  3131.02

   temp. (K)  partition function   enthalpy   heat capacity  entropy
                                   cal/mol     cal/K/mol   cal/K/mol   J/K/mol
 298.15  VIB  0.129E+40            49242.348    301.857    310.513
         ROT  0.387E+09              888.752      2.981     42.279
         INT  0.501E+48            50131.100    304.838    352.792
         TR   0.417E+29             1481.254      4.968     47.174
         TOT                       51612.3538   309.8058   399.9654  1673.4552

       T/K    H(0)-H(T)+PV         H(T)/Eh          T*S/Eh         G(T)/Eh
   ------------------------------------------------------------------------
    298.15    0.822495E-01    0.141750E+01    0.190036E+00    0.122747E+01
   ------------------------------------------------------------------------

         :::::::::::::::::::::::::::::::::::::::::::::::::::::
         ::                  THERMODYNAMIC                  ::
         :::::::::::::::::::::::::::::::::::::::::::::::::::::
         :: total free energy        -249.033118111894 Eh   ::
         ::.................................................::
         :: total energy             -250.260584614539 Eh   ::
         :: zero point energy           1.335253447980 Eh   ::
         :: G(RRHO) w/o ZPVE           -0.107786945336 Eh   ::
         :: G(RRHO) contrib.            1.227466502644 Eh   ::
         :::::::::::::::::::::::::::::::::::::::::::::::::::::

           -------------------------------------------------
          | TOTAL ENERGY             -250.260584614539 Eh   |
          | TOTAL ENTHALPY           -248.843081645385 Eh   |
          | TOTAL FREE ENERGY        -249.033118111894 Eh   |
          | GRADIENT NORM               0.000033841023 Eh/α |
          | HOMO-LUMO GAP               2.150148182264 eV   |
           -------------------------------------------------

 * finished run on 2025/08/27 at 00:31:21.650
