   * xtb version 6.7.1 (edcfbbe) compiled by 'albert@albert-system' on 2024-07-22

   ID    Z sym.   atoms
    1    6 C      1-7, 9-20, 22-27, 29-40, 42-46, 48-55, 57-62, 64-71, 73-91,
                  93, 94
    2    8 O      8, 28, 56, 72
    3    7 N      21, 41, 47, 63, 92
    4    1 H      95-167

          program call               : xtb data2507/gas/DVCz-2CzCN/DVCz-2CzCN_gas_S0_finalOpt.xtbopt.xyz --gfn 2 --spinpol --tblite --uhf 2 --ohess vtight --parallel 40 --molden --ceasefiles --namespace data2507/gas/DVCz-2CzCN/DVCz-2CzCN_gas_T1_preOpt
 * total energy  :  -250.1598830 Eh     change       -0.2524231E-07 Eh
 * total energy  :  -250.1621058 Eh     change       -0.2222807E-02 Eh
 * total energy  :  -250.1628998 Eh     change       -0.7939663E-03 Eh
 * total energy  :  -250.1629092 Eh     change       -0.9379407E-05 Eh
 * total energy  :  -250.1630421 Eh     change       -0.1329883E-03 Eh
 * total energy  :  -250.1630633 Eh     change       -0.2110676E-04 Eh
 * total energy  :  -250.1630874 Eh     change       -0.2417738E-04 Eh
 * total energy  :  -250.1631002 Eh     change       -0.1279480E-04 Eh
 * total energy  :  -250.1631313 Eh     change       -0.3109227E-04 Eh
 * total energy  :  -250.1631510 Eh     change       -0.1969424E-04 Eh
 * total energy  :  -250.1632912 Eh     change       -0.2284606E-06 Eh
 * total energy  :  -250.1632916 Eh     change       -0.4321581E-06 Eh
 * total energy  :  -250.1632923 Eh     change       -0.7014149E-06 Eh
 * total energy  :  -250.1632929 Eh     change       -0.6124979E-06 Eh
 * total energy  :  -250.1632930 Eh     change       -0.4951619E-07 Eh
 * total energy  :  -250.1632931 Eh     change       -0.1092644E-06 Eh
 * total energy  :  -250.1632932 Eh     change       -0.1532537E-06 Eh
 * total energy  :  -250.1632934 Eh     change       -0.1537202E-06 Eh
 * total energy  :  -250.1632934 Eh     change       -0.2124713E-07 Eh
   *** GEOMETRY OPTIMIZATION CONVERGED AFTER 72 ITERATIONS ***

 final structure:
================
167
 xtb: 6.7.1 (edcfbbe)
C           -5.67662292460027       -8.02530859826103        0.57789752261249
C           -5.55822907523895       -6.91718735223320       -0.14888362391162
C           -4.86249367427584       -5.69910158928218        0.23069227767859
C           -4.38811065416323       -5.46120469642042        1.52297138130958
C           -3.70354419568953       -4.30276239834545        1.82338910085901
C           -3.45619745691885       -3.34963799106718        0.84234801656033
C           -2.63803522106965       -2.12146437576352        1.14624292812594
O           -2.97371015016664       -1.00833703289094        0.34166942350241
C           -4.18472683065631       -0.42091514658368        0.52029964692615
C           -5.09994255061402       -0.75838877000222        1.51031445259963
C           -6.30407279752885       -0.07534361555242        1.63468994602496
C           -6.65976985531477        0.94938588501492        0.78110097121719
C           -5.76716187889921        1.27713196324119       -0.23148225057660
C           -4.53016522541960        0.60807123454253       -0.36375161277856
C           -3.87624243243071        1.18097969318230       -1.50462918119531
C           -2.67884677956100        0.92387408392549       -2.15641867520470
C           -2.35486506033187        1.67567699037871       -3.26827763112555
C           -3.21112004967526        2.66761221542798       -3.73979132132163
C           -4.41917857189074        2.92636446936759       -3.12274019451482
C           -4.75163755556194        2.17584705011449       -2.00274918079153
N           -5.88736609853274        2.21278325079071       -1.23125783043688
C           -7.07308991528412        2.95085558116646       -1.57498018891171
C           -7.00234629886703        4.43249936793894       -1.19020223829933
C           -7.21032017592787        4.66988296994586        0.30391193211534
C           -7.24399471485936        6.16202877526469        0.66437671761842
C           -5.91197389348660        6.73729906196422        1.15001376350565
C           -4.75008514052668        6.56110913889574        0.17469652063794
O           -4.24193498626666        5.25356753516228        0.35299602922354
C           -3.12222369980933        4.87194523301324       -0.30633196598170
C           -2.57621196790772        5.52368409518472       -1.41071848706682
C           -1.43524918838255        5.03619812947403       -2.03701263324129
C           -0.77100769913616        3.91331143065495       -1.57942007684714
C           -1.28045484902755        3.28487427958409       -0.45105132830905
C           -2.47193845071408        3.72827235199612        0.16450918411490
C           -2.73318629005707        2.83550075110364        1.25382978669048
C           -3.73025393559840        2.75111493618437        2.21523456568282
C           -3.63985000743614        1.76256859276419        3.17579688489011
C           -2.56313180825470        0.87483928826946        3.20030818444814
C           -1.56542704596185        0.92909053131641        2.24713363271617
C           -1.66760522203956        1.89984419781974        1.25880971236574
N           -0.80707462966416        2.18268826515435        0.22645601097059
C            0.34928260038955        1.45135368314897       -0.06791317007162
C            0.27200392626139        0.08734208121183       -0.21813125033013
C            1.40460629990289       -0.67085124330301       -0.51715131824613
C            2.64494719196939       -0.03932629858409       -0.61001816896638
C            2.77329455715415        1.31599970805186       -0.41133002657264
N            4.04647837270495        1.89450508958887       -0.47158282053471
C            4.67893316323235        2.61480604804420        0.51899525362694
C            4.18227649405236        3.10742982101989        1.71746440975270
C            5.05821013548729        3.77235450329830        2.55548398049679
C            6.40007620131652        3.94511838338458        2.21826068673155
C            6.90691680673629        3.45381343232570        1.02988708304620
C            6.04617157974668        2.77944451653084        0.17387125532997
C            6.22862813506545        2.13223674558238       -1.09042483746006
C            7.34709301604532        1.88562550095934       -1.89324146467153
O            8.56879737157791        2.31631650644996       -1.45657152774939
C            9.66295818919591        1.42534287349488       -1.56341129992988
C            9.89631590770527        0.64781059543582       -0.25719125129539
C            8.64480494766272       -0.03880204594882        0.29662555266879
C            8.09849565349261       -1.15927956790381       -0.59208265745115
C            6.62813338316213       -1.46629879469984       -0.31112856725377
C            6.38595864975030       -2.07178194065778        1.07536760028555
N            4.98460949863907       -2.27602105259395        1.32549144362354
C            4.15359044333128       -1.42289710466295        2.01188186309204
C            4.43441631661153       -0.21706696744017        2.64021855347149
C            3.40323665046655        0.42121521295011        3.30107462743702
C            2.11231192555438       -0.10338137905631        3.32182258972335
C            1.82110223812756       -1.29646941287753        2.69187252589083
C            2.84608369346127       -1.96692857779014        2.03934187256614
C            2.91071000550900       -3.20386973443278        1.31836854139470
C            1.96271699834688       -4.19281307231531        1.03107554954063
O            0.70121428723731       -3.99175068060683        1.50252005668053
C           -0.19673022165503       -5.07900928191126        1.50506754000412
C           -0.81975253174935       -5.40822700813845        0.17125154855083
C           -0.74688359109684       -4.53939496780038       -0.90815910051925
C           -1.36875013707587       -4.85284803171412       -2.09914221675961
C           -2.09903074734343       -6.03350326258107       -2.24532652374358
C           -2.77665401150504       -6.29854527466893       -3.50468643113882
C           -3.66718320473668       -7.25865358704998       -3.73605626832763
C           -2.15155295252169       -6.90901957848005       -1.15744955102101
C           -1.52091198263320       -6.60045455684088        0.02732302696987
C            2.37742037284609       -5.29918902980211        0.30093134698659
C            3.69755585575744       -5.41935128882532       -0.12351281521528
C            4.65179397230832       -4.46239198569341        0.15877815536715
C            4.24701345053854       -3.34974126976321        0.88674593551013
C            7.14190963246505        1.23509525769746       -3.10704300034799
C            5.87594572587050        0.80559856084999       -3.49414261473758
C            4.77137697704704        0.97137984272740       -2.67720446514164
C            4.96281513188160        1.62119051111186       -1.46624629996388
C            1.61600059005795        2.13333630011927       -0.15793559198030
C            1.71593867902838        3.50041301732024       -0.00323719811791
N            1.80242474568463        4.65252326956900        0.12463020050813
C           -3.94585310650174       -3.56523071039275       -0.43940204516937
C           -4.64611394382351       -4.71401440891959       -0.73621492558115
H           -6.20525714043807       -8.88618667727933        0.20563809602030
H           -5.25235372185648       -8.12342320564983        1.56234563635527
H           -5.99254620204979       -6.89375330942474       -1.14137836930090
H           -4.56506312473470       -6.18623202056517        2.30242299918453
H           -3.35359371568937       -4.13303137182722        2.83348211283550
H           -1.58621854740443       -2.32484676892386        0.91101526182797
H           -2.70119591514717       -1.86065061144306        2.21065822203899
H           -4.89452105475151       -1.56320895735718        2.19645435813086
H           -6.98097539528994       -0.36417811180438        2.42497467743529
H           -7.59906802653281        1.46528712741050        0.90218419531210
H           -2.02379027953770        0.14525946981903       -1.80333546084639
H           -1.42477332002549        1.49207238062323       -3.78523920646552
H           -2.92799004388531        3.24092513219410       -4.61005539079857
H           -5.08030964138762        3.68716594257021       -3.50954307114388
H           -7.92931628122410        2.47907843852329       -1.08719134052238
H           -7.21623382028659        2.86986932212687       -2.65901611451585
H           -6.03182721213060        4.81669477911170       -1.49919126211700
H           -7.77588545775528        4.96627333045613       -1.74844756729297
H           -6.41824601360251        4.17211979593200        0.86225887701598
H           -8.16186617427664        4.21554700036209        0.59183194415756
H           -7.58574327312633        6.73338664120689       -0.20221722334886
H           -7.97267872042880        6.32135186254099        1.46200251261541
H           -6.04423014714349        7.80364468648075        1.34212966361258
H           -5.62730620726853        6.25826696461768        2.08833312985905
H           -3.95837873838014        7.29052835724036        0.39504509831253
H           -5.08970070227639        6.72355415289540       -0.85643437064654
H           -3.04078666717023        6.41613873064504       -1.80004229228413
H           -1.05559674567285        5.55804563775190       -2.90166649167032
H            0.11296964168124        3.55175840495785       -2.07740755912962
H           -4.54876507009987        3.45259997167331        2.21137901202040
H           -4.40706783961103        1.67946720649144        3.93126982407126
H           -2.50828629869325        0.13651330017241        3.98754736982569
H           -0.72659875306057        0.25081806039327        2.26973696925559
H           -0.69179569831287       -0.38867159880352       -0.13135435110609
H            1.33359530833744       -1.73634079070803       -0.65419762283797
H            3.52836473467734       -0.63000642202705       -0.80285950118591
H            3.14685170655741        2.98269813601999        1.98656580191932
H            4.69343486305904        4.17069255397265        3.49036832258166
H            7.05092731137825        4.47453660330642        2.89863961011473
H            7.94250533045578        3.58674497168296        0.75852841892757
H            9.52692946426135        0.72881919679892       -2.39507186924943
H           10.54209452485608        2.04218505954892       -1.77500276125418
H           10.68203979578829       -0.08800422972684       -0.44065615413963
H           10.25665212832303        1.34879047921980        0.49789477799566
H            7.87350651158787        0.71885798978566        0.44016642864381
H            8.89279205242910       -0.44293583471782        1.28052794777410
H            8.69901136026876       -2.06256553374507       -0.46032937161389
H            8.17206494809203       -0.86465558777187       -1.63941591151508
H            6.05199051702116       -0.54291827718286       -0.39563843768250
H            6.25215828963758       -2.16016229008227       -1.06688906448736
H            6.90346687109303       -3.03306543349900        1.15855521365594
H            6.77525096684871       -1.40588954609678        1.84759006470742
H            5.42199985592306        0.21964327444392        2.62221632618671
H            3.60557351504020        1.34725744346841        3.81692207753910
H            1.33581439901820        0.43612586501357        3.84467127206801
H            0.82845078051849       -1.71887868209545        2.70490902704100
H           -0.99332186077538       -4.77454540308099        2.19516476906899
H            0.28985152706927       -5.97161683851509        1.92373703880159
H           -0.19827221586494       -3.61372209435228       -0.81443875868350
H           -1.30403713722437       -4.16329203975198       -2.92906779128876
H           -2.52576085901156       -5.61306428954026       -4.30576454294412
H           -3.97659567101845       -7.95771622818172       -2.97815131403686
H           -4.12841776808643       -7.37410759308005       -4.70213178275295
H           -2.69015906986345       -7.83980942332530       -1.23957403170111
H           -1.57528636831048       -7.28741098621118        0.86026141291283
H            1.67529994853592       -6.07503550050054        0.03927306184079
H            3.97724071869220       -6.29403948230384       -0.69170431546249
H            5.67007896402093       -4.58306105881243       -0.17578560173677
H            7.97218618374570        1.07311655621230       -3.77867274826190
H            5.75980398568928        0.32397571391654       -4.45300787507081
H            3.79750314352930        0.61592495035328       -2.97437906855615
H           -3.77178147373848       -2.82287621858383       -1.20444586982161
H           -5.01541351651108       -4.86879136302593       -1.73996425922086

 projected vibrational frequencies (cm⁻¹)
eigval :       -0.00    -0.00     0.00     0.00     0.00     0.00
eigval :        9.15    10.21    12.06    12.52    16.35    18.53
eigval :       20.40    20.72    24.08    26.58    27.48    29.07
eigval :       34.87    37.25    43.41    45.03    51.65    55.64
eigval :       56.88    57.79    62.98    64.28    65.36    68.68
eigval :       70.24    76.10    78.28    80.45    83.47    84.66
eigval :       89.13    99.56    99.68   105.89   109.30   113.39
eigval :      115.79   118.34   121.47   124.76   128.42   130.49
eigval :      132.20   132.80   135.23   144.73   155.69   160.25
eigval :      164.98   165.60   172.34   185.62   193.28   199.40
eigval :      201.43   203.01   213.23   216.69   221.08   230.55
eigval :      238.49   243.49   244.72   250.72   251.82   256.52
eigval :      258.81   263.07   265.39   277.85   278.16   285.01
eigval :      285.49   291.49   296.77   298.17   302.02   303.76
eigval :      307.99   312.68   322.29   323.23   331.64   337.83
eigval :      345.95   353.28   361.08   366.96   371.94   375.49
eigval :      378.77   387.36   403.39   404.31   407.19   408.90
eigval :      410.26   411.52   412.92   415.84   416.27   420.04
eigval :      423.58   430.00   434.27   437.72   454.24   454.46
eigval :      466.22   482.79   486.05   492.41   497.60   500.45
eigval :      505.21   511.97   513.88   517.15   525.16   527.24
eigval :      529.18   529.90   533.53   536.58   540.01   540.86
eigval :      542.25   543.44   549.28   559.59   562.17   565.43
eigval :      573.82   576.82   580.39   583.73   586.38   591.28
eigval :      602.54   603.48   604.81   610.90   613.43   613.69
eigval :      614.93   628.67   634.01   636.68   651.49   663.30
eigval :      666.17   668.92   669.66   669.96   684.51   686.08
eigval :      693.92   695.01   699.42   703.49   704.83   708.00
eigval :      708.05   730.17   735.78   736.44   743.05   752.13
eigval :      756.48   758.45   758.79   767.40   767.56   770.67
eigval :      772.83   772.92   776.31   776.94   779.42   782.11
eigval :      785.00   785.58   803.14   804.09   808.01   809.40
eigval :      815.60   829.58   841.21   849.19   851.27   852.42
eigval :      852.48   854.79   855.83   861.68   863.18   863.69
eigval :      865.27   866.05   866.75   867.97   869.37   872.30
eigval :      877.04   880.02   889.53   894.60   899.20   900.21
eigval :      900.86   901.11   902.92   903.81   905.64   907.98
eigval :      909.41   909.81   911.23   913.11   915.50   918.85
eigval :      919.58   921.60   924.82   925.99   930.86   931.39
eigval :      945.22   948.35   961.09   965.21   983.31   986.99
eigval :      990.03   998.36  1000.71  1001.36  1002.17  1003.49
eigval :     1004.38  1006.95  1007.93  1011.87  1021.82  1032.76
eigval :     1033.91  1039.78  1046.82  1050.41  1053.72  1064.27
eigval :     1065.38  1066.60  1070.91  1072.28  1072.97  1077.74
eigval :     1082.97  1090.47  1098.53  1098.66  1106.89  1108.89
eigval :     1112.37  1114.28  1119.40  1125.37  1126.85  1130.77
eigval :     1131.36  1132.32  1135.55  1137.82  1141.70  1148.66
eigval :     1150.61  1154.51  1155.98  1162.09  1166.07  1169.48
eigval :     1171.16  1180.63  1182.03  1182.53  1184.44  1187.07
eigval :     1189.32  1193.97  1194.57  1198.93  1200.83  1201.90
eigval :     1203.37  1206.20  1208.25  1211.51  1212.13  1214.67
eigval :     1219.81  1221.30  1228.88  1229.52  1231.39  1234.06
eigval :     1237.95  1243.17  1247.16  1247.76  1249.81  1254.45
eigval :     1255.76  1257.45  1259.94  1261.56  1263.50  1269.92
eigval :     1274.40  1277.07  1277.67  1282.09  1283.13  1286.32
eigval :     1290.55  1291.47  1294.42  1297.78  1298.51  1301.56
eigval :     1303.45  1312.60  1316.25  1318.61  1321.13  1323.59
eigval :     1327.45  1329.29  1331.07  1331.63  1331.91  1338.75
eigval :     1339.48  1344.37  1345.78  1346.49  1350.49  1350.83
eigval :     1352.80  1355.76  1358.33  1360.10  1362.01  1363.41
eigval :     1365.08  1369.49  1371.26  1371.60  1371.87  1374.62
eigval :     1375.94  1395.06  1399.81  1405.48  1411.10  1412.65
eigval :     1413.30  1414.32  1418.86  1419.82  1420.21  1433.81
eigval :     1434.41  1447.14  1457.80  1458.69  1462.09  1462.65
eigval :     1464.22  1466.24  1466.58  1468.14  1471.27  1472.07
eigval :     1473.05  1476.39  1479.41  1480.42  1482.42  1483.48
eigval :     1483.93  1487.65  1488.83  1489.11  1491.70  1492.93
eigval :     1494.40  1495.76  1500.12  1519.43  1538.05  1549.10
eigval :     1550.35  1555.51  1558.38  1560.87  1564.89  1566.44
eigval :     1567.44  1570.50  1574.33  1575.76  1579.94  1581.30
eigval :     1586.55  1586.88  1595.03  1604.17  1604.87  1647.42
eigval :     1654.97  2173.12  2877.68  2878.36  2897.33  2905.87
eigval :     2924.41  2925.98  2931.57  2941.66  2943.19  2956.51
eigval :     2957.79  2964.19  2965.41  2966.25  2971.72  2975.58
eigval :     2976.81  2978.36  2980.60  2987.63  2991.61  2992.04
eigval :     2997.29  2997.35  3003.01  3011.66  3018.52  3028.63
eigval :     3041.03  3043.03  3051.16  3068.85  3070.22  3071.49
eigval :     3073.35  3075.40  3075.92  3076.88  3077.91  3079.42
eigval :     3082.09  3082.37  3082.43  3082.66  3085.72  3086.52
eigval :     3088.79  3089.91  3091.76  3091.90  3092.21  3092.73
eigval :     3096.03  3096.74  3096.83  3099.76  3100.11  3102.25
eigval :     3103.02  3103.50  3104.11  3106.58  3107.81  3108.22
eigval :     3108.75  3110.26  3117.10  3118.08  3118.74  3119.53
eigval :     3125.90  3128.51  3129.57

   temp. (K)  partition function   enthalpy   heat capacity  entropy
                                   cal/mol     cal/K/mol   cal/K/mol   J/K/mol
 298.15  VIB  0.618E+40            49704.049    304.028    313.775
         ROT  0.390E+09              888.752      2.981     42.291
         INT  0.241E+49            50592.801    307.009    356.066
         TR   0.417E+29             1481.254      4.968     47.174
         TOT                       52074.0552   311.9773   403.2394  1687.1535

       T/K    H(0)-H(T)+PV         H(T)/Eh          T*S/Eh         G(T)/Eh
   ------------------------------------------------------------------------
    298.15    0.829853E-01    0.141114E+01    0.191592E+00    0.121955E+01
   ------------------------------------------------------------------------

         :::::::::::::::::::::::::::::::::::::::::::::::::::::
         ::                  THERMODYNAMIC                  ::
         :::::::::::::::::::::::::::::::::::::::::::::::::::::
         :: total free energy        -248.943744007789 Eh   ::
         ::.................................................::
         :: total energy             -250.163293537660 Eh   ::
         :: zero point energy           1.328156273465 Eh   ::
         :: G(RRHO) w/o ZPVE           -0.108606743594 Eh   ::
         :: G(RRHO) contrib.            1.219549529871 Eh   ::
         :::::::::::::::::::::::::::::::::::::::::::::::::::::

           -------------------------------------------------
          | TOTAL ENERGY             -250.163293537660 Eh   |
          | TOTAL ENTHALPY           -248.752151975040 Eh   |
          | TOTAL FREE ENERGY        -248.943744007789 Eh   |
          | GRADIENT NORM               0.000138515914 Eh/α |
           -------------------------------------------------

 * finished run on 2025/08/27 at 00:33:06.357
