   * xtb version 6.7.1 (edcfbbe) compiled by 'albert@albert-system' on 2024-07-22

   ID    Z sym.   atoms
    1    7 N      1, 7, 17, 33
    2    6 C      2-6, 8-16, 18-23, 25-32, 34-39, 41-49
    3    8 O      24, 40
    4    1 H      50-77

          program call               : xtb data2507/toluene/CNTPA-PXZ/CNTPA-PXZ_toluene_S0_crest.xyz --gfn 2 --gbsa toluene --ohess vtight --parallel 40 --molden --ceasefiles --namespace data2507/toluene/CNTPA-PXZ/CNTPA-PXZ_toluene_S0_finalOpt
      * Solvation model:               GBSA
        Solvent                        toluene
        Solvent mass                       9.2140E+01 g/mol
          :  Hamiltonian                  GFN2-xTB          :
 * total energy  :  -126.2604061 Eh     change       -0.2013479E-08 Eh
 * total energy  :  -126.2604829 Eh     change       -0.7676670E-04 Eh
 * total energy  :  -126.2605329 Eh     change       -0.4996620E-04 Eh
 * total energy  :  -126.2605572 Eh     change       -0.2429959E-04 Eh
 * total energy  :  -126.2605826 Eh     change       -0.2545570E-04 Eh
 * total energy  :  -126.2606138 Eh     change       -0.3119616E-04 Eh
 * total energy  :  -126.2606341 Eh     change       -0.2023591E-04 Eh
 * total energy  :  -126.2606487 Eh     change       -0.1458885E-04 Eh
 * total energy  :  -126.2606598 Eh     change       -0.1113985E-04 Eh
 * total energy  :  -126.2606680 Eh     change       -0.8249923E-05 Eh
 * total energy  :  -126.2607899 Eh     change       -0.7101420E-06 Eh
 * total energy  :  -126.2607903 Eh     change       -0.4404489E-06 Eh
 * total energy  :  -126.2607907 Eh     change       -0.3557634E-06 Eh
 * total energy  :  -126.2607911 Eh     change       -0.3889596E-06 Eh
 * total energy  :  -126.2607914 Eh     change       -0.3642084E-06 Eh
 * total energy  :  -126.2607917 Eh     change       -0.3037295E-06 Eh
 * total energy  :  -126.2607920 Eh     change       -0.2354727E-06 Eh
 * total energy  :  -126.2607921 Eh     change       -0.1712111E-06 Eh
 * total energy  :  -126.2607921 Eh     change       -0.3816965E-08 Eh
   *** GEOMETRY OPTIMIZATION CONVERGED AFTER 44 ITERATIONS ***

 final structure:
================
77
 xtb: 6.7.1 (edcfbbe)
N           -7.38343580747149        3.55721873993199        1.64888206724500
C           -6.29785964597374        3.36850514925591        1.32222246874576
C           -4.96750069671212        3.13965554186983        0.92199077838787
C           -4.40812912029780        3.88406761942466       -0.12148282878250
C           -3.10828775223718        3.65931623948323       -0.51201934671832
C           -2.32682425569467        2.68956536102314        0.12879173978124
N           -1.01231225033814        2.47998181002277       -0.26167447345598
C           -0.25806320624346        3.55350720314521       -0.78475671177673
C            0.50256351367268        3.37708599827158       -1.93711509341730
C            1.24243026823887        4.42874616387642       -2.44511025483327
C            1.22739859555983        5.66260053101880       -1.81538815152545
C            0.46875588670727        5.84112704395667       -0.66970565382309
C           -0.26889412153695        4.79319381685506       -0.15087853243141
C           -0.40748573498679        1.22547884581117       -0.15811457166745
C            0.94123647931625        1.12970638886858        0.18422151721914
C            1.55697332480937       -0.11173641700803        0.26702719623948
N            2.91850156521719       -0.19895935563076        0.63302899882842
C            3.91437406838282        0.32687373333342       -0.19387670269002
C            3.62872231402359        0.91479841472196       -1.41950284442838
C            4.64163400473305        1.42162375595286       -2.21977094783309
C            5.95789872786845        1.34359473937747       -1.81279651409205
C            6.26328985750890        0.73619416783496       -0.60307814674658
C            5.25672267311943        0.22671834770277        0.19581938314550
O            5.64211977034929       -0.38547896554044        1.36628478908654
C            4.64967346915596       -0.90787822712194        2.16316799833561
C            5.04900852292857       -1.51926636004998        3.33705632015017
C            4.10668813496770       -2.04749027833843        4.20801476457208
C            2.76529587109042       -1.94483688493168        3.90019180093242
C            2.36081254895155       -1.33293064821441        2.72307544090423
C            3.29189502151164       -0.82316770789194        1.82663854524568
C            0.83206976356356       -1.27242203415305        0.01723140054246
C           -0.51359951385411       -1.17870150515602       -0.31704949861036
N           -1.26068878811408       -2.35133337324617       -0.57682617950654
C           -1.00178969173546       -3.12744876014495       -1.70803232238468
C           -0.00997986261635       -2.79876690037924       -2.62320750552728
C            0.21747260348042       -3.58985579052759       -3.73972001735687
C           -0.54680307071959       -4.71696373671210       -3.96337428018124
C           -1.55561295892064       -5.04784522414913       -3.06917473033452
C           -1.78742868801429       -4.26121957434116       -1.95656650323432
O           -2.82224273718089       -4.63885423523781       -1.13054907057900
C           -3.04203741517715       -3.87923964475379       -0.00427103369454
C           -4.05455700644143       -4.28837193186470        0.84306769006986
C           -4.31875689687650       -3.58502234976410        2.01040208105726
C           -3.55178849207387       -2.48295540594878        2.32906260070725
C           -2.53525975351699       -2.06942423495628        1.48112732274323
C           -2.27646743368524       -2.74452031762706        0.29533039932604
C           -1.13104645215325        0.06058209067961       -0.41269785283009
C           -2.89202698897913        1.95406761919758        1.17770381006246
C           -4.19347425276214        2.17052556645391        1.56761162296601
H           -5.00628280764989        4.62983496175304       -0.62400664315018
H           -2.68625974687863        4.23019985037810       -1.32496160820965
H            0.50138660884674        2.41784439497936       -2.43362378187093
H            1.82505035103937        4.28712663847752       -3.34283240791997
H            1.80382047446209        6.48226694437810       -2.21656758724640
H            0.45553445616515        6.79947842201023       -0.17216997459589
H           -0.85639236252955        4.92807304478306        0.74555584028286
H            1.50977673978197        2.02295866947825        0.39350676526601
H            2.60551203652719        0.97384101925165       -1.75293932874466
H            4.39058065676379        1.87286436259324       -3.16709860172746
H            6.75048575451281        1.73924800806018       -2.42812440028297
H            7.28240957958899        0.64252631669549       -0.26185421755276
H            6.10468749748789       -1.56744696249381        3.55383332106048
H            4.42851441181472       -2.52515332697304        5.11994577251546
H            2.01843455272865       -2.33690444500185        4.57345406509353
H            1.30877723405554       -1.24965741713932        2.50218086016253
H            1.30943319373223       -2.23785041580506        0.08400837592041
H            0.58740291317406       -1.91507403443829       -2.46431695315708
H            0.99795237947875       -3.31262422472705       -4.43165159120631
H           -0.37338878182689       -5.33832869772829       -4.82780014213135
H           -2.18001466110559       -5.91431868581430       -3.22139988813839
H           -4.62467476729679       -5.16363111162094        0.57355128923855
H           -5.11386380081205       -3.91032819965241        2.66264326862083
H           -3.73341696845250       -1.93784644149259        3.24268551079262
H           -1.93096586825040       -1.21641071472607        1.74500277210254
H           -2.17213557413244        0.11627090023794       -0.69232629152762
H           -2.29443586985560        1.22081617035781        1.69623998676020
H           -4.62040848581421        1.60296608579453        2.38102849821073

          :  Hamiltonian                  GFN2-xTB          :
         :: gradient norm              0.000051228696 Eh/a0 ::
         :: HOMO-LUMO gap              1.937967813846 eV    ::
         :: SCC energy              -128.510191777813 Eh    ::
         :: -> dispersion             -0.111497897445 Eh    ::
         :: -> Gsolv                  -0.054007682805 Eh    ::
         :: repulsion energy           2.249399636095 Eh    ::

    * Orbital Energies and Occupations

         #    Occupation            Energy/Eh            Energy/eV
      -------------------------------------------------------------
         1        2.0000           -0.7314802             -19.9046
       ...           ...                  ...                  ...
       104        2.0000           -0.4243242             -11.5464
       105        2.0000           -0.4237137             -11.5298
       106        2.0000           -0.4193608             -11.4114
       107        2.0000           -0.4182041             -11.3799
       108        2.0000           -0.4180997             -11.3771
       109        2.0000           -0.4163493             -11.3294
       110        2.0000           -0.4155014             -11.3064
       111        2.0000           -0.4153422             -11.3020
       112        2.0000           -0.3935756             -10.7097
       113        2.0000           -0.3932651             -10.7013
       114        2.0000           -0.3703094             -10.0766
       115        2.0000           -0.3475695              -9.4578
       116        2.0000           -0.3455027              -9.4016 (HOMO)
       117                         -0.2742837              -7.4636 (LUMO)
       118                         -0.2522604              -6.8644
       119                         -0.2497415              -6.7958
       120                         -0.2431040              -6.6152
       121                         -0.2408207              -6.5531
       122                         -0.2407413              -6.5509
       123                         -0.2342190              -6.3734
       124                         -0.2325137              -6.3270
       125                         -0.2323015              -6.3212
       126                         -0.2255586              -6.1378
       127                         -0.2172789              -5.9125
       ...                                ...                  ...
       224                          1.1614848              31.6056
      -------------------------------------------------------------
                  HL-Gap            0.0712190 Eh            1.9380 eV

     #   Z          covCN         q      C6AA      α(0)
     1   7 N        0.911    -0.285    27.339     7.562
     2   6 C        1.912     0.117    28.229     8.581
     3   6 C        2.972     0.005    27.913     8.666
     4   6 C        2.924    -0.018    28.468     8.750
     5   6 C        2.921    -0.045    29.126     8.850
     6   6 C        2.921     0.072    26.387     8.424
     7   7 N        2.753    -0.058    22.370     7.025
     8   6 C        2.927     0.060    26.659     8.467
     9   6 C        2.922    -0.043    29.058     8.840
    10   6 C        2.920    -0.026    28.664     8.780
    11   6 C        2.919    -0.032    28.809     8.802
    12   6 C        2.920    -0.027    28.674     8.781
    13   6 C        2.922    -0.043    29.069     8.842
    14   6 C        2.922     0.067    26.492     8.441
    15   6 C        2.925    -0.063    29.575     8.918
    16   6 C        2.919     0.069    26.453     8.434
    17   7 N        2.752    -0.073    22.653     7.069
    18   6 C        2.921     0.042    27.059     8.530
    19   6 C        2.924    -0.061    29.520     8.910
    20   6 C        2.919    -0.039    28.969     8.826
    21   6 C        2.919    -0.041    29.024     8.834
    22   6 C        2.920    -0.058    29.438     8.897
    23   6 C        2.882     0.122    25.313     8.248
    24   8 O        1.708    -0.273    18.525     5.811
    25   6 C        2.882     0.122    25.311     8.248
    26   6 C        2.919    -0.058    29.440     8.898
    27   6 C        2.919    -0.041    29.021     8.834
    28   6 C        2.919    -0.039    28.976     8.827
    29   6 C        2.924    -0.061    29.522     8.910
    30   6 C        2.921     0.042    27.057     8.530
    31   6 C        2.923    -0.061    29.529     8.911
    32   6 C        2.919     0.069    26.458     8.435
    33   7 N        2.752    -0.074    22.678     7.073
    34   6 C        2.921     0.042    27.050     8.529
    35   6 C        2.924    -0.061    29.529     8.911
    36   6 C        2.919    -0.039    28.975     8.827
    37   6 C        2.919    -0.041    29.029     8.835
    38   6 C        2.919    -0.058    29.439     8.898
    39   6 C        2.882     0.122    25.319     8.249
    40   8 O        1.708    -0.274    18.539     5.813
    41   6 C        2.882     0.122    25.314     8.248
    42   6 C        2.919    -0.058    29.438     8.897
    43   6 C        2.919    -0.041    29.029     8.835
    44   6 C        2.919    -0.039    28.978     8.828
    45   6 C        2.924    -0.061    29.517     8.910
    46   6 C        2.922     0.042    27.053     8.530
    47   6 C        2.924    -0.064    29.592     8.921
    48   6 C        2.921    -0.046    29.144     8.853
    49   6 C        2.924    -0.019    28.471     8.750
    50   1 H        0.926     0.044     2.391     2.418
    51   1 H        0.926     0.048     2.348     2.396
    52   1 H        0.926     0.037     2.492     2.469
    53   1 H        0.926     0.043     2.414     2.430
    54   1 H        0.926     0.041     2.438     2.442
    55   1 H        0.926     0.041     2.430     2.438
    56   1 H        0.926     0.038     2.469     2.457
    57   1 H        0.926     0.052     2.292     2.368
    58   1 H        0.926     0.039     2.467     2.456
    59   1 H        0.926     0.042     2.417     2.431
    60   1 H        0.926     0.042     2.422     2.433
    61   1 H        0.926     0.047     2.356     2.401
    62   1 H        0.926     0.047     2.352     2.398
    63   1 H        0.926     0.042     2.426     2.436
    64   1 H        0.926     0.041     2.434     2.440
    65   1 H        0.926     0.038     2.478     2.462
    66   1 H        0.926     0.052     2.294     2.369
    67   1 H        0.926     0.038     2.475     2.460
    68   1 H        0.926     0.041     2.429     2.437
    69   1 H        0.926     0.042     2.427     2.436
    70   1 H        0.926     0.047     2.357     2.401
    71   1 H        0.926     0.047     2.358     2.401
    72   1 H        0.926     0.041     2.431     2.438
    73   1 H        0.926     0.041     2.440     2.443
    74   1 H        0.926     0.035     2.518     2.482
    75   1 H        0.926     0.050     2.317     2.381
    76   1 H        0.926     0.045     2.379     2.412
    77   1 H        0.926     0.045     2.386     2.415

molecular dipole:
                 x           y           z       tot (Debye)
 q only:        1.702       0.821      -0.769
   full:        2.039       0.740      -0.862       5.931

 projected vibrational frequencies (cm⁻¹)
eigval :       -0.00    -0.00    -0.00    -0.00     0.00     0.00
eigval :       10.02    12.27    17.95    18.77    20.15    25.33
eigval :       32.68    42.72    44.01    55.88    57.25    67.05
eigval :       69.96    83.38   102.26   113.17   113.82   132.17
eigval :      132.76   140.11   163.26   205.32   223.41   233.89
eigval :      237.26   243.03   250.16   250.94   260.32   263.26
eigval :      265.75   269.86   288.94   299.37   315.34   342.37
eigval :      353.19   374.39   380.17   385.29   396.00   397.49
eigval :      419.22   421.87   427.11   427.96   428.46   439.30
eigval :      448.27   466.72   477.02   499.55   510.75   511.15
eigval :      517.98   521.41   522.77   532.64   537.83   539.26
eigval :      565.52   572.86   576.37   580.18   588.72   596.96
eigval :      612.68   630.14   635.64   645.10   657.15   659.94
eigval :      660.27   660.53   660.98   663.38   670.01   676.47
eigval :      708.39   719.18   759.83   776.78   777.97   778.00
eigval :      778.87   779.41   803.03   810.73   815.53   831.54
eigval :      851.91   852.88   859.21   860.53   862.52   863.89
eigval :      866.77   875.75   877.80   886.68   888.18   896.20
eigval :      896.65   897.68   898.78   900.40   912.59   913.05
eigval :      913.29   915.61   916.08   916.61   917.34   920.66
eigval :      924.56   929.66   931.54   986.12   993.21  1014.26
eigval :     1033.80  1052.69  1079.88  1088.27  1089.26  1089.79
eigval :     1090.98  1105.51  1105.84  1117.95  1118.41  1121.63
eigval :     1136.36  1159.99  1160.10  1173.32  1173.78  1176.45
eigval :     1177.69  1179.11  1182.37  1185.84  1192.29  1195.21
eigval :     1195.71  1196.85  1224.34  1227.79  1240.46  1241.89
eigval :     1243.36  1256.98  1257.85  1261.05  1271.90  1278.09
eigval :     1279.86  1304.32  1304.73  1309.22  1317.95  1321.04
eigval :     1324.55  1333.20  1336.10  1347.25  1351.72  1382.36
eigval :     1411.93  1420.23  1421.88  1432.55  1436.97  1439.49
eigval :     1443.83  1445.75  1467.01  1478.13  1481.46  1482.85
eigval :     1501.60  1504.94  1538.70  1555.85  1558.53  1566.48
eigval :     1566.90  1579.81  1579.93  1581.40  1583.51  1588.39
eigval :     1589.08  1593.48  1602.78  1603.34  2352.36  3078.59
eigval :     3080.10  3086.39  3086.42  3086.65  3086.95  3087.91
eigval :     3089.20  3089.60  3090.53  3095.95  3096.29  3096.94
eigval :     3097.05  3099.96  3100.32  3100.45  3102.03  3104.33
eigval :     3104.53  3105.15  3105.83  3106.33  3106.55  3109.21
eigval :     3110.19  3110.46  3112.92

   temp. (K)  partition function   enthalpy   heat capacity  entropy
                                   cal/mol     cal/K/mol   cal/K/mol   J/K/mol
 298.15  VIB  0.261E+19            22819.901    142.791    142.190
         ROT  0.748E+08              888.752      2.981     39.011
         INT  0.195E+27            23708.654    145.772    181.200
         TR   0.154E+29             1481.254      4.968     45.197
         TOT                       25189.9075   150.7404   226.3968   947.2441

       T/K    H(0)-H(T)+PV         H(T)/Eh          T*S/Eh         G(T)/Eh
   ------------------------------------------------------------------------
    298.15    0.401427E-01    0.618031E+00    0.107568E+00    0.510463E+00
   ------------------------------------------------------------------------

         :::::::::::::::::::::::::::::::::::::::::::::::::::::
         ::                  THERMODYNAMIC                  ::
         :::::::::::::::::::::::::::::::::::::::::::::::::::::
         :: total free energy        -125.750329539438 Eh   ::
         ::.................................................::
         :: total energy             -126.260792139694 Eh   ::
         :: zero point energy           0.577888337428 Eh   ::
         :: G(RRHO) w/o ZPVE           -0.067425737171 Eh   ::
         :: G(RRHO) contrib.            0.510462600257 Eh   ::
         :::::::::::::::::::::::::::::::::::::::::::::::::::::

           -------------------------------------------------
          | TOTAL ENERGY             -126.260792139694 Eh   |
          | TOTAL ENTHALPY           -125.642761129481 Eh   |
          | TOTAL FREE ENERGY        -125.750329539438 Eh   |
          | GRADIENT NORM               0.000051236261 Eh/α |
          | HOMO-LUMO GAP               1.937968123228 eV   |
           -------------------------------------------------

 * finished run on 2025/09/14 at 10:37:05.844
