   * xtb version 6.7.1 (edcfbbe) compiled by 'albert@albert-system' on 2024-07-22

   ID    Z sym.   atoms
    1    7 N      1, 7, 17, 33
    2    6 C      2-6, 8-16, 18-23, 25-32, 34-39, 41-49
    3    8 O      24, 40
    4    1 H      50-77

          program call               : xtb data2507/toluene/CNTPA-PXZ/CNTPA-PXZ.xyz --gfn 2 --gbsa toluene --ohess vtight --parallel 40 --molden --ceasefiles --namespace data2507/toluene/CNTPA-PXZ/CNTPA-PXZ_toluene_S0_preOpt
      * Solvation model:               GBSA
        Solvent                        toluene
        Solvent mass                       9.2140E+01 g/mol
          :  Hamiltonian                  GFN2-xTB          :
 * total energy  :  -126.2370382 Eh     change       -0.2326658E-08 Eh
 * total energy  :  -126.2500099 Eh     change       -0.1297168E-01 Eh
 * total energy  :  -126.2560462 Eh     change       -0.6036293E-02 Eh
 * total energy  :  -126.2582248 Eh     change       -0.2178561E-02 Eh
 * total energy  :  -126.2593485 Eh     change       -0.1123774E-02 Eh
 * total energy  :  -126.2597367 Eh     change       -0.3882107E-03 Eh
 * total energy  :  -126.2598341 Eh     change       -0.9733761E-04 Eh
 * total energy  :  -126.2599548 Eh     change       -0.1207288E-03 Eh
 * total energy  :  -126.2600353 Eh     change       -0.8053431E-04 Eh
 * total energy  :  -126.2601076 Eh     change       -0.7231069E-04 Eh
 * total energy  :  -126.2609093 Eh     change       -0.2577905E-06 Eh
 * total energy  :  -126.2609095 Eh     change       -0.1890413E-06 Eh
 * total energy  :  -126.2609096 Eh     change       -0.1523610E-06 Eh
 * total energy  :  -126.2609098 Eh     change       -0.1487285E-06 Eh
 * total energy  :  -126.2609099 Eh     change       -0.1565335E-06 Eh
 * total energy  :  -126.2609101 Eh     change       -0.1664801E-06 Eh
 * total energy  :  -126.2609103 Eh     change       -0.1730967E-06 Eh
 * total energy  :  -126.2609105 Eh     change       -0.1833106E-06 Eh
 * total energy  :  -126.2609105 Eh     change       -0.1175493E-08 Eh
   *** GEOMETRY OPTIMIZATION CONVERGED AFTER 94 ITERATIONS ***

 final structure:
================
77
 xtb: 6.7.1 (edcfbbe)
N           -6.69254572181461        4.80957640021282        1.69900343748588
C           -5.65439333161560        4.42393146654975        1.39214883352891
C           -4.38044266389109        3.95499556696757        1.01769476961316
C           -3.65988958845274        4.60283560334668        0.00922457127609
C           -2.41511942026221        4.14354842535348       -0.35522876461307
C           -1.85361584141445        3.02616803629758        0.27495034643862
N           -0.59381276290908        2.57376640141197       -0.09265957342384
C            0.37809141297949        3.49681780326132       -0.53648813300966
C            1.14304012805337        3.21915631090654       -1.66596391615879
C            2.10060455980879        4.12071523504415       -2.09196738782406
C            2.29967774063465        5.30635246250953       -1.40346147034835
C            1.53555078666104        5.58739408655866       -0.28223448808022
C            0.58088888248675        4.68811804076849        0.15530737121718
C           -0.25972821503752        1.21952236551965       -0.03770841368424
C            1.03259633059616        0.83339642492535        0.31789506729993
C            1.37672897481627       -0.51049127544662        0.35250950631160
N            2.68743401237315       -0.88764039540960        0.72514331643471
C            3.77304262892961       -0.57831115766552       -0.09632728921692
C            3.61609711376317        0.04105859068452       -1.32952753452510
C            4.71437884998042        0.32850484315845       -2.12613397426262
C            5.98625588819193       -0.00444527741330       -1.70681764788790
C            6.15864688881390       -0.64383113389784       -0.48695149357779
C            5.06634098232383       -0.93468543683444        0.30859017293001
O            5.31356408501073       -1.59149853177706        1.49253236530319
C            4.22952960644605       -1.90505568418816        2.28060573508462
C            4.48835182291529       -2.57016668470588        3.46436914250140
C            3.44991543333796       -2.90098539998667        4.32389348884225
C            2.15658626280487       -2.55108073742449        3.99326472119463
C            1.89233120773015       -1.88409596016412        2.80606910129431
C            2.91741658686840       -1.56436504074315        1.92481405296107
C            0.43659428411103       -1.48649470413003        0.04126326540486
C           -0.85167338030426       -1.10359640425422       -0.31489202194075
N           -1.81119240527868       -2.08386530804834       -0.65759738892583
C           -1.66538719260819       -2.84867748759497       -1.81750948147799
C           -0.57883933707786       -2.70683894400440       -2.67133575344523
C           -0.46752013565984       -3.48182124774464       -3.81636460775461
C           -1.44401838179133       -4.40429328061774       -4.13243652834438
C           -2.54763524654329       -4.54229426145888       -3.30221413938437
C           -2.66307885862166       -3.77134658838591       -2.16070722739234
O           -3.79895600797720       -3.94814161783035       -1.40339213536439
C           -3.91328128674948       -3.20420254299235       -0.25162857816779
C           -5.03844953312497       -3.41485500473281        0.52318788783176
C           -5.21102221028865       -2.71935729843096        1.71193588831522
C           -4.24227231224794       -1.82734443486468        2.12451693330697
C           -3.11273114173204       -1.61271169168278        1.34900988632868
C           -2.93817770311099       -2.27847630610048        0.14267716094539
C           -1.19884219924481        0.23961517058995       -0.35956726194376
C           -2.57760188218183        2.38855575761216        1.28943412749515
C           -3.82397461506066        2.84189336145410        1.65525150621333
H           -4.09097525186611        5.45996257394494       -0.48676757390189
H           -1.86703800076673        4.64240596637514       -1.13991892461900
H            0.97668665718889        2.30013373691730       -2.20829025086279
H            2.68756270960108        3.90067228860130       -2.97092152391656
H            3.04667640991230        6.00913076749588       -1.73990275432425
H            1.68801607459871        6.50834405415423        0.26068085736976
H           -0.01033666597615        4.90193556123897        1.03378322016901
H            1.76999661449574        1.57952974257900        0.57171525588777
H            2.62621532670367        0.29869026469284       -1.66980897336986
H            4.56375756427995        0.80999604913550       -3.07996475420405
H            6.84529457950822        0.21886893164924       -2.31968416670452
H            7.13741088040506       -0.93078184626823       -0.13552631383901
H            5.51211206170759       -2.81725673437608        3.69811973999248
H            3.66218018263405       -3.42177927697508        5.24429985871231
H            1.33933825954582       -2.79075732681440        4.65617473708051
H            0.87861378037490       -1.60687704348603        2.56489560223307
H            0.70479659413211       -2.53121006176510        0.07389015537593
H            0.18618298433959       -1.98214735516086       -2.44289946500074
H            0.39067675543997       -3.35295386588731       -4.45794797725046
H           -1.36255801316706       -5.01190642500632       -5.01987794090632
H           -3.33682009089294       -5.24251986641690       -3.52714156283654
H           -5.76838576036884       -4.13133766164746        0.18023977120254
H           -6.09423839567240       -2.88847508935317        2.30748279137807
H           -4.35354017615162       -1.29454869747986        3.05645988214106
H           -2.35424483972199       -0.92483727889661        1.68637135375028
H           -2.19820479661693        0.52075195342987       -0.65546911510404
H           -2.14519095280741        1.54231744571238        1.80008507956034
H           -4.37344658549122        2.34969867900949        2.44374654717323

          :  Hamiltonian                  GFN2-xTB          :
         :: gradient norm              0.000036671202 Eh/a0 ::
         :: HOMO-LUMO gap              1.922138869184 eV    ::
         :: SCC energy              -128.510316505202 Eh    ::
         :: -> dispersion             -0.111432740355 Eh    ::
         :: -> Gsolv                  -0.054119224277 Eh    ::
         :: repulsion energy           2.249406045953 Eh    ::

    * Orbital Energies and Occupations

         #    Occupation            Energy/Eh            Energy/eV
      -------------------------------------------------------------
         1        2.0000           -0.7315264             -19.9058
       ...           ...                  ...                  ...
       104        2.0000           -0.4244649             -11.5503
       105        2.0000           -0.4238628             -11.5339
       106        2.0000           -0.4194622             -11.4141
       107        2.0000           -0.4183245             -11.3832
       108        2.0000           -0.4178630             -11.3706
       109        2.0000           -0.4161860             -11.3250
       110        2.0000           -0.4155872             -11.3087
       111        2.0000           -0.4151504             -11.2968
       112        2.0000           -0.3936317             -10.7113
       113        2.0000           -0.3931443             -10.6980
       114        2.0000           -0.3703485             -10.0777
       115        2.0000           -0.3474738              -9.4552
       116        2.0000           -0.3454138              -9.3992 (HOMO)
       117                         -0.2747765              -7.4771 (LUMO)
       118                         -0.2522992              -6.8654
       119                         -0.2497678              -6.7965
       120                         -0.2434909              -6.6257
       121                         -0.2409503              -6.5566
       122                         -0.2404648              -6.5434
       123                         -0.2340574              -6.3690
       124                         -0.2326163              -6.3298
       125                         -0.2320978              -6.3157
       126                         -0.2252010              -6.1280
       127                         -0.2172858              -5.9126
       ...                                ...                  ...
       224                          1.1611660              31.5969
      -------------------------------------------------------------
                  HL-Gap            0.0706373 Eh            1.9221 eV

     #   Z          covCN         q      C6AA      α(0)
     1   7 N        0.911    -0.284    27.318     7.559
     2   6 C        1.912     0.117    28.226     8.580
     3   6 C        2.972     0.005    27.902     8.664
     4   6 C        2.924    -0.018    28.466     8.749
     5   6 C        2.921    -0.045    29.113     8.848
     6   6 C        2.922     0.072    26.388     8.424
     7   7 N        2.753    -0.058    22.371     7.025
     8   6 C        2.927     0.060    26.659     8.467
     9   6 C        2.922    -0.043    29.062     8.841
    10   6 C        2.920    -0.027    28.667     8.780
    11   6 C        2.919    -0.033    28.814     8.803
    12   6 C        2.920    -0.027    28.676     8.781
    13   6 C        2.922    -0.043    29.075     8.843
    14   6 C        2.922     0.068    26.489     8.440
    15   6 C        2.925    -0.063    29.570     8.918
    16   6 C        2.919     0.069    26.449     8.434
    17   7 N        2.752    -0.074    22.673     7.072
    18   6 C        2.922     0.042    27.053     8.529
    19   6 C        2.924    -0.061    29.516     8.909
    20   6 C        2.919    -0.039    28.970     8.826
    21   6 C        2.919    -0.041    29.029     8.835
    22   6 C        2.919    -0.058    29.441     8.898
    23   6 C        2.882     0.122    25.315     8.249
    24   8 O        1.708    -0.274    18.537     5.813
    25   6 C        2.882     0.122    25.316     8.249
    26   6 C        2.919    -0.058    29.443     8.898
    27   6 C        2.919    -0.041    29.029     8.835
    28   6 C        2.919    -0.039    28.976     8.827
    29   6 C        2.924    -0.061    29.528     8.911
    30   6 C        2.921     0.042    27.050     8.529
    31   6 C        2.923    -0.061    29.529     8.911
    32   6 C        2.919     0.069    26.458     8.435
    33   7 N        2.752    -0.074    22.669     7.071
    34   6 C        2.921     0.042    27.053     8.529
    35   6 C        2.924    -0.061    29.527     8.911
    36   6 C        2.919    -0.039    28.974     8.827
    37   6 C        2.919    -0.041    29.024     8.835
    38   6 C        2.919    -0.058    29.438     8.897
    39   6 C        2.882     0.122    25.316     8.249
    40   8 O        1.708    -0.273    18.533     5.812
    41   6 C        2.882     0.122    25.312     8.248
    42   6 C        2.919    -0.058    29.437     8.897
    43   6 C        2.919    -0.041    29.026     8.835
    44   6 C        2.919    -0.039    28.978     8.827
    45   6 C        2.924    -0.061    29.515     8.909
    46   6 C        2.922     0.042    27.057     8.530
    47   6 C        2.924    -0.064    29.593     8.921
    48   6 C        2.921    -0.045    29.129     8.851
    49   6 C        2.924    -0.018    28.468     8.750
    50   1 H        0.926     0.045     2.386     2.416
    51   1 H        0.926     0.048     2.344     2.394
    52   1 H        0.926     0.037     2.490     2.468
    53   1 H        0.926     0.043     2.415     2.430
    54   1 H        0.926     0.041     2.442     2.443
    55   1 H        0.926     0.041     2.432     2.439
    56   1 H        0.926     0.038     2.473     2.459
    57   1 H        0.926     0.052     2.298     2.371
    58   1 H        0.926     0.037     2.486     2.466
    59   1 H        0.926     0.042     2.421     2.433
    60   1 H        0.926     0.042     2.425     2.435
    61   1 H        0.926     0.047     2.360     2.402
    62   1 H        0.926     0.047     2.356     2.400
    63   1 H        0.926     0.041     2.430     2.438
    64   1 H        0.926     0.041     2.437     2.441
    65   1 H        0.926     0.037     2.485     2.465
    66   1 H        0.926     0.052     2.290     2.366
    67   1 H        0.926     0.038     2.470     2.458
    68   1 H        0.926     0.042     2.427     2.436
    69   1 H        0.926     0.042     2.424     2.435
    70   1 H        0.926     0.047     2.354     2.399
    71   1 H        0.926     0.047     2.356     2.400
    72   1 H        0.926     0.041     2.429     2.437
    73   1 H        0.926     0.041     2.439     2.442
    74   1 H        0.926     0.035     2.510     2.477
    75   1 H        0.926     0.050     2.321     2.382
    76   1 H        0.926     0.046     2.376     2.411
    77   1 H        0.926     0.045     2.380     2.412

molecular dipole:
                 x           y           z       tot (Debye)
 q only:        1.768       0.490      -0.673
   full:        2.088       0.355      -0.761       5.719

 projected vibrational frequencies (cm⁻¹)
eigval :       -0.00    -0.00     0.00     0.00     0.00     0.00
eigval :       10.04    13.82    17.41    18.97    22.36    26.29
eigval :       34.11    42.37    44.19    56.19    58.81    69.98
eigval :       70.94    84.49   102.42   113.70   114.47   131.23
eigval :      132.39   140.21   163.38   205.60   222.24   234.03
eigval :      236.34   242.82   250.22   250.76   259.64   262.39
eigval :      266.00   270.49   288.88   298.26   314.87   342.38
eigval :      353.43   374.85   381.42   385.64   395.96   397.38
eigval :      419.36   421.94   427.02   427.47   428.75   438.85
eigval :      448.14   466.64   477.64   499.22   510.89   511.13
eigval :      517.94   521.72   522.68   531.91   537.30   538.93
eigval :      565.61   572.93   576.28   580.29   588.97   597.14
eigval :      612.49   629.91   635.86   644.89   657.22   659.88
eigval :      660.76   661.15   661.62   663.28   670.01   678.02
eigval :      708.58   719.16   759.17   775.85   776.28   776.86
eigval :      777.08   778.46   802.90   810.64   813.53   832.29
eigval :      852.16   852.46   856.30   858.70   861.25   862.42
eigval :      863.82   875.23   877.59   885.54   891.17   894.93
eigval :      895.43   896.22   898.11   898.84   911.09   912.41
eigval :      913.58   914.07   914.80   916.42   916.84   920.73
eigval :      923.98   928.44   931.55   986.22   993.24  1014.33
eigval :     1033.89  1053.01  1080.93  1088.19  1088.77  1089.89
eigval :     1090.56  1104.96  1105.28  1118.14  1118.62  1121.41
eigval :     1135.68  1159.24  1160.17  1173.35  1173.62  1176.74
eigval :     1177.34  1179.16  1182.77  1185.80  1193.23  1194.61
eigval :     1195.55  1196.74  1224.09  1228.26  1239.88  1241.12
eigval :     1242.56  1256.52  1257.78  1260.57  1272.56  1278.70
eigval :     1279.70  1304.30  1304.48  1309.05  1318.00  1320.62
eigval :     1324.09  1333.93  1336.10  1347.33  1351.87  1382.43
eigval :     1411.37  1420.52  1421.65  1432.33  1437.15  1439.45
eigval :     1443.90  1445.77  1467.57  1477.53  1481.64  1482.65
eigval :     1501.55  1504.80  1538.95  1555.96  1558.82  1566.36
eigval :     1566.48  1579.82  1580.07  1581.24  1583.31  1588.19
eigval :     1588.91  1593.67  1602.86  1603.42  2352.57  3078.41
eigval :     3080.68  3086.08  3086.73  3086.85  3087.19  3087.23
eigval :     3088.86  3090.33  3090.62  3096.09  3096.15  3096.24
eigval :     3096.60  3099.50  3099.91  3100.22  3102.22  3103.71
eigval :     3103.94  3105.24  3105.54  3105.67  3106.05  3109.68
eigval :     3109.84  3110.69  3112.19

   temp. (K)  partition function   enthalpy   heat capacity  entropy
                                   cal/mol     cal/K/mol   cal/K/mol   J/K/mol
 298.15  VIB  0.184E+19            22809.914    142.953    141.915
         ROT  0.747E+08              888.752      2.981     39.008
         INT  0.138E+27            23698.667    145.934    180.923
         TR   0.154E+29             1481.254      4.968     45.197
         TOT                       25179.9206   150.9018   226.1195   946.0841

       T/K    H(0)-H(T)+PV         H(T)/Eh          T*S/Eh         G(T)/Eh
   ------------------------------------------------------------------------
    298.15    0.401268E-01    0.617953E+00    0.107437E+00    0.510516E+00
   ------------------------------------------------------------------------

         :::::::::::::::::::::::::::::::::::::::::::::::::::::
         ::                  THERMODYNAMIC                  ::
         :::::::::::::::::::::::::::::::::::::::::::::::::::::
         :: total free energy        -125.750394115465 Eh   ::
         ::.................................................::
         :: total energy             -126.260910457159 Eh   ::
         :: zero point energy           0.577826266165 Eh   ::
         :: G(RRHO) w/o ZPVE           -0.067309924471 Eh   ::
         :: G(RRHO) contrib.            0.510516341695 Eh   ::
         :::::::::::::::::::::::::::::::::::::::::::::::::::::

           -------------------------------------------------
          | TOTAL ENERGY             -126.260910457159 Eh   |
          | TOTAL ENTHALPY           -125.642957433396 Eh   |
          | TOTAL FREE ENERGY        -125.750394115465 Eh   |
          | GRADIENT NORM               0.000036708275 Eh/α |
          | HOMO-LUMO GAP               1.922139214359 eV   |
           -------------------------------------------------

 * finished run on 2025/09/14 at 10:31:39.158
