   * xtb version 6.7.1 (edcfbbe) compiled by 'albert@albert-system' on 2024-07-22

   ID    Z sym.   atoms
    1    7 N      1, 7, 17, 33
    2    6 C      2-6, 8-16, 18-23, 25-32, 34-39, 41-49
    3    8 O      24, 40
    4    1 H      50-77

          program call               : xtb data2507/toluene/CNTPA-PXZ/CNTPA-PXZ_toluene_T1_crest.xyz --gfn 2 --uhf 2 --gbsa toluene --ohess vtight --parallel 40 --molden --ceasefiles --namespace data2507/toluene/CNTPA-PXZ/CNTPA-PXZ_toluene_T1_finalOpt
      * Solvation model:               GBSA
        Solvent                        toluene
        Solvent mass                       9.2140E+01 g/mol
          :  Hamiltonian                  GFN2-xTB          :
 * total energy  :  -126.1697949 Eh     change       -0.9144969E-09 Eh
 * total energy  :  -126.1699241 Eh     change       -0.1291481E-03 Eh
 * total energy  :  -126.1700020 Eh     change       -0.7797312E-04 Eh
 * total energy  :  -126.1699981 Eh     change        0.3905056E-05 Eh
 * total energy  :  -126.1700606 Eh     change       -0.6247636E-04 Eh
 * total energy  :  -126.1700861 Eh     change       -0.2553260E-04 Eh
 * total energy  :  -126.1701235 Eh     change       -0.3739872E-04 Eh
 * total energy  :  -126.1701464 Eh     change       -0.2284224E-04 Eh
 * total energy  :  -126.1701656 Eh     change       -0.1917790E-04 Eh
 * total energy  :  -126.1701819 Eh     change       -0.1632188E-04 Eh
 * total energy  :  -126.1704418 Eh     change       -0.4190749E-06 Eh
 * total energy  :  -126.1704422 Eh     change       -0.3676860E-06 Eh
 * total energy  :  -126.1704426 Eh     change       -0.3782335E-06 Eh
 * total energy  :  -126.1704430 Eh     change       -0.3990169E-06 Eh
 * total energy  :  -126.1704434 Eh     change       -0.4216799E-06 Eh
 * total energy  :  -126.1704439 Eh     change       -0.5000395E-06 Eh
 * total energy  :  -126.1704445 Eh     change       -0.6244694E-06 Eh
 * total energy  :  -126.1704452 Eh     change       -0.7159662E-06 Eh
 * total energy  :  -126.1704452 Eh     change       -0.1336829E-08 Eh
   *** GEOMETRY OPTIMIZATION CONVERGED AFTER 68 ITERATIONS ***

 final structure:
================
77
 xtb: 6.7.1 (edcfbbe)
N           -7.54223941456421        3.13018555104642        1.16342664300179
C           -6.41693344548798        3.02501052003642        0.90016730914436
C           -5.07062178089783        2.89927412379389        0.58590800094465
C           -4.52075497136147        3.57420861105153       -0.53245493017118
C           -3.19534002652312        3.44613226267111       -0.84054257090003
C           -2.34668736799089        2.64192879903270       -0.05354301347194
N           -1.00032697166462        2.48744747821354       -0.39058622934505
C           -0.27568236362262        3.58763518787006       -0.87090024176499
C            0.65966663822666        3.42727973445515       -1.89320470213814
C            1.37402601433383        4.51375599462805       -2.35899524741980
C            1.16033748764267        5.77378978991150       -1.82257343448967
C            0.22387873853022        5.94029678963084       -0.81415686412855
C           -0.48923473997428        4.85777247953756       -0.33606393616427
C           -0.38568083365869        1.25525197646793       -0.24969019496655
C            0.96424998470641        1.16429837788710        0.14116642285835
C            1.56266052847511       -0.06574442664398        0.30237652104094
N            2.92852466670748       -0.13998148257366        0.67994296992186
C            3.92249530004558        0.23569607875883       -0.21011712725658
C            3.64297349668111        0.64716318679746       -1.51222600519936
C            4.66004168003084        1.01602738496573       -2.37031105308035
C            5.98496358639492        0.97804220938851       -1.94933896017982
C            6.28627681688496        0.55389845405879       -0.66752095056430
C            5.27243475768045        0.17785732305512        0.19980779683299
O            5.63373753764286       -0.25316515127095        1.44482176744638
C            4.64314485242242       -0.63339708251310        2.30493004470037
C            5.02199192402781       -1.06804064710748        3.56588836939638
C            4.06362890750458       -1.44915657400599        4.48783789015228
C            2.71644180458275       -1.38334350615477        4.15094770277369
C            2.32838628850027       -0.94965941866525        2.89767279782902
C            3.27845557834616       -0.58064986437743        1.94673657430736
C            0.85022165672131       -1.25390207207478        0.09564106198740
C           -0.49359467827529       -1.15876448178054       -0.28404976477423
N           -1.23401313108822       -2.35293752426588       -0.49194549906993
C           -2.19405968335482       -2.74788282476726        0.42475053977155
C           -2.44108376454923       -2.03896816083813        1.59908645408766
C           -3.40782741036129       -2.46242745496770        2.48920378119385
C           -4.15013866093626       -3.61004634326176        2.22930654395135
C           -3.90901175858583       -4.33867060530362        1.07865417109568
C           -2.93850347318770       -3.92320553444045        0.18002680198789
O           -2.73272599065561       -4.69160580214346       -0.93002683812218
C           -1.77105857073825       -4.29688144793894       -1.81577380762834
C           -1.56708116358597       -5.08718672609174       -2.93681321993016
C           -0.61612834759901       -4.73048434055078       -3.87582826736603
C            0.12977272991748       -3.56988155286247       -3.69882358942356
C           -0.06706446639902       -2.77415885692424       -2.58681482026768
C           -1.00802991581636       -3.12437406260764       -1.61983261059543
C           -1.10594966188545        0.06230181018656       -0.45755289989103
C           -2.88931050592699        1.97553513090064        1.06360008992477
C           -4.21320243221920        2.09753041472771        1.37895557175711
H           -5.16995195323612        4.18782693202601       -1.14143698716110
H           -2.78722383132270        3.95580822052483       -1.70176964567289
H            0.80937123282970        2.44939624532091       -2.32589041065175
H            2.09442040797828        4.37830559009584       -3.15199561475257
H            1.71745110870114        6.62209231168028       -2.19037226363496
H            0.05235651347436        6.91891286689678       -0.39044982053255
H           -1.21292410052623        4.98391866905416        0.45596680906213
H            1.53017351807242        2.06598837967269        0.31891842798123
H            2.61804873043302        0.67315880385940       -1.84429046820064
H            4.42051355594194        1.33151260066939       -3.37364595313546
H            6.77871108812563        1.27035431373652       -2.61790732296222
H            7.30453679468919        0.50141927351755       -0.31586639031226
H            6.07397837747318       -1.09547700553999        3.80200794053442
H            4.36524925583667       -1.78735043889148        5.46622928330214
H            1.96419879510326       -1.66747112440942        4.87001475149601
H            1.28159422975654       -0.89185150286363        2.64692444969048
H            1.32245720186975       -2.21330850673464        0.22598214674765
H           -1.86810390083132       -1.14933359611477        1.80436721288851
H           -3.58562655175906       -1.89641078019554        3.39017134398100
H           -4.90907586240821       -3.93624921800425        2.92222947484201
H           -4.46168767340141       -5.23740306197566        0.85472153968768
H           -2.16817581892447       -5.97528393194318       -3.05158428433711
H           -0.46161269562878       -5.35037069548624       -4.74440271863704
H            0.86552831648781       -3.28271302265432       -4.43341108275859
H            0.50739469416012       -1.87107898364157       -2.45834208074291
H           -2.14054468356397        0.10997786155558       -0.76094393101608
H           -2.23728502124812        1.38095377113606        1.68690128480321
H           -4.62220613949381        1.59534103637081        2.24436727249349

          :  Hamiltonian                  GFN2-xTB          :
         :: gradient norm              0.000144195528 Eh/a0 ::
         :: HOMO-LUMO gap              0.077305270675 eV    ::
         :: SCC energy              -128.397539142589 Eh    ::
         :: -> dispersion             -0.111251565011 Eh    ::
         :: -> Gsolv                  -0.059982379641 Eh    ::
         :: repulsion energy           2.227093917097 Eh    ::

    * Orbital Energies and Occupations

         #    Occupation            Energy/Eh            Energy/eV
      -------------------------------------------------------------
         1        2.0000           -0.7482154             -20.3600
       ...           ...                  ...                  ...
       105        2.0000           -0.4235940             -11.5266
       106        2.0000           -0.4184107             -11.3855
       107        2.0000           -0.4163905             -11.3306
       108        2.0000           -0.4128383             -11.2339
       109        2.0000           -0.4048791             -11.0173
       110        2.0000           -0.4036946             -10.9851
       111        2.0000           -0.4035208             -10.9804
       112        2.0000           -0.3981602             -10.8345
       113        2.0000           -0.3964652             -10.7884
       114        1.9214           -0.3575604              -9.7297
       115        1.8308           -0.3567340              -9.7072
       116        1.2478           -0.3541668              -9.6374
       117        0.7515           -0.2560068              -6.9663 (HOMO)
       118        0.1320           -0.2531658              -6.8890 (LUMO)
       119        0.1162           -0.2530283              -6.8853
       120        0.0003           -0.2470846              -6.7235
       121        0.0000           -0.2455013              -6.6804
       122        0.0000           -0.2403081              -6.5391
       123        0.0000           -0.2401229              -6.5341
       124                         -0.2306128              -6.2753
       125                         -0.2260642              -6.1515
       126                         -0.2250190              -6.1231
       127                         -0.2171184              -5.9081
       128                         -0.2153329              -5.8595
       ...                                ...                  ...
       224                          1.1673601              31.7655
      -------------------------------------------------------------
                  HL-Gap            0.0028410 Eh            0.0773 eV

     #   Z          covCN         q      C6AA      α(0)
     1   7 N        0.911    -0.369    29.502     7.856
     2   6 C        1.910     0.095    28.746     8.659
     3   6 C        2.967    -0.024    28.595     8.771
     4   6 C        2.920    -0.035    28.881     8.813
     5   6 C        2.914    -0.049    29.219     8.864
     6   6 C        2.924     0.036    27.200     8.553
     7   7 N        2.751    -0.047    22.143     6.989
     8   6 C        2.926     0.063    26.582     8.455
     9   6 C        2.922    -0.045    29.123     8.850
    10   6 C        2.919    -0.029    28.714     8.787
    11   6 C        2.919    -0.035    28.859     8.809
    12   6 C        2.919    -0.028    28.698     8.785
    13   6 C        2.922    -0.042    29.056     8.840
    14   6 C        2.924     0.051    26.849     8.497
    15   6 C        2.920    -0.065    29.608     8.923
    16   6 C        2.920     0.057    26.728     8.478
    17   7 N        2.753    -0.030    21.832     6.940
    18   6 C        2.924     0.039    27.122     8.541
    19   6 C        2.920    -0.053    29.309     8.878
    20   6 C        2.917    -0.035    28.880     8.812
    21   6 C        2.918    -0.036    28.897     8.815
    22   6 C        2.916    -0.053    29.323     8.880
    23   6 C        2.883     0.125    25.267     8.241
    24   8 O        1.709    -0.237    17.919     5.715
    25   6 C        2.883     0.125    25.263     8.240
    26   6 C        2.916    -0.054    29.337     8.882
    27   6 C        2.918    -0.035    28.881     8.813
    28   6 C        2.917    -0.036    28.896     8.815
    29   6 C        2.920    -0.053    29.324     8.880
    30   6 C        2.924     0.040    27.096     8.536
    31   6 C        2.919    -0.077    29.911     8.969
    32   6 C        2.920     0.057    26.724     8.477
    33   7 N        2.753    -0.030    21.826     6.939
    34   6 C        2.924     0.040    27.107     8.538
    35   6 C        2.920    -0.052    29.285     8.874
    36   6 C        2.917    -0.035    28.872     8.811
    37   6 C        2.918    -0.036    28.887     8.814
    38   6 C        2.916    -0.053    29.322     8.880
    39   6 C        2.883     0.124    25.271     8.241
    40   8 O        1.709    -0.235    17.895     5.711
    41   6 C        2.883     0.125    25.266     8.241
    42   6 C        2.915    -0.053    29.327     8.880
    43   6 C        2.918    -0.035    28.880     8.813
    44   6 C        2.917    -0.036    28.896     8.815
    45   6 C        2.919    -0.053    29.319     8.879
    46   6 C        2.924     0.040    27.096     8.536
    47   6 C        2.920    -0.062    29.542     8.913
    48   6 C        2.915    -0.050    29.236     8.866
    49   6 C        2.920    -0.035    28.883     8.813
    50   1 H        0.926     0.014     2.821     2.627
    51   1 H        0.926     0.024     2.676     2.558
    52   1 H        0.926     0.038     2.477     2.461
    53   1 H        0.926     0.042     2.428     2.436
    54   1 H        0.926     0.038     2.474     2.460
    55   1 H        0.926     0.037     2.485     2.465
    56   1 H        0.926     0.036     2.509     2.477
    57   1 H        0.926     0.045     2.379     2.412
    58   1 H        0.926     0.047     2.363     2.404
    59   1 H        0.926     0.050     2.321     2.382
    60   1 H        0.926     0.050     2.315     2.379
    61   1 H        0.926     0.056     2.245     2.343
    62   1 H        0.926     0.056     2.241     2.341
    63   1 H        0.926     0.050     2.318     2.381
    64   1 H        0.926     0.049     2.336     2.390
    65   1 H        0.926     0.048     2.351     2.398
    66   1 H        0.926     0.046     2.372     2.408
    67   1 H        0.926     0.045     2.382     2.413
    68   1 H        0.926     0.047     2.354     2.399
    69   1 H        0.926     0.050     2.322     2.383
    70   1 H        0.926     0.057     2.236     2.338
    71   1 H        0.926     0.056     2.241     2.341
    72   1 H        0.926     0.051     2.306     2.375
    73   1 H        0.926     0.051     2.312     2.378
    74   1 H        0.926     0.049     2.330     2.387
    75   1 H        0.926     0.043     2.404     2.424
    76   1 H        0.926     0.024     2.673     2.557
    77   1 H        0.926     0.016     2.787     2.611

molecular dipole:
                 x           y           z       tot (Debye)
 q only:        5.397      -2.287      -0.901
   full:        5.660      -2.252      -0.950      15.669

 projected vibrational frequencies (cm⁻¹)
eigval :       -0.00    -0.00    -0.00     0.00     0.00     0.00
eigval :        9.33    11.34    13.86    20.80    22.57    26.47
eigval :       35.77    43.61    52.38    55.10    65.95    66.80
eigval :       69.13    84.61   102.91   106.12   110.26   130.76
eigval :      131.91   137.15   160.79   203.43   217.40   223.34
eigval :      236.75   238.93   244.05   244.42   249.28   262.41
eigval :      265.58   268.40   294.54   300.20   318.46   332.36
eigval :      350.86   363.93   374.69   378.09   380.75   396.17
eigval :      408.06   416.78   419.03   419.88   420.72   427.55
eigval :      429.22   440.06   460.00   477.68   482.61   488.48
eigval :      488.92   489.29   506.59   514.48   517.26   534.16
eigval :      540.74   558.55   570.43   573.94   585.49   587.10
eigval :      593.01   599.06   618.09   619.24   633.35   640.50
eigval :      643.37   651.66   652.25   654.72   655.83   656.65
eigval :      658.93   700.93   738.24   758.74   761.44   765.27
eigval :      766.69   768.94   771.84   780.54   781.61   797.08
eigval :      813.03   829.05   837.64   851.50   851.92   854.16
eigval :      860.69   861.53   861.66   868.26   872.59   874.88
eigval :      890.70   893.19   894.22   895.50   896.19   899.11
eigval :      899.41   902.56   902.80   905.49   907.53   907.80
eigval :      908.99   911.14   925.48   929.23   954.62   978.96
eigval :      994.79  1007.67  1032.67  1061.42  1075.89  1076.16
eigval :     1079.96  1083.49  1089.05  1092.47  1114.02  1115.21
eigval :     1118.54  1123.56  1132.79  1157.72  1168.40  1169.42
eigval :     1171.29  1174.54  1177.33  1178.22  1185.17  1185.44
eigval :     1194.18  1201.81  1203.05  1219.80  1223.79  1235.46
eigval :     1237.95  1239.25  1243.39  1250.66  1254.90  1263.77
eigval :     1265.58  1278.62  1295.46  1303.71  1311.84  1314.05
eigval :     1317.51  1325.31  1325.48  1326.46  1341.16  1342.10
eigval :     1357.80  1366.24  1385.40  1388.65  1405.68  1416.52
eigval :     1418.60  1433.12  1434.09  1435.52  1437.01  1437.68
eigval :     1438.38  1451.40  1455.00  1463.79  1486.66  1489.11
eigval :     1495.27  1497.62  1520.86  1522.25  1524.48  1528.17
eigval :     1531.64  1574.10  1582.15  1589.08  2229.44  3063.60
eigval :     3067.20  3076.03  3077.09  3078.25  3080.84  3085.46
eigval :     3088.97  3094.51  3094.71  3094.97  3095.23  3096.95
eigval :     3099.22  3101.04  3101.51  3101.78  3101.92  3102.01
eigval :     3110.01  3110.34  3110.43  3110.85  3114.08  3114.28
eigval :     3114.71  3115.45  3117.96

   temp. (K)  partition function   enthalpy   heat capacity  entropy
                                   cal/mol     cal/K/mol   cal/K/mol   J/K/mol
 298.15  VIB  0.373E+19            23304.075    146.652    145.063
         ROT  0.742E+08              888.752      2.981     38.996
         INT  0.277E+27            24192.828    149.633    184.059
         TR   0.154E+29             1481.254      4.968     45.197
         TOT                       25674.0816   154.6007   229.2554   959.2045

       T/K    H(0)-H(T)+PV         H(T)/Eh          T*S/Eh         G(T)/Eh
   ------------------------------------------------------------------------
    298.15    0.409143E-01    0.610370E+00    0.108927E+00    0.501443E+00
   ------------------------------------------------------------------------

         :::::::::::::::::::::::::::::::::::::::::::::::::::::
         ::                  THERMODYNAMIC                  ::
         :::::::::::::::::::::::::::::::::::::::::::::::::::::
         :: total free energy        -125.669002038833 Eh   ::
         ::.................................................::
         :: total energy             -126.170445224725 Eh   ::
         :: zero point energy           0.569455561516 Eh   ::
         :: G(RRHO) w/o ZPVE           -0.068012375624 Eh   ::
         :: G(RRHO) contrib.            0.501443185892 Eh   ::
         :::::::::::::::::::::::::::::::::::::::::::::::::::::

           -------------------------------------------------
          | TOTAL ENERGY             -126.170445224725 Eh   |
          | TOTAL ENTHALPY           -125.560075409936 Eh   |
          | TOTAL FREE ENERGY        -125.669002038833 Eh   |
          | GRADIENT NORM               0.000145626565 Eh/α |
          | HOMO-LUMO GAP               0.077307878963 eV   |
           -------------------------------------------------

 * finished run on 2025/09/14 at 10:48:31.766
