   * xtb version 6.7.1 (edcfbbe) compiled by 'albert@albert-system' on 2024-07-22

   ID    Z sym.   atoms
    1    7 N      1, 7, 17, 33
    2    6 C      2-6, 8-16, 18-23, 25-32, 34-39, 41-49
    3    8 O      24, 40
    4    1 H      50-77

          program call               : xtb data2507/toluene/CNTPA-PXZ/CNTPA-PXZ_toluene_S0_finalOpt.xtbopt.xyz --gfn 2 --uhf 2 --gbsa toluene --ohess vtight --parallel 40 --molden --ceasefiles --namespace data2507/toluene/CNTPA-PXZ/CNTPA-PXZ_toluene_T1_preOpt
      * Solvation model:               GBSA
        Solvent                        toluene
        Solvent mass                       9.2140E+01 g/mol
          :  Hamiltonian                  GFN2-xTB          :
 * total energy  :  -126.1662373 Eh     change       -0.1733986E-07 Eh
 * total energy  :  -126.1690129 Eh     change       -0.2775591E-02 Eh
 * total energy  :  -126.1696805 Eh     change       -0.6675830E-03 Eh
 * total energy  :  -126.1697343 Eh     change       -0.5379613E-04 Eh
 * total energy  :  -126.1697769 Eh     change       -0.4259185E-04 Eh
 * total energy  :  -126.1697998 Eh     change       -0.2285881E-04 Eh
 * total energy  :  -126.1698394 Eh     change       -0.3965865E-04 Eh
 * total energy  :  -126.1699305 Eh     change       -0.9111085E-04 Eh
 * total energy  :  -126.1700048 Eh     change       -0.7423008E-04 Eh
 * total energy  :  -126.1700583 Eh     change       -0.5354528E-04 Eh
 * total energy  :  -126.1704579 Eh     change       -0.3157033E-06 Eh
 * total energy  :  -126.1704581 Eh     change       -0.2233809E-06 Eh
 * total energy  :  -126.1704583 Eh     change       -0.2387152E-06 Eh
 * total energy  :  -126.1704585 Eh     change       -0.1833382E-06 Eh
 * total energy  :  -126.1704586 Eh     change       -0.1474818E-06 Eh
 * total energy  :  -126.1704588 Eh     change       -0.1451920E-06 Eh
 * total energy  :  -126.1704589 Eh     change       -0.1414079E-06 Eh
 * total energy  :  -126.1704591 Eh     change       -0.1282051E-06 Eh
 * total energy  :  -126.1704591 Eh     change       -0.8423235E-07 Eh
   *** GEOMETRY OPTIMIZATION CONVERGED AFTER 61 ITERATIONS ***

 final structure:
================
77
 xtb: 6.7.1 (edcfbbe)
N           -7.47140313329884        3.17763247047946        1.39613244975658
C           -6.35043134427778        3.06874989798655        1.11626111752010
C           -5.00922046296164        2.93869862023935        0.78254231003058
C           -4.45978572973913        3.65863786649260       -0.30761601918146
C           -3.13966671224841        3.52542043735893       -0.63566948831358
C           -2.29605616315116        2.67093215722681        0.10223198044941
N           -0.95575506801851        2.51103695419366       -0.25685283009560
C           -0.21658651312578        3.62176558683142       -0.68779248777314
C            0.71049323260501        3.49724865710553       -1.72260947898052
C            1.43805999448941        4.59428455408055       -2.14068069115958
C            1.24588509440086        5.83030190192272       -1.54368727811895
C            0.31831649390648        5.96159535445858       -0.52193780209611
C           -0.40737936052240        4.86773780379410       -0.09092547611687
C           -0.36286472979082        1.26222962143025       -0.18668740112393
C            0.98964880184631        1.12645048623828        0.18182779022123
C            1.56634892358800       -0.12105728941812        0.27144976008937
N            2.93549532299065       -0.23843523413394        0.62645719815307
C            3.92477300917344        0.15310888393703       -0.26152412536141
C            3.63638439916307        0.61988019362292       -1.54289037786832
C            4.64905044865375        1.00504141217307       -2.39891912825875
C            5.97831457062318        0.92876955498992       -1.99656507236759
C            6.28799513295885        0.44974692512317       -0.73629056445916
C            5.27857933884539        0.05684038799328        0.12871087462313
O            5.64697973562677       -0.42664384424830        1.35214959024271
C            4.66038517587636       -0.82262129930517        2.20967912888449
C            5.04611258861277       -1.31253510619396        3.44809211473567
C            4.09196317755715       -1.71334297150767        4.36596404511826
C            2.74202986755207       -1.61201943610510        4.04849628465869
C            2.34707347900960       -1.12284450298690        2.81810691737374
C            3.29246572430921       -0.73297142012503        1.87087336769846
C            0.82907671353895       -1.28373186140369        0.01474858536152
C           -0.51749918320750       -1.14466493465920       -0.34160603098036
N           -1.28217737003441       -2.31370982870294       -0.59865544491069
C           -1.07817523418389       -3.03569374403545       -1.76296884223551
C           -0.14798607381571       -2.64911774156293       -2.72647367748156
C            0.02844418337425       -3.39636373463743       -3.87501103007532
C           -0.72730615840806       -4.54355318809494       -4.09212448524978
C           -1.66844341802436       -4.93488752323629       -3.15688242346518
C           -1.85229361265571       -4.19298542332559       -1.99999038219699
O           -2.80504637550238       -4.61989422953079       -1.11943045012417
C           -2.99227986901869       -3.89787964124491        0.02464601439517
C           -3.95586929652507       -4.34448437167617        0.91570976371651
C           -4.17924561306677       -3.66363580209106        2.09881082783114
C           -3.42615916360972       -2.53309548685556        2.39843888266217
C           -2.46557589983757       -2.07928770334215        1.51649791075910
C           -2.23617164427413       -2.73961556957801        0.31074368626567
C           -1.10805076110475        0.09486324898824       -0.44576784983076
C           -2.83790193956049        1.95995385749703        1.19186387767040
C           -4.15633440589864        2.08723999692855        1.52730146013201
H           -5.10527259142803        4.31080828549183       -0.87936298982423
H           -2.73204227164059        4.07034184421195       -1.47527698143821
H            0.84365976322748        2.53922224004406       -2.20245840595242
H            2.15189390943042        4.48609210189894       -2.94376691401054
H            1.81312037347434        6.68715609615414       -1.87432835440694
H            0.16374831569946        6.92123243839105       -0.05082651539611
H           -1.12354414863297        4.96633781607952        0.71175971441158
H            1.57517415089328        2.00691411454069        0.39822499133775
H            2.60792651913732        0.67625771196388       -1.86004711232538
H            4.40283204324952        1.36466438602483       -3.38563013538992
H            6.76871410587464        1.23427576475222       -2.66320009540243
H            7.30942895685429        0.36732251321237       -0.39993105551087
H            6.10010568233041       -1.36715157116777        3.67014274055781
H            4.39896772619682       -2.09552579783490        5.32629414190969
H            1.99353794916720       -1.91179600282639        4.76510831785878
H            1.29873416532354       -1.03755409537079        2.58206813556508
H            1.28447596218462       -2.25708290283572        0.08990735273148
H            0.43400885592963       -1.75608298004214       -2.56613203052538
H            0.75580379670082       -3.08155919714495       -4.60672923752050
H           -0.58838968765663       -5.12630603756884       -4.98859207606795
H           -2.27693739901856       -5.81342231279546       -3.30215508211826
H           -4.51738205297865       -5.22922268956447        0.66028771648351
H           -4.93304999098049       -4.01377838073125        2.78558147548730
H           -3.59026781599231       -2.00419324533551        3.32420876420305
H           -1.88419250500087       -1.20300646516794        1.75290549332855
H           -2.14485349684181        0.17718415041476       -0.73384854285345
H           -2.18900711500315        1.32630575334565        1.77891834920747
H           -4.56468299700259        1.55020962514306        2.37183747844129

          :  Hamiltonian                  GFN2-xTB          :
         :: gradient norm              0.000050414041 Eh/a0 ::
         :: HOMO-LUMO gap              0.077128635273 eV    ::
         :: SCC energy              -128.397539096445 Eh    ::
         :: -> dispersion             -0.111237914288 Eh    ::
         :: -> Gsolv                  -0.059995969431 Eh    ::
         :: repulsion energy           2.227079953747 Eh    ::

    * Orbital Energies and Occupations

         #    Occupation            Energy/Eh            Energy/eV
      -------------------------------------------------------------
         1        2.0000           -0.7481917             -20.3593
       ...           ...                  ...                  ...
       105        2.0000           -0.4236381             -11.5278
       106        2.0000           -0.4184005             -11.3853
       107        2.0000           -0.4163947             -11.3307
       108        2.0000           -0.4127822             -11.2324
       109        2.0000           -0.4048764             -11.0172
       110        2.0000           -0.4037038             -10.9853
       111        2.0000           -0.4035841             -10.9821
       112        2.0000           -0.3980926             -10.8327
       113        2.0000           -0.3964544             -10.7881
       114        1.9203           -0.3575650              -9.7298
       115        1.8338           -0.3567725              -9.7083
       116        1.2459           -0.3541761              -9.6376
       117        0.7505           -0.2560241              -6.9668 (HOMO)
       118        0.1321           -0.2531895              -6.8896 (LUMO)
       119        0.1170           -0.2530575              -6.8860
       120        0.0002           -0.2470969              -6.7238
       121        0.0000           -0.2455129              -6.6807
       122        0.0000           -0.2403106              -6.5392
       123        0.0000           -0.2401530              -6.5349
       124                         -0.2305532              -6.2737
       125                         -0.2260638              -6.1515
       126                         -0.2250714              -6.1245
       127                         -0.2171166              -5.9080
       128                         -0.2152467              -5.8572
       ...                                ...                  ...
       224                          1.1672274              31.7619
      -------------------------------------------------------------
                  HL-Gap            0.0028346 Eh            0.0771 eV

     #   Z          covCN         q      C6AA      α(0)
     1   7 N        0.911    -0.369    29.504     7.856
     2   6 C        1.910     0.095    28.747     8.659
     3   6 C        2.967    -0.024    28.596     8.771
     4   6 C        2.920    -0.035    28.881     8.813
     5   6 C        2.914    -0.049    29.218     8.864
     6   6 C        2.924     0.036    27.202     8.553
     7   7 N        2.751    -0.047    22.142     6.989
     8   6 C        2.926     0.063    26.581     8.455
     9   6 C        2.922    -0.045    29.125     8.850
    10   6 C        2.919    -0.029    28.715     8.787
    11   6 C        2.919    -0.035    28.861     8.810
    12   6 C        2.919    -0.028    28.699     8.785
    13   6 C        2.922    -0.043    29.057     8.840
    14   6 C        2.924     0.051    26.847     8.497
    15   6 C        2.920    -0.065    29.606     8.923
    16   6 C        2.920     0.057    26.728     8.478
    17   7 N        2.753    -0.030    21.827     6.939
    18   6 C        2.924     0.039    27.124     8.541
    19   6 C        2.920    -0.053    29.306     8.877
    20   6 C        2.917    -0.035    28.881     8.813
    21   6 C        2.918    -0.036    28.898     8.815
    22   6 C        2.916    -0.053    29.323     8.880
    23   6 C        2.883     0.124    25.268     8.241
    24   8 O        1.709    -0.236    17.914     5.715
    25   6 C        2.883     0.125    25.264     8.240
    26   6 C        2.916    -0.054    29.337     8.882
    27   6 C        2.918    -0.035    28.881     8.813
    28   6 C        2.917    -0.036    28.897     8.815
    29   6 C        2.920    -0.053    29.322     8.880
    30   6 C        2.924     0.040    27.098     8.537
    31   6 C        2.919    -0.076    29.910     8.968
    32   6 C        2.920     0.057    26.724     8.477
    33   7 N        2.753    -0.030    21.831     6.939
    34   6 C        2.925     0.040    27.095     8.536
    35   6 C        2.920    -0.053    29.319     8.879
    36   6 C        2.917    -0.036    28.894     8.815
    37   6 C        2.918    -0.035    28.880     8.813
    38   6 C        2.916    -0.053    29.328     8.880
    39   6 C        2.883     0.125    25.264     8.240
    40   8 O        1.709    -0.235    17.898     5.712
    41   6 C        2.883     0.124    25.269     8.241
    42   6 C        2.916    -0.053    29.322     8.880
    43   6 C        2.918    -0.036    28.885     8.813
    44   6 C        2.917    -0.035    28.870     8.811
    45   6 C        2.920    -0.052    29.287     8.875
    46   6 C        2.924     0.040    27.103     8.538
    47   6 C        2.920    -0.062    29.542     8.913
    48   6 C        2.915    -0.050    29.234     8.866
    49   6 C        2.920    -0.036    28.884     8.813
    50   1 H        0.926     0.014     2.821     2.627
    51   1 H        0.926     0.024     2.676     2.558
    52   1 H        0.926     0.038     2.476     2.461
    53   1 H        0.926     0.042     2.429     2.437
    54   1 H        0.926     0.038     2.475     2.460
    55   1 H        0.926     0.037     2.486     2.466
    56   1 H        0.926     0.035     2.510     2.477
    57   1 H        0.926     0.045     2.378     2.412
    58   1 H        0.926     0.046     2.366     2.406
    59   1 H        0.926     0.050     2.321     2.382
    60   1 H        0.926     0.050     2.315     2.380
    61   1 H        0.926     0.056     2.245     2.343
    62   1 H        0.926     0.056     2.241     2.341
    63   1 H        0.926     0.050     2.318     2.381
    64   1 H        0.926     0.049     2.336     2.390
    65   1 H        0.926     0.047     2.352     2.398
    66   1 H        0.926     0.046     2.374     2.409
    67   1 H        0.926     0.049     2.331     2.388
    68   1 H        0.926     0.051     2.311     2.377
    69   1 H        0.926     0.051     2.306     2.375
    70   1 H        0.926     0.056     2.240     2.341
    71   1 H        0.926     0.057     2.235     2.338
    72   1 H        0.926     0.050     2.321     2.382
    73   1 H        0.926     0.047     2.353     2.399
    74   1 H        0.926     0.045     2.380     2.412
    75   1 H        0.926     0.044     2.401     2.423
    76   1 H        0.926     0.024     2.675     2.557
    77   1 H        0.926     0.016     2.787     2.611

molecular dipole:
                 x           y           z       tot (Debye)
 q only:        5.342      -2.334      -1.073
   full:        5.606      -2.300      -1.122      15.665

 projected vibrational frequencies (cm⁻¹)
eigval :       -0.00    -0.00    -0.00     0.00     0.00     0.00
eigval :       11.63    13.79    19.27    24.41    24.80    27.63
eigval :       39.81    44.84    54.47    55.09    66.42    68.17
eigval :       69.66    85.15   104.38   110.67   111.02   131.17
eigval :      133.00   138.24   161.35   203.94   217.91   223.97
eigval :      237.56   238.96   244.73   246.45   249.31   262.87
eigval :      265.95   268.55   294.92   300.75   318.86   331.74
eigval :      351.18   363.44   374.87   378.81   380.99   396.39
eigval :      408.15   416.93   419.43   420.05   421.50   427.57
eigval :      428.91   440.24   460.73   478.29   483.23   488.83
eigval :      489.42   490.50   506.87   514.84   517.36   534.23
eigval :      540.79   558.74   570.51   573.80   585.90   587.21
eigval :      593.04   599.27   618.25   619.53   633.38   640.75
eigval :      644.23   652.78   653.55   655.18   656.23   657.42
eigval :      659.43   701.21   738.71   760.47   763.08   766.42
eigval :      766.58   768.32   770.20   780.43   781.80   797.12
eigval :      813.16   829.01   836.24   851.54   851.95   859.47
eigval :      860.14   860.31   861.61   868.85   872.80   875.13
eigval :      891.31   893.17   894.16   895.44   896.00   897.50
eigval :      898.26   902.83   904.42   904.72   907.42   907.73
eigval :      907.98   908.68   928.71   932.07   955.31   979.32
eigval :      995.16  1007.43  1032.44  1060.61  1075.13  1075.79
eigval :     1080.21  1083.19  1088.99  1092.39  1113.84  1114.40
eigval :     1119.29  1122.95  1132.95  1157.07  1168.30  1168.92
eigval :     1169.14  1174.19  1177.16  1177.98  1183.84  1185.86
eigval :     1194.87  1201.29  1202.53  1219.45  1223.24  1235.59
eigval :     1237.72  1238.78  1243.49  1251.40  1254.76  1263.34
eigval :     1265.25  1279.15  1295.73  1303.67  1312.19  1313.92
eigval :     1317.59  1325.49  1325.76  1326.21  1340.98  1342.15
eigval :     1358.04  1366.32  1385.15  1388.60  1405.95  1416.61
eigval :     1418.62  1433.25  1434.25  1435.65  1436.94  1437.73
eigval :     1438.68  1451.53  1455.26  1463.95  1487.00  1489.14
eigval :     1495.28  1497.53  1520.73  1522.54  1523.99  1528.10
eigval :     1532.28  1574.15  1582.29  1589.22  2229.40  3063.62
eigval :     3067.32  3076.39  3077.07  3078.83  3080.93  3086.07
eigval :     3089.91  3094.35  3094.56  3094.98  3095.17  3097.28
eigval :     3098.97  3100.69  3101.33  3101.58  3101.80  3102.03
eigval :     3110.15  3110.31  3110.53  3110.69  3114.27  3114.42
eigval :     3114.67  3115.17  3117.43

   temp. (K)  partition function   enthalpy   heat capacity  entropy
                                   cal/mol     cal/K/mol   cal/K/mol   J/K/mol
 298.15  VIB  0.104E+19            23242.105    146.847    143.850
         ROT  0.742E+08              888.752      2.981     38.996
         INT  0.770E+26            24130.857    149.827    182.846
         TR   0.154E+29             1481.254      4.968     45.197
         TOT                       25612.1113   154.7956   228.0427   954.1307

       T/K    H(0)-H(T)+PV         H(T)/Eh          T*S/Eh         G(T)/Eh
   ------------------------------------------------------------------------
    298.15    0.408155E-01    0.610413E+00    0.108350E+00    0.502062E+00
   ------------------------------------------------------------------------

         :::::::::::::::::::::::::::::::::::::::::::::::::::::
         ::                  THERMODYNAMIC                  ::
         :::::::::::::::::::::::::::::::::::::::::::::::::::::
         :: total free energy        -125.668397024196 Eh   ::
         ::.................................................::
         :: total energy             -126.170459138986 Eh   ::
         :: zero point energy           0.569597068856 Eh   ::
         :: G(RRHO) w/o ZPVE           -0.067534954067 Eh   ::
         :: G(RRHO) contrib.            0.502062114789 Eh   ::
         :::::::::::::::::::::::::::::::::::::::::::::::::::::

           -------------------------------------------------
          | TOTAL ENERGY             -126.170459138986 Eh   |
          | TOTAL ENTHALPY           -125.560046572822 Eh   |
          | TOTAL FREE ENERGY        -125.668397024196 Eh   |
          | GRADIENT NORM               0.000052196927 Eh/α |
          | HOMO-LUMO GAP               0.077134119314 eV   |
           -------------------------------------------------

 * finished run on 2025/09/14 at 10:37:16.626
