   * xtb version 6.7.1 (edcfbbe) compiled by 'albert@albert-system' on 2024-07-22

   ID    Z sym.   atoms
    1    6 C      1-4, 6-29, 31-36, 38-42, 44-72
    2    7 N      5, 43
    3    5 B      30, 37
    4    1 H      73-144

          program call               : xtb data2507/toluene/tBuCzDBA/tBuCzDBA_toluene_T1_crest.xyz --gfn 2 --uhf 2 --gbsa toluene --ohess vtight --parallel 40 --molden --ceasefiles --namespace data2507/toluene/tBuCzDBA/tBuCzDBA_toluene_T1_finalOpt
      * Solvation model:               GBSA
        Solvent                        toluene
        Solvent mass                       9.2140E+01 g/mol
          :  Hamiltonian                  GFN2-xTB          :
 * total energy  :  -190.7999620 Eh     change       -0.7782887E-08 Eh
 * total energy  :  -190.8000252 Eh     change       -0.6318912E-04 Eh
 * total energy  :  -190.8000456 Eh     change       -0.2035390E-04 Eh
 * total energy  :  -190.8000522 Eh     change       -0.6633993E-05 Eh
 * total energy  :  -190.8000589 Eh     change       -0.6665166E-05 Eh
 * total energy  :  -190.8000633 Eh     change       -0.4447751E-05 Eh
 * total energy  :  -190.8000662 Eh     change       -0.2879816E-05 Eh
 * total energy  :  -190.8000683 Eh     change       -0.2069703E-05 Eh
 * total energy  :  -190.8000703 Eh     change       -0.2032175E-05 Eh
 * total energy  :  -190.8000725 Eh     change       -0.2159053E-05 Eh
 * total energy  :  -190.8000767 Eh     change       -0.5853814E-06 Eh
 * total energy  :  -190.8000773 Eh     change       -0.5876767E-06 Eh
 * total energy  :  -190.8000779 Eh     change       -0.5700963E-06 Eh
 * total energy  :  -190.8000783 Eh     change       -0.3752651E-06 Eh
 * total energy  :  -190.8000785 Eh     change       -0.2343542E-06 Eh
 * total energy  :  -190.8000787 Eh     change       -0.2216182E-06 Eh
 * total energy  :  -190.8000790 Eh     change       -0.2890506E-06 Eh
 * total energy  :  -190.8000793 Eh     change       -0.3350213E-06 Eh
 * total energy  :  -190.8000793 Eh     change       -0.5117329E-08 Eh
   *** GEOMETRY OPTIMIZATION CONVERGED AFTER 22 ITERATIONS ***

 final structure:
================
144
 xtb: 6.7.1 (edcfbbe)
C           -3.00063956446708       -1.52950601966997        1.87269268845753
C           -3.77283824628846       -0.74100476251919        0.85755186724515
C           -5.15574355294262       -0.74380488696380        0.88333176499634
C           -5.88077648860822       -0.00411443740221       -0.04761966817016
N           -7.28008399970063       -0.00480232349330       -0.01217502130720
C           -8.08719249604632       -1.12093423375959        0.07735953720703
C           -7.75488706704906       -2.46799632201675        0.08578857318418
C           -8.78121284269756       -3.38852620900002        0.15096630087994
C          -10.13309989757246       -3.02125562319199        0.19971743693498
C          -11.19020353744223       -4.11397202244410        0.27473872493903
C          -12.61414264752179       -3.55338196039409        0.34506931048225
C          -10.95169831706713       -4.96347477738898        1.53230465971058
C          -11.08698022360910       -4.99839738134619       -0.97717944499202
C          -10.45369568146239       -1.67177812443851        0.16072655008461
C           -9.44200261722065       -0.72444122405112        0.09500668879702
C           -9.44505637954279        0.71281513298934        0.01763439425733
C          -10.45985737606645        1.65903834396238        0.01906343439074
C          -10.14397945029715        3.00888121069882       -0.03989930496800
C          -11.20466672737956        4.10062686573874       -0.04484220473972
C          -11.05903115426710        4.94011529911812       -1.32314845203972
C          -12.62956425505726        3.53941097521923       -0.00596556890682
C          -11.01089147428206        4.99473582080764        1.18935389553303
C           -8.79226925108356        3.37747127013846       -0.08170450522446
C           -7.76280685075919        2.45812097196041       -0.08281229465947
C           -8.09220883515271        1.11070361837958       -0.05135832812561
C           -5.20219884566526        0.73730257227915       -1.01145550248816
C           -3.81915790544220        0.74366754277001       -1.04555824878445
C           -3.09618421245751        1.53918209306462       -2.09108073364955
C           -3.07690038654049        0.00526217416101       -0.10856764236666
B           -1.50820497830174        0.01585369433525       -0.13211130679812
C           -0.70612631962205        1.08595341344763        0.62449623204596
C           -1.38099361734628        2.09378829510454        1.33880771412206
C           -0.69474376399417        3.06928935716643        2.02041626177155
C            0.70273282945818        3.06916802335696        2.01777007663240
C            1.38624429678327        2.09335465800083        1.33385775724813
C            0.70852355465085        1.08536150150656        0.62247331615404
B            1.50763302230415        0.01361442162462       -0.13497138568221
C            3.07632374775330        0.00070821134041       -0.11341153231265
C            3.81879480879286        0.72642297715921       -1.06007402394962
C            3.09584700547321        1.50991154310740       -2.11465164774907
C            5.20184407265191        0.71896504118500       -1.02681415137096
C            5.88035819408933       -0.00925329443060       -0.05284697043552
N            7.27953901621032       -0.00886035488564       -0.01652145933023
C            8.09115329297971        1.10638295395527       -0.07328101833231
C            7.76135089907239        2.45292754665613       -0.12911429757754
C            8.79044233450831        3.37260773896405       -0.14334224513458
C           10.14223473090863        3.00550884470846       -0.09301490533983
C           11.20254738712370        4.09741287538786       -0.11593084651219
C           11.05864677890315        4.91466796736345       -1.40878018911623
C           11.00659830506960        5.01292914757699        1.10214458796990
C           12.62758172832323        3.53747833124545       -0.06505706612962
C           10.45848768437024        1.65706225380081       -0.00896000392266
C            9.44407567219532        0.71056720394402        0.00537705284008
C            9.44167322607632       -0.72507488982500        0.10854207358973
C           10.45385953354992       -1.67018216290089        0.19508262791240
C           10.13419298006958       -3.01893759578683        0.25908578873064
C           11.19190144996207       -4.10894748583956        0.36097699915935
C           10.94994900109784       -4.93137347363267        1.63581289424663
C           12.61516538928762       -3.54572317945399        0.42374040664867
C           11.09390729932922       -5.02062014214811       -0.87164310046996
C            8.78278205163467       -3.38811785864417        0.21200915500989
C            7.75598567415704       -2.46977050510998        0.12601443445506
C            8.08717920666725       -1.12275482441927        0.09447854510733
C            5.15498977367510       -0.73636077109697        0.88778639556503
C            3.77212019527462       -0.73416620251479        0.86149207038819
C            2.99964162022216       -1.51121269284109        1.88520139206469
C            0.70562236016128       -1.04951338151724       -0.90101150061882
C            1.38057907126153       -2.05495014402943       -1.61861022414039
C            0.69427669628118       -3.02519169942232       -2.30766727924277
C           -0.70322883586054       -3.02332347117435       -2.30754864914640
C           -1.38685550326732       -2.05145500725678       -1.61813223499617
C           -0.70917233711893       -1.04803576017432       -0.90025099901541
H           -3.66658157981551       -2.03054511704409        2.57180752807683
H           -2.33167664582512       -0.87332878719997        2.42736780372699
H           -2.38292676180268       -2.27586141413513        1.37490926992868
H           -5.68487411366157       -1.29766122835134        1.64585559739833
H           -6.72690856702398       -2.79326532478261        0.03161536183820
H           -8.51670395172607       -4.43494486476875        0.15889641058843
H          -12.85302871347271       -2.97608183214746       -0.54527079696012
H          -13.32366037785839       -4.37600815881343        0.41069992050105
H          -12.74471570369900       -2.92630762008115        1.22424350471726
H           -9.97861448140236       -5.44607504479954        1.50843103239799
H          -11.00106858017560       -4.33971024552626        2.42291631930907
H          -11.71250401226755       -5.73751808711326        1.61041824807308
H          -10.11551396914253       -5.48051237874198       -1.04395195637424
H          -11.85076302036481       -5.77302434991738       -0.95218095817703
H          -11.23183220961338       -4.39886755638466       -1.87398268405091
H          -11.47676943436926       -1.33522050515212        0.17456499879906
H          -11.48126149134024        1.32129962572847        0.07228915335253
H          -11.82446804734833        5.71298558748106       -1.35229857277002
H          -11.17193579279037        4.30899126078130       -2.20274896890165
H          -10.08713438646111        5.42319662736311       -1.37347092853224
H          -13.34224634586678        4.36176962811801       -0.02158515592009
H          -12.80040471822564        2.96576317998395        0.90224189952036
H          -12.82592225767172        2.90874576167276       -0.87019426799895
H          -11.77647880201366        5.76753879684520        1.21557503268713
H          -10.03867454009936        5.47974901824354        1.18016213646360
H          -11.08676087713681        4.40171152557268        2.09891999859101
H           -8.53005307613420        4.42415097393142       -0.10898042927507
H           -6.73397882920827        2.78488109468554       -0.09573123695758
H           -5.76810069985616        1.28726057782861       -1.75008749398831
H           -3.79350596064113        2.00460167151361       -2.78422352192089
H           -2.49576688709334        2.31620191824287       -1.61925942200163
H           -2.41533993605068        0.89728995377584       -2.64771497270757
H           -2.46329556948698        2.09449526763587        1.34615663789924
H           -1.23360551904675        3.83621448802987        2.56122564532083
H            1.24377237552645        3.83603901549057        2.55647422523145
H            2.46856697323022        2.09372699191712        1.33735475156099
H            3.79317218787592        1.96839720386004       -2.81240057996338
H            2.41583783016530        0.86156070914188       -2.66477280187192
H            2.49452674308970        2.29142295712957       -1.65144986359913
H            5.76764625988837        1.25820088920486       -1.77335353325106
H            6.73246777873597        2.77911882976734       -0.14899447951290
H            8.52779444329731        4.41849551174385       -0.18975177532688
H           11.17487347536587        4.26915023926492       -2.27745282118070
H           10.08610924201210        5.39524885309927       -1.46964213122184
H           11.82289512587146        5.68821074910666       -1.44918464381354
H           11.08180281018973        4.43606757366936        2.02209378386607
H           10.03404445970903        5.49700788113915        1.08318487939532
H           11.77160116499206        5.78663677994052        1.11568676946098
H           12.79722081954594        2.97994502194222        0.85336105502153
H           12.82546358773222        2.89178218505567       -0.91777617462716
H           13.34001643225164        4.35969691071598       -0.09398988008726
H           11.47992531959898        1.32077353029088        0.05197950563048
H           11.47659649382351       -1.33256129000774        0.20585215733825
H            9.97569033030935       -5.41199515760230        1.62087020840753
H           11.00008094632411       -4.28961613979220        2.51353345855958
H           11.70878117095844       -5.70548311777020        1.73081018715806
H           12.74230370469066       -2.89906084506857        1.28911962326586
H           12.85657828637881       -2.98827531714919       -0.47851176095190
H           13.32512299757663       -4.36604877858624        0.51019575596944
H           11.24293754666048       -4.44092761935857       -1.78071824705599
H           11.85748797403289       -5.79451551642027       -0.82619947012471
H           10.12272980680888       -5.50410994706355       -0.93218817101725
H            8.51899561816128       -4.43440915109716        0.23858158211210
H            6.72852016726257       -2.79694147109313        0.07370486065382
H            5.68382435692913       -1.27968532912325        1.65802815683666
H            2.38247340914687       -2.26329168438634        1.39534997743594
H            3.66533529133409       -2.00423897967998        2.59022843453687
H            2.33014323637444       -0.84911997817819        2.43210622351271
H            2.46290702847222       -2.05755718442241       -1.62288633079008
H            1.23311589503293       -3.78958796243029       -2.85204455385157
H           -1.24419940437171       -3.78622550601133       -2.85190807471769
H           -2.46918895482437       -2.05133982266443       -1.62208911295760

          :  Hamiltonian                  GFN2-xTB          :
         :: gradient norm              0.000060522211 Eh/a0 ::
         :: HOMO-LUMO gap              1.018078474670 eV    ::
         :: SCC energy              -194.166010153582 Eh    ::
         :: -> dispersion             -0.186812269219 Eh    ::
         :: -> Gsolv                  -0.073249430824 Eh    ::
         :: repulsion energy           3.365930814716 Eh    ::

    * Orbital Energies and Occupations

         #    Occupation            Energy/Eh            Energy/eV
      -------------------------------------------------------------
         1        2.0000           -0.6748281             -18.3630
       ...           ...                  ...                  ...
       169        2.0000           -0.3875504             -10.5458
       170        2.0000           -0.3868195             -10.5259
       171        2.0000           -0.3847051             -10.4684
       172        2.0000           -0.3835306             -10.4364
       173        2.0000           -0.3792050             -10.3187
       174        2.0000           -0.3747806             -10.1983
       175        2.0000           -0.3747373             -10.1971
       176        2.0000           -0.3727259             -10.1424
       177        2.0000           -0.3690953             -10.0436
       178        1.9999           -0.3603155              -9.8047
       179        1.9634           -0.3541560              -9.6371
       180        1.0366           -0.3479410              -9.4680
       181        1.0000           -0.2800098              -7.6195 (HOMO)
       182                         -0.2425964              -6.6014 (LUMO)
       183                         -0.2425382              -6.5998
       184                         -0.2323919              -6.3237
       185                         -0.2212662              -6.0210
       186                         -0.2206496              -6.0042
       187                         -0.2194123              -5.9705
       188                         -0.2193765              -5.9695
       189                         -0.2109909              -5.7414
       190                         -0.2109228              -5.7395
       191                         -0.2010325              -5.4704
       192                         -0.2009617              -5.4684
       ...                                ...                  ...
       360                          0.7402995              20.1446
      -------------------------------------------------------------
                  HL-Gap            0.0374134 Eh            1.0181 eV

     #   Z          covCN         q      C6AA      α(0)
     1   6 C        3.759    -0.112    22.700     6.793
     2   6 C        2.967     0.015    27.683     8.630
     3   6 C        2.922    -0.060    29.492     8.906
     4   6 C        2.910     0.057    26.724     8.477
     5   7 N        2.801    -0.035    21.924     6.954
     6   6 C        3.080     0.045    26.907     8.504
     7   6 C        2.908    -0.051    29.259     8.870
     8   6 C        2.930    -0.040    28.996     8.831
     9   6 C        2.972     0.001    27.999     8.680
    10   6 C        3.902     0.025    20.094     6.372
    11   6 C        3.761    -0.107    22.594     6.776
    12   6 C        3.761    -0.105    22.554     6.770
    13   6 C        3.761    -0.105    22.551     6.770
    14   6 C        2.917    -0.044    29.089     8.844
    15   6 C        3.065    -0.019    28.424     8.742
    16   6 C        3.066    -0.019    28.423     8.742
    17   6 C        2.917    -0.044    29.089     8.844
    18   6 C        2.972     0.001    28.000     8.680
    19   6 C        3.902     0.025    20.094     6.372
    20   6 C        3.761    -0.105    22.553     6.770
    21   6 C        3.761    -0.107    22.594     6.776
    22   6 C        3.761    -0.105    22.552     6.770
    23   6 C        2.930    -0.040    28.996     8.831
    24   6 C        2.908    -0.051    29.260     8.870
    25   6 C        3.080     0.045    26.907     8.504
    26   6 C        2.922    -0.060    29.494     8.906
    27   6 C        2.967     0.015    27.683     8.630
    28   6 C        3.759    -0.112    22.698     6.792
    29   6 C        2.892    -0.071    29.756     8.944
    30   5 B        2.719     0.190    18.533     7.216
    31   6 C        2.889    -0.065    29.618     8.922
    32   6 C        2.917    -0.032    28.800     8.800
    33   6 C        2.915    -0.042    29.044     8.837
    34   6 C        2.915    -0.042    29.044     8.837
    35   6 C        2.917    -0.032    28.800     8.800
    36   6 C        2.889    -0.065    29.618     8.923
    37   5 B        2.719     0.190    18.533     7.216
    38   6 C        2.892    -0.071    29.756     8.943
    39   6 C        2.967     0.015    27.683     8.630
    40   6 C        3.759    -0.112    22.698     6.792
    41   6 C        2.922    -0.060    29.495     8.906
    42   6 C        2.910     0.057    26.723     8.477
    43   7 N        2.801    -0.035    21.922     6.954
    44   6 C        3.079     0.045    26.907     8.504
    45   6 C        2.908    -0.051    29.260     8.870
    46   6 C        2.930    -0.040    28.996     8.831
    47   6 C        2.972     0.001    27.999     8.680
    48   6 C        3.902     0.025    20.093     6.372
    49   6 C        3.761    -0.105    22.553     6.770
    50   6 C        3.761    -0.105    22.552     6.770
    51   6 C        3.761    -0.107    22.594     6.776
    52   6 C        2.917    -0.044    29.088     8.844
    53   6 C        3.066    -0.019    28.423     8.742
    54   6 C        3.065    -0.019    28.423     8.742
    55   6 C        2.917    -0.044    29.088     8.844
    56   6 C        2.972     0.001    27.999     8.679
    57   6 C        3.902     0.025    20.093     6.372
    58   6 C        3.761    -0.105    22.554     6.770
    59   6 C        3.761    -0.107    22.594     6.776
    60   6 C        3.761    -0.105    22.551     6.770
    61   6 C        2.930    -0.040    28.996     8.831
    62   6 C        2.908    -0.051    29.259     8.870
    63   6 C        3.080     0.045    26.907     8.504
    64   6 C        2.922    -0.060    29.493     8.906
    65   6 C        2.967     0.015    27.682     8.630
    66   6 C        3.759    -0.112    22.700     6.793
    67   6 C        2.889    -0.065    29.621     8.923
    68   6 C        2.917    -0.032    28.801     8.800
    69   6 C        2.915    -0.042    29.043     8.837
    70   6 C        2.915    -0.042    29.043     8.837
    71   6 C        2.917    -0.032    28.801     8.800
    72   6 C        2.889    -0.065    29.622     8.923
    73   1 H        0.925     0.040     2.455     2.450
    74   1 H        0.925     0.050     2.325     2.385
    75   1 H        0.925     0.051     2.313     2.379
    76   1 H        0.926     0.031     2.577     2.510
    77   1 H        0.926     0.031     2.568     2.506
    78   1 H        0.926     0.033     2.549     2.497
    79   1 H        0.925     0.036     2.500     2.473
    80   1 H        0.925     0.037     2.486     2.466
    81   1 H        0.925     0.036     2.500     2.473
    82   1 H        0.925     0.036     2.498     2.472
    83   1 H        0.925     0.033     2.548     2.496
    84   1 H        0.925     0.038     2.470     2.458
    85   1 H        0.925     0.036     2.501     2.473
    86   1 H        0.925     0.039     2.466     2.456
    87   1 H        0.925     0.033     2.550     2.497
    88   1 H        0.926     0.041     2.433     2.439
    89   1 H        0.926     0.041     2.433     2.439
    90   1 H        0.925     0.038     2.469     2.457
    91   1 H        0.925     0.033     2.548     2.496
    92   1 H        0.925     0.036     2.499     2.472
    93   1 H        0.925     0.037     2.486     2.466
    94   1 H        0.925     0.036     2.500     2.473
    95   1 H        0.925     0.036     2.500     2.473
    96   1 H        0.925     0.039     2.466     2.456
    97   1 H        0.925     0.036     2.501     2.473
    98   1 H        0.925     0.033     2.550     2.497
    99   1 H        0.926     0.033     2.549     2.497
   100   1 H        0.926     0.031     2.568     2.506
   101   1 H        0.926     0.031     2.577     2.510
   102   1 H        0.925     0.040     2.455     2.450
   103   1 H        0.925     0.050     2.315     2.379
   104   1 H        0.925     0.050     2.324     2.384
   105   1 H        0.925     0.014     2.832     2.632
   106   1 H        0.925     0.012     2.853     2.641
   107   1 H        0.925     0.012     2.853     2.641
   108   1 H        0.925     0.014     2.832     2.632
   109   1 H        0.925     0.040     2.455     2.450
   110   1 H        0.925     0.050     2.323     2.384
   111   1 H        0.925     0.050     2.315     2.380
   112   1 H        0.926     0.031     2.576     2.510
   113   1 H        0.926     0.031     2.567     2.505
   114   1 H        0.926     0.033     2.549     2.497
   115   1 H        0.925     0.033     2.548     2.496
   116   1 H        0.925     0.036     2.499     2.472
   117   1 H        0.925     0.038     2.469     2.457
   118   1 H        0.925     0.033     2.550     2.497
   119   1 H        0.925     0.036     2.501     2.473
   120   1 H        0.925     0.039     2.466     2.456
   121   1 H        0.925     0.036     2.500     2.473
   122   1 H        0.925     0.036     2.500     2.473
   123   1 H        0.925     0.037     2.486     2.466
   124   1 H        0.926     0.041     2.433     2.439
   125   1 H        0.926     0.041     2.433     2.439
   126   1 H        0.925     0.036     2.498     2.472
   127   1 H        0.925     0.033     2.548     2.496
   128   1 H        0.925     0.038     2.470     2.458
   129   1 H        0.925     0.036     2.500     2.473
   130   1 H        0.925     0.036     2.500     2.473
   131   1 H        0.925     0.037     2.486     2.466
   132   1 H        0.925     0.033     2.550     2.497
   133   1 H        0.925     0.039     2.466     2.456
   134   1 H        0.925     0.036     2.501     2.473
   135   1 H        0.926     0.033     2.549     2.497
   136   1 H        0.926     0.031     2.567     2.506
   137   1 H        0.926     0.031     2.576     2.510
   138   1 H        0.925     0.050     2.314     2.379
   139   1 H        0.925     0.040     2.455     2.450
   140   1 H        0.925     0.050     2.324     2.384
   141   1 H        0.925     0.014     2.829     2.630
   142   1 H        0.925     0.012     2.852     2.641
   143   1 H        0.925     0.012     2.852     2.641
   144   1 H        0.925     0.014     2.829     2.630

molecular dipole:
                 x           y           z       tot (Debye)
 q only:        0.010      -0.007       0.054
   full:        0.010      -0.003       0.055       0.143

 projected vibrational frequencies (cm⁻¹)
eigval :       -0.00    -0.00    -0.00     0.00     0.00     0.00
eigval :        3.50     4.69     5.98    10.18    12.61    18.16
eigval :       25.41    28.57    31.42    33.97    35.74    36.25
eigval :       38.41    40.68    41.65    49.42    50.03    54.56
eigval :       64.82    67.61    71.22    77.05    84.04    87.03
eigval :       87.99    88.47    90.20    96.24    97.65   107.64
eigval :      110.88   112.00   118.08   122.67   134.51   159.09
eigval :      160.02   170.89   173.27   176.35   178.37   179.76
eigval :      192.36   200.25   200.61   203.57   204.03   204.44
eigval :      211.43   218.69   219.69   220.15   222.38   225.47
eigval :      226.04   227.24   227.55   232.01   233.50   258.30
eigval :      260.53   270.84   279.67   280.90   302.56   304.83
eigval :      309.34   316.47   318.42   319.37   320.73   322.05
eigval :      324.45   325.74   337.10   339.09   339.90   341.06
eigval :      354.49   357.89   358.70   362.25   362.30   366.46
eigval :      378.15   379.46   397.06   397.76   399.02   408.65
eigval :      410.34   414.70   417.18   440.56   440.87   441.78
eigval :      443.16   446.39   448.49   453.07   463.20   464.09
eigval :      465.34   465.91   479.33   480.89   493.79   494.61
eigval :      496.26   497.87   513.67   518.72   529.68   539.53
eigval :      540.26   544.01   548.20   562.84   574.07   578.86
eigval :      584.67   585.13   590.05   591.88   597.23   600.64
eigval :      625.25   634.79   636.88   640.67   641.78   651.99
eigval :      669.96   680.44   689.98   690.34   690.71   696.91
eigval :      697.96   699.85   708.60   711.12   718.16   718.45
eigval :      751.22   755.58   803.05   806.83   822.05   822.94
eigval :      824.54   825.28   833.61   834.41   852.54   853.13
eigval :      854.01   860.16   869.29   869.73   871.96   872.25
eigval :      874.06   875.73   878.12   878.97   883.46   887.87
eigval :      889.88   905.46   905.99   908.53   915.48   915.78
eigval :      916.99   918.25   918.41   919.17   923.48   923.66
eigval :      931.14   931.58   958.59   959.51   959.52   959.71
eigval :      961.61   961.77   961.90   962.33   962.62   962.96
eigval :      963.47   963.49   983.24   983.33   996.89   997.40
eigval :     1025.32  1025.83  1029.56  1030.70  1030.98  1031.38
eigval :     1034.05  1034.38  1034.75  1034.92  1035.06  1035.30
eigval :     1041.24  1041.43  1041.63  1045.91  1047.02  1047.13
eigval :     1052.29  1084.94  1086.71  1100.42  1108.05  1115.91
eigval :     1125.55  1127.06  1127.27  1137.57  1150.46  1155.86
eigval :     1161.20  1168.95  1169.08  1171.56  1177.98  1178.57
eigval :     1184.83  1188.26  1215.34  1216.64  1217.01  1224.43
eigval :     1224.60  1224.76  1224.82  1226.06  1227.79  1229.48
eigval :     1229.52  1231.26  1233.57  1233.61  1233.70  1238.07
eigval :     1242.74  1244.06  1252.43  1253.50  1277.14  1279.94
eigval :     1281.34  1281.45  1299.25  1299.45  1307.12  1308.75
eigval :     1311.13  1311.17  1325.45  1327.42  1343.73  1346.56
eigval :     1347.31  1347.33  1355.32  1363.16  1373.39  1380.81
eigval :     1399.82  1400.13  1400.93  1401.59  1402.30  1402.58
eigval :     1402.71  1402.82  1403.11  1403.21  1403.48  1403.70
eigval :     1404.02  1409.15  1409.22  1426.21  1426.62  1426.90
eigval :     1427.24  1427.83  1430.99  1431.99  1432.51  1434.96
eigval :     1455.73  1455.83  1467.85  1467.94  1468.25  1468.45
eigval :     1470.35  1470.41  1479.71  1479.86  1481.83  1484.37
eigval :     1485.35  1485.98  1488.47  1488.75  1489.17  1489.23
eigval :     1492.01  1492.09  1492.19  1492.36  1498.72  1498.88
eigval :     1499.00  1499.18  1502.08  1502.11  1502.52  1502.56
eigval :     1503.63  1511.28  1511.53  1511.89  1512.24  1513.64
eigval :     1517.57  1518.08  1518.40  1518.94  1526.39  1526.50
eigval :     1535.48  1539.73  1564.31  1564.31  1570.55  1573.42
eigval :     1579.46  1580.55  1589.55  1589.57  1604.12  1608.34
eigval :     3005.13  3006.14  3007.04  3007.17  3018.73  3019.00
eigval :     3019.09  3019.19  3019.66  3019.69  3019.72  3020.09
eigval :     3022.55  3022.68  3023.12  3023.32  3023.33  3023.41
eigval :     3023.43  3023.70  3024.32  3024.42  3024.52  3024.61
eigval :     3026.91  3027.01  3027.09  3027.18  3030.31  3030.50
eigval :     3030.60  3030.69  3030.70  3031.08  3031.43  3031.66
eigval :     3035.54  3035.90  3036.07  3036.13  3038.32  3038.46
eigval :     3042.19  3042.29  3044.42  3044.47  3044.73  3045.19
eigval :     3048.03  3048.12  3048.18  3048.64  3049.50  3049.65
eigval :     3059.09  3059.43  3070.36  3070.64  3071.93  3072.47
eigval :     3080.62  3080.70  3080.84  3080.89  3092.10  3092.23
eigval :     3092.59  3092.73  3116.15  3116.97  3118.81  3119.47

   temp. (K)  partition function   enthalpy   heat capacity  entropy
                                   cal/mol     cal/K/mol   cal/K/mol   J/K/mol
 298.15  VIB  0.596E+36            43219.878    258.014    274.936
         ROT  0.450E+09              888.752      2.981     42.575
         INT  0.268E+45            44108.630    260.995    317.511
         TR   0.278E+29             1481.254      4.968     46.373
         TOT                       45589.8842   265.9628   363.8832  1522.4872

       T/K    H(0)-H(T)+PV         H(T)/Eh          T*S/Eh         G(T)/Eh
   ------------------------------------------------------------------------
    298.15    0.726521E-01    0.126544E+01    0.172893E+00    0.109254E+01
   ------------------------------------------------------------------------

         :::::::::::::::::::::::::::::::::::::::::::::::::::::
         ::                  THERMODYNAMIC                  ::
         :::::::::::::::::::::::::::::::::::::::::::::::::::::
         :: total free energy        -189.707535787520 Eh   ::
         ::.................................................::
         :: total energy             -190.800079338805 Eh   ::
         :: zero point energy           1.192784082649 Eh   ::
         :: G(RRHO) w/o ZPVE           -0.100240531363 Eh   ::
         :: G(RRHO) contrib.            1.092543551286 Eh   ::
         :::::::::::::::::::::::::::::::::::::::::::::::::::::

           -------------------------------------------------
          | TOTAL ENERGY             -190.800079338805 Eh   |
          | TOTAL ENTHALPY           -189.534643151213 Eh   |
          | TOTAL FREE ENERGY        -189.707535787520 Eh   |
          | GRADIENT NORM               0.000059994925 Eh/α |
          | HOMO-LUMO GAP               1.018071646496 eV   |
           -------------------------------------------------

 * finished run on 2025/08/23 at 09:03:20.719
