   * xtb version 6.7.1 (edcfbbe) compiled by 'albert@albert-system' on 2024-07-22

   ID    Z sym.   atoms
    1    6 C      1-4, 6-29, 31-36, 38-42, 44-72
    2    7 N      5, 43
    3    5 B      30, 37
    4    1 H      73-144

          program call               : xtb data2507/toluene/tBuCzDBA/tBuCzDBA_toluene_S0_finalOpt.xtbopt.xyz --gfn 2 --uhf 2 --gbsa toluene --ohess vtight --parallel 40 --molden --ceasefiles --namespace data2507/toluene/tBuCzDBA/tBuCzDBA_toluene_T1_preOpt
      * Solvation model:               GBSA
        Solvent                        toluene
        Solvent mass                       9.2140E+01 g/mol
          :  Hamiltonian                  GFN2-xTB          :
 * total energy  :  -190.7972779 Eh     change       -0.4971440E-08 Eh
 * total energy  :  -190.7994371 Eh     change       -0.2159183E-02 Eh
 * total energy  :  -190.7998842 Eh     change       -0.4471488E-03 Eh
 * total energy  :  -190.7999307 Eh     change       -0.4649225E-04 Eh
 * total energy  :  -190.7999707 Eh     change       -0.4000140E-04 Eh
 * total energy  :  -190.7999849 Eh     change       -0.1419168E-04 Eh
 * total energy  :  -190.8000055 Eh     change       -0.2063604E-04 Eh
 * total energy  :  -190.8000204 Eh     change       -0.1481059E-04 Eh
 * total energy  :  -190.8000303 Eh     change       -0.9891751E-05 Eh
 * total energy  :  -190.8000409 Eh     change       -0.1061503E-04 Eh
 * total energy  :  -190.8000644 Eh     change       -0.2581417E-05 Eh
 * total energy  :  -190.8000662 Eh     change       -0.1802844E-05 Eh
 * total energy  :  -190.8000682 Eh     change       -0.2049525E-05 Eh
 * total energy  :  -190.8000704 Eh     change       -0.2200081E-05 Eh
 * total energy  :  -190.8000715 Eh     change       -0.1047141E-05 Eh
 * total energy  :  -190.8000720 Eh     change       -0.5567794E-06 Eh
 * total energy  :  -190.8000725 Eh     change       -0.5333978E-06 Eh
 * total energy  :  -190.8000730 Eh     change       -0.4444466E-06 Eh
 * total energy  :  -190.8000730 Eh     change       -0.4455788E-07 Eh
   *** GEOMETRY OPTIMIZATION CONVERGED AFTER 22 ITERATIONS ***

 final structure:
================
144
 xtb: 6.7.1 (edcfbbe)
C           -2.98486146978070       -1.51431063040472        1.84544648684136
C           -3.76484640428655       -0.74587842065884        0.82090361633753
C           -5.14736026901434       -0.74090629616517        0.86266000779305
C           -5.87947400738082       -0.01973074645228       -0.07719649974178
N           -7.27815929110267       -0.00830777626242       -0.02296002510574
C           -8.09321121827498       -1.11472512589964        0.10559496633000
C           -7.77239836771605       -2.46410302632104        0.14184818141367
C           -8.80533885176144       -3.37344653969276        0.24808916568223
C          -10.15295346842864       -2.99284492180042        0.31107812022518
C          -11.21788932716799       -4.07301058991596        0.43886100458961
C          -12.63560792419728       -3.49737285134959        0.51334125691677
C          -10.96518593908255       -4.88125505766265        1.72069725848957
C          -11.14387511601806       -5.00065907133812       -0.78341678543895
C          -10.46259182698753       -1.64198001919578        0.24227555616644
C           -9.44408780703533       -0.70579416701709        0.13580353292180
C           -9.43607197328444        0.72927382397599        0.02550718743708
C          -10.44254087911805        1.68425217969271        0.02220666573088
C          -10.11617370733171        3.02970219908674       -0.07082619087807
C          -11.16770974541458        4.13025086841411       -0.08162413955067
C          -11.03602697729473        4.94235142686417       -1.37901321771294
C          -12.59634191480641        3.58203250720982       -0.00832329802439
C          -10.94657973767374        5.04778752552801        1.13061846756053
C           -8.76220534016142        3.38514668238413       -0.14247264873867
C           -7.74079548579382        2.45679916782505       -0.14034834179831
C           -8.08113020764924        1.11337277632275       -0.07393506135280
C           -5.20867789540142        0.69248132549656       -1.06810175199400
C           -3.82606242218437        0.69159566511607       -1.11770052387790
C           -3.11134039215740        1.45772215644125       -2.19051406846071
C           -3.07649938341192       -0.02515988858710       -0.16978109814360
B           -1.50793779293024       -0.01228583777045       -0.20269072703888
C           -0.70687518165245        1.08225037061574        0.51961205694654
C           -1.38313557909639        2.11143042673797        1.20151357810457
C           -0.69838459052926        3.10792819970377        1.85350700705882
C            0.69909275934856        3.10759706021689        1.85396692557199
C            1.38387317293051        2.11113163623771        1.20194396756889
C            0.70767706171284        1.08266628106364        0.51887970787468
B            1.50852010261500       -0.01002977718782       -0.20655929411619
C            3.07718476362673       -0.02143020468325       -0.17672341043679
C            3.82434678520725        0.71872067730560       -1.10850130053989
C            3.10717752603306        1.50798252851886       -2.16279042039126
C            5.20705897217970        0.72155445098770       -1.06009737052552
C            5.88022031102639       -0.01443304991235       -0.08848982830876
N            7.27907007368646       -0.00201028289997       -0.03486420206809
C            8.07980578649881        1.12222529621902       -0.04871918293602
C            7.73658894566770        2.46622679634352       -0.07648362408388
C            8.75577405141409        3.39641691713405       -0.04378229464464
C           10.11012308987528        3.04183559217557        0.02559959021106
C           11.15905132902341        4.14456663064921        0.05378820758601
C           11.03814230087661        4.98714269297255       -1.22505691077924
C           10.92393565326663        5.03219057988548        1.28546711597715
C           12.58812843744305        3.59775037191323        0.12846405453332
C           10.43929865204056        1.69490391588224        0.07789219115440
C            9.43514801151496        0.73799586186853        0.04484522437197
C            9.44586034532792       -0.69981199415296        0.10987672081786
C           10.46588736349060       -1.63717600529420        0.18808235325149
C           10.15855470264768       -2.99011465349600        0.21095821517109
C           11.22537304002517       -4.07231704693862        0.29966048379965
C           10.97392640108312       -4.92866047285010        1.55006743921602
C           12.64203871530538       -3.49738768894160        0.39619762616197
C           11.15311672069723       -4.95345265488589       -0.95675101351027
C            8.81167073683800       -3.37090893072894        0.13417858991002
C            7.77726640983467       -2.46050213395345        0.05573711332087
C            8.09588926660621       -1.11015098078636        0.06256109147345
C            5.15068427941541       -0.76016532685398        0.83397061547633
C            3.76808288063306       -0.76466543024240        0.79544095880222
C            2.99131950502676       -1.55681190752043        1.80426565190448
C            0.70751144369055       -1.09348672274985       -0.94469264926691
C            1.38360105439015       -2.11517819716842       -1.63794160792967
C            0.69848352863069       -3.10576600047432       -2.29857521066163
C           -0.69904502103062       -3.10838095351699       -2.29436139570661
C           -1.38382615309544       -2.11996370748879       -1.63013085260171
C           -0.70728875125734       -1.09534692927959       -0.94169639348166
H           -3.64531495202516       -1.99817592090294        2.56165880681167
H           -2.30875506442037       -0.84826164269575        2.37930758559283
H           -2.37406455391612       -2.27306608539137        1.35797522911926
H           -5.67034803491123       -1.27292194660572        1.64472847465668
H           -6.74822540128947       -2.79956704632744        0.07840303271617
H           -8.54978690607977       -4.42163769227397        0.27893073458781
H          -12.88310265341449       -2.94632932838251       -0.39120838904146
H          -13.35127739544430       -4.31084966808646        0.61600754999365
H          -12.74700633029122       -2.84166594109915        1.37407351849594
H           -9.99579411445058       -5.37133871470637        1.69765731011332
H          -10.99611627786664       -4.22755423499999        2.59049547785488
H          -11.72986753785592       -5.64664676834285        1.83692898453372
H          -10.17782450801726       -5.49340249521032       -0.85079394719234
H          -11.91340016013310       -5.76720536068051       -0.71830534099449
H          -11.30007604440859       -4.43097911979574       -1.69760104627857
H          -11.48228329742779       -1.29587109806804        0.26498024648573
H          -11.46575673342820        1.35682282501046        0.09909375829401
H          -11.16892255510861        4.29487230458528       -2.24380657709998
H          -10.06103296539647        5.41576019459124       -1.45497605442324
H          -11.79523919781227        5.72119959221886       -1.41134856253245
H          -13.30253877543210        4.40986519327660       -0.02894072516698
H          -12.75699560143729        3.02816220969060        0.91392601307697
H          -12.81190276415531        2.93587238770567       -0.85639334567776
H          -11.70603023208897        5.82672499539500        1.15382612374504
H           -9.97120067510102        5.52523723400681        1.09503358626289
H          -11.01129547282378        4.47404237409703        2.05331814407436
H           -8.49156538805261        4.42863315980385       -0.19639445609570
H           -6.70951037064460        2.77389863693237       -0.17715770733091
H           -5.78059200971464        1.22655373350319       -1.81374936911080
H           -3.81390259811393        1.89974530805285       -2.89360856352545
H           -2.51167370137550        2.25089504491670       -1.74524017196474
H           -2.43070035268978        0.80202679353444       -2.73098248890124
H           -2.46542870968599        2.11165291579612        1.20759671725279
H           -1.23834450592030        3.89122668034861        2.36913942720878
H            1.23905465548723        3.89062106996319        2.37002170448339
H            2.46615784438482        2.11116190607711        1.20857824734447
H            3.80795572839691        1.96068455726648       -2.86086910496648
H            2.42120018309402        0.86528413647503       -2.71204120510903
H            2.51294446254299        2.29500520615078       -1.69966879770917
H            5.77728415865226        1.27559898422073       -1.79238299161817
H            6.70475518524726        2.78189809887903       -0.11005117165190
H            8.48305193773356        4.44048091059388       -0.06800406950516
H           11.18083953157906        4.36030522982209       -2.10334689633514
H           10.06259657249967        5.45975345530674       -1.29919773714300
H           11.79569099155343        5.76824563340033       -1.23155083781388
H           10.97963613538055        4.43637098708138        2.19465510691570
H            9.94855675614979        5.50966566254506        1.25133127795780
H           11.68216754690946        5.81104936800603        1.33557702435167
H           12.73917996315968        3.01857604199603        1.03669251095028
H           12.81543109903527        2.97614017430578       -0.73472405029684
H           13.29241525664001        4.42739559006952        0.13924635449167
H           11.46285046044719        1.36744819281043        0.15031844080460
H           11.48493391325045       -1.29021040701387        0.22422178257479
H           10.00615044346157       -5.42060923291425        1.50774230365407
H           11.00179029217926       -4.30765721599892        2.44354072170863
H           11.74095522479846       -5.69541338745029        1.63851957987835
H           12.75166877442279       -2.87315723905762        1.28022196265979
H           12.88946540237882       -2.91346114636219       -0.48748190879084
H           13.35885598451623       -4.31296275432308        0.46990015021495
H           11.30564012398287       -4.34914840389514       -1.84904785629848
H           11.92560962358112       -5.71899728488246       -0.92165575265001
H           10.18877376284274       -5.44694683807360       -1.04121788208120
H            8.55806011872181       -4.42002218665253        0.13044134085680
H            6.75369018424666       -2.79539306502668       -0.01952212389071
H            5.67585507418036       -1.31170951764142        1.60092128493926
H            2.30862824107038       -0.90540349017212        2.34768982046854
H            2.38778774017481       -2.31190838336493        1.30229671418456
H            3.65375774962062       -2.04801925729155        2.51361723669334
H            2.46590859647012       -2.11414964935921       -1.64565613468820
H            1.23819668460786       -3.88280394788548       -2.82383027839378
H           -1.23900897890050       -3.88751652854037       -2.81623325997005
H           -2.46615721480734       -2.12267547925455       -1.63163933784065

          :  Hamiltonian                  GFN2-xTB          :
         :: gradient norm              0.000123326167 Eh/a0 ::
         :: HOMO-LUMO gap              1.020958439512 eV    ::
         :: SCC energy              -194.165986936989 Eh    ::
         :: -> dispersion             -0.186818414253 Eh    ::
         :: -> Gsolv                  -0.073300356000 Eh    ::
         :: repulsion energy           3.365913740659 Eh    ::

    * Orbital Energies and Occupations

         #    Occupation            Energy/Eh            Energy/eV
      -------------------------------------------------------------
         1        2.0000           -0.6748146             -18.3626
       ...           ...                  ...                  ...
       169        2.0000           -0.3875756             -10.5465
       170        2.0000           -0.3868425             -10.5265
       171        2.0000           -0.3847841             -10.4705
       172        2.0000           -0.3835451             -10.4368
       173        2.0000           -0.3791817             -10.3181
       174        2.0000           -0.3747652             -10.1979
       175        2.0000           -0.3747132             -10.1965
       176        2.0000           -0.3727819             -10.1439
       177        2.0000           -0.3691589             -10.0453
       178        1.9999           -0.3602956              -9.8041
       179        1.9631           -0.3541990              -9.6382
       180        1.0370           -0.3480053              -9.4697
       181        1.0000           -0.2800953              -7.6218 (HOMO)
       182                         -0.2425751              -6.6008 (LUMO)
       183                         -0.2425043              -6.5989
       184                         -0.2325286              -6.3274
       185                         -0.2211824              -6.0187
       186                         -0.2206029              -6.0029
       187                         -0.2193936              -5.9700
       188                         -0.2193422              -5.9686
       189                         -0.2110269              -5.7423
       190                         -0.2109595              -5.7405
       191                         -0.2010883              -5.4719
       192                         -0.2010143              -5.4699
       ...                                ...                  ...
       360                          0.7403779              20.1467
      -------------------------------------------------------------
                  HL-Gap            0.0375202 Eh            1.0210 eV

     #   Z          covCN         q      C6AA      α(0)
     1   6 C        3.759    -0.112    22.700     6.793
     2   6 C        2.967     0.015    27.682     8.630
     3   6 C        2.922    -0.060    29.491     8.906
     4   6 C        2.910     0.057    26.724     8.477
     5   7 N        2.801    -0.035    21.924     6.954
     6   6 C        3.080     0.045    26.906     8.504
     7   6 C        2.908    -0.051    29.258     8.869
     8   6 C        2.930    -0.040    28.996     8.831
     9   6 C        2.972     0.001    27.999     8.680
    10   6 C        3.902     0.025    20.093     6.372
    11   6 C        3.761    -0.107    22.594     6.776
    12   6 C        3.761    -0.105    22.554     6.770
    13   6 C        3.761    -0.105    22.551     6.770
    14   6 C        2.917    -0.044    29.089     8.844
    15   6 C        3.065    -0.019    28.424     8.742
    16   6 C        3.066    -0.019    28.423     8.742
    17   6 C        2.917    -0.044    29.089     8.844
    18   6 C        2.972     0.001    28.000     8.680
    19   6 C        3.902     0.025    20.093     6.372
    20   6 C        3.761    -0.105    22.553     6.770
    21   6 C        3.761    -0.107    22.594     6.776
    22   6 C        3.761    -0.105    22.551     6.770
    23   6 C        2.930    -0.040    28.996     8.831
    24   6 C        2.908    -0.051    29.259     8.870
    25   6 C        3.080     0.045    26.907     8.504
    26   6 C        2.922    -0.060    29.493     8.906
    27   6 C        2.967     0.015    27.683     8.630
    28   6 C        3.759    -0.112    22.698     6.792
    29   6 C        2.892    -0.071    29.756     8.944
    30   5 B        2.719     0.190    18.532     7.215
    31   6 C        2.889    -0.065    29.617     8.922
    32   6 C        2.917    -0.032    28.799     8.800
    33   6 C        2.915    -0.042    29.043     8.837
    34   6 C        2.915    -0.042    29.043     8.837
    35   6 C        2.917    -0.032    28.799     8.800
    36   6 C        2.889    -0.065    29.617     8.922
    37   5 B        2.719     0.190    18.534     7.216
    38   6 C        2.892    -0.071    29.757     8.944
    39   6 C        2.967     0.015    27.684     8.630
    40   6 C        3.759    -0.112    22.698     6.792
    41   6 C        2.922    -0.060    29.492     8.906
    42   6 C        2.910     0.057    26.725     8.477
    43   7 N        2.802    -0.036    21.927     6.955
    44   6 C        3.080     0.045    26.906     8.504
    45   6 C        2.908    -0.051    29.260     8.870
    46   6 C        2.930    -0.040    28.996     8.831
    47   6 C        2.972     0.001    28.000     8.680
    48   6 C        3.902     0.025    20.094     6.372
    49   6 C        3.761    -0.105    22.553     6.770
    50   6 C        3.761    -0.105    22.552     6.770
    51   6 C        3.761    -0.107    22.594     6.776
    52   6 C        2.917    -0.044    29.089     8.844
    53   6 C        3.066    -0.019    28.424     8.742
    54   6 C        3.065    -0.019    28.425     8.742
    55   6 C        2.917    -0.044    29.089     8.844
    56   6 C        2.972     0.001    28.000     8.680
    57   6 C        3.902     0.025    20.094     6.372
    58   6 C        3.761    -0.105    22.554     6.770
    59   6 C        3.761    -0.107    22.594     6.776
    60   6 C        3.761    -0.105    22.551     6.770
    61   6 C        2.930    -0.040    28.996     8.831
    62   6 C        2.908    -0.051    29.258     8.869
    63   6 C        3.080     0.045    26.905     8.504
    64   6 C        2.922    -0.060    29.490     8.905
    65   6 C        2.967     0.015    27.683     8.630
    66   6 C        3.759    -0.112    22.700     6.793
    67   6 C        2.889    -0.065    29.620     8.923
    68   6 C        2.917    -0.032    28.800     8.800
    69   6 C        2.915    -0.042    29.042     8.837
    70   6 C        2.915    -0.042    29.043     8.837
    71   6 C        2.917    -0.032    28.800     8.800
    72   6 C        2.889    -0.065    29.620     8.923
    73   1 H        0.925     0.040     2.454     2.450
    74   1 H        0.925     0.050     2.326     2.385
    75   1 H        0.925     0.051     2.312     2.378
    76   1 H        0.926     0.031     2.577     2.510
    77   1 H        0.926     0.031     2.568     2.506
    78   1 H        0.926     0.033     2.549     2.497
    79   1 H        0.925     0.036     2.500     2.473
    80   1 H        0.925     0.037     2.486     2.466
    81   1 H        0.925     0.036     2.500     2.473
    82   1 H        0.925     0.036     2.498     2.472
    83   1 H        0.925     0.033     2.548     2.496
    84   1 H        0.925     0.038     2.469     2.457
    85   1 H        0.925     0.036     2.501     2.473
    86   1 H        0.925     0.039     2.466     2.456
    87   1 H        0.925     0.033     2.549     2.497
    88   1 H        0.926     0.041     2.432     2.439
    89   1 H        0.926     0.041     2.433     2.439
    90   1 H        0.925     0.033     2.548     2.496
    91   1 H        0.925     0.036     2.499     2.472
    92   1 H        0.925     0.038     2.469     2.457
    93   1 H        0.925     0.037     2.486     2.466
    94   1 H        0.925     0.036     2.500     2.473
    95   1 H        0.925     0.036     2.500     2.472
    96   1 H        0.925     0.039     2.466     2.456
    97   1 H        0.925     0.036     2.501     2.473
    98   1 H        0.925     0.033     2.550     2.497
    99   1 H        0.926     0.033     2.549     2.497
   100   1 H        0.926     0.031     2.569     2.506
   101   1 H        0.926     0.031     2.577     2.510
   102   1 H        0.925     0.040     2.455     2.450
   103   1 H        0.925     0.050     2.314     2.379
   104   1 H        0.925     0.050     2.324     2.384
   105   1 H        0.925     0.014     2.832     2.632
   106   1 H        0.925     0.012     2.852     2.641
   107   1 H        0.925     0.012     2.853     2.641
   108   1 H        0.925     0.014     2.832     2.631
   109   1 H        0.925     0.040     2.455     2.450
   110   1 H        0.925     0.050     2.326     2.385
   111   1 H        0.925     0.051     2.313     2.378
   112   1 H        0.926     0.031     2.578     2.511
   113   1 H        0.926     0.031     2.570     2.507
   114   1 H        0.926     0.033     2.550     2.497
   115   1 H        0.925     0.033     2.548     2.496
   116   1 H        0.925     0.036     2.499     2.472
   117   1 H        0.925     0.039     2.469     2.457
   118   1 H        0.925     0.033     2.550     2.497
   119   1 H        0.925     0.036     2.501     2.473
   120   1 H        0.925     0.039     2.467     2.456
   121   1 H        0.925     0.036     2.500     2.473
   122   1 H        0.925     0.036     2.500     2.472
   123   1 H        0.925     0.037     2.486     2.466
   124   1 H        0.926     0.041     2.433     2.439
   125   1 H        0.926     0.041     2.433     2.439
   126   1 H        0.925     0.036     2.499     2.472
   127   1 H        0.925     0.033     2.548     2.496
   128   1 H        0.925     0.038     2.469     2.457
   129   1 H        0.925     0.036     2.500     2.473
   130   1 H        0.925     0.036     2.500     2.473
   131   1 H        0.925     0.037     2.486     2.466
   132   1 H        0.925     0.033     2.550     2.497
   133   1 H        0.925     0.039     2.466     2.456
   134   1 H        0.925     0.036     2.501     2.473
   135   1 H        0.926     0.033     2.549     2.497
   136   1 H        0.926     0.031     2.570     2.507
   137   1 H        0.926     0.031     2.579     2.511
   138   1 H        0.925     0.049     2.327     2.386
   139   1 H        0.925     0.051     2.311     2.377
   140   1 H        0.925     0.040     2.455     2.450
   141   1 H        0.925     0.014     2.827     2.629
   142   1 H        0.925     0.012     2.851     2.640
   143   1 H        0.925     0.012     2.850     2.640
   144   1 H        0.925     0.014     2.827     2.629

molecular dipole:
                 x           y           z       tot (Debye)
 q only:       -0.014       0.001       0.081
   full:       -0.014       0.007       0.084       0.217

 projected vibrational frequencies (cm⁻¹)
eigval :       -0.00    -0.00    -0.00     0.00     0.00     0.00
eigval :        4.54     5.88     6.69    12.44    13.07    18.95
eigval :       26.00    30.31    34.77    34.87    36.97    37.24
eigval :       38.39    41.72    42.40    49.83    50.65    57.21
eigval :       65.02    68.14    72.63    78.80    81.54    83.25
eigval :       88.99    89.19    90.08    97.05    97.68   107.50
eigval :      111.30   113.15   118.59   123.05   134.19   158.46
eigval :      163.48   171.34   175.23   178.15   178.55   180.13
eigval :      194.09   200.47   202.21   203.72   204.42   205.11
eigval :      211.40   219.63   220.16   220.78   223.96   225.52
eigval :      226.47   227.03   231.00   231.38   234.66   258.48
eigval :      259.83   270.82   279.25   280.66   302.88   305.08
eigval :      309.86   316.54   317.85   319.72   320.74   322.21
eigval :      324.05   324.59   337.44   339.52   340.00   341.57
eigval :      354.00   358.71   359.07   362.52   363.04   367.20
eigval :      379.12   379.85   397.09   398.47   399.06   409.35
eigval :      410.25   415.23   417.24   440.47   441.16   442.40
eigval :      442.97   447.94   448.53   453.33   463.31   464.29
eigval :      465.51   466.16   479.85   480.75   493.63   494.77
eigval :      496.47   497.98   514.07   518.98   530.09   539.40
eigval :      540.19   544.28   548.15   563.20   573.19   578.80
eigval :      584.82   585.25   590.36   592.09   597.42   600.84
eigval :      625.21   634.91   636.96   641.37   642.70   652.32
eigval :      670.13   680.56   690.23   690.62   691.47   696.41
eigval :      698.02   699.97   708.97   711.47   718.20   718.48
eigval :      752.06   756.61   803.05   806.87   821.89   822.45
eigval :      824.51   825.05   833.61   834.32   852.28   852.96
eigval :      854.94   861.08   868.49   869.40   872.05   872.26
eigval :      873.32   874.73   877.86   879.10   883.51   887.64
eigval :      889.70   905.86   906.54   908.48   915.80   916.19
eigval :      916.31   917.53   918.46   919.08   923.46   923.55
eigval :      931.63   931.68   958.80   959.61   959.79   959.92
eigval :      961.85   962.08   962.29   962.45   962.65   963.32
eigval :      963.50   963.54   983.04   983.20   997.06   997.29
eigval :     1024.88  1025.42  1029.06  1030.45  1031.12  1031.42
eigval :     1034.47  1034.71  1034.88  1034.93  1035.22  1035.39
eigval :     1041.06  1041.51  1041.55  1045.92  1046.83  1047.03
eigval :     1052.20  1085.04  1086.92  1100.16  1108.06  1116.58
eigval :     1125.77  1127.52  1127.60  1137.15  1150.21  1156.01
eigval :     1161.09  1168.91  1169.76  1171.24  1177.91  1178.40
eigval :     1184.90  1188.70  1215.36  1216.94  1217.38  1224.52
eigval :     1224.73  1224.90  1225.06  1226.33  1228.01  1229.55
eigval :     1229.78  1231.29  1233.56  1233.75  1234.00  1238.18
eigval :     1242.52  1244.06  1252.51  1253.59  1277.90  1280.09
eigval :     1281.37  1281.86  1299.22  1299.53  1306.62  1308.74
eigval :     1311.15  1311.19  1325.43  1327.45  1343.83  1346.69
eigval :     1347.43  1347.48  1355.30  1363.48  1373.54  1380.78
eigval :     1400.20  1400.31  1401.04  1401.25  1402.09  1402.51
eigval :     1402.57  1402.64  1402.80  1403.40  1403.49  1403.59
eigval :     1403.88  1409.28  1409.39  1426.15  1426.77  1427.19
eigval :     1427.29  1428.49  1431.12  1431.94  1432.48  1435.11
eigval :     1455.87  1456.03  1467.71  1467.99  1468.12  1468.87
eigval :     1470.33  1470.51  1479.78  1479.92  1482.07  1484.33
eigval :     1485.36  1485.98  1488.44  1488.93  1489.07  1489.41
eigval :     1491.70  1492.26  1492.68  1492.93  1498.51  1499.17
eigval :     1499.21  1499.42  1501.93  1502.18  1502.25  1502.69
eigval :     1503.68  1511.32  1511.49  1511.98  1512.25  1513.89
eigval :     1517.93  1518.02  1518.68  1519.01  1526.54  1526.65
eigval :     1535.79  1540.01  1564.40  1564.41  1570.32  1573.42
eigval :     1579.44  1580.57  1589.58  1589.60  1604.09  1608.41
eigval :     3005.00  3005.66  3007.01  3007.09  3018.78  3018.94
eigval :     3019.20  3019.34  3019.71  3019.87  3019.98  3020.22
eigval :     3022.50  3022.66  3023.27  3023.47  3023.54  3023.68
eigval :     3023.71  3023.89  3024.20  3024.50  3024.61  3024.86
eigval :     3026.98  3027.21  3027.29  3027.42  3030.21  3030.41
eigval :     3030.58  3030.70  3030.74  3030.80  3031.44  3031.46
eigval :     3035.60  3035.75  3036.06  3036.53  3038.52  3038.77
eigval :     3042.05  3042.46  3044.47  3044.61  3044.77  3045.43
eigval :     3047.94  3048.00  3048.09  3048.82  3049.40  3049.78
eigval :     3059.26  3059.67  3070.09  3070.42  3071.75  3072.30
eigval :     3080.49  3080.53  3080.67  3080.92  3092.04  3092.10
eigval :     3092.53  3092.81  3115.94  3116.43  3119.03  3119.11

   temp. (K)  partition function   enthalpy   heat capacity  entropy
                                   cal/mol     cal/K/mol   cal/K/mol   J/K/mol
 298.15  VIB  0.162E+36            43161.463    258.204    273.711
         ROT  0.450E+09              888.752      2.981     42.575
         INT  0.730E+44            44050.215    261.185    316.286
         TR   0.278E+29             1481.254      4.968     46.373
         TOT                       45531.4689   266.1530   362.6586  1517.3634

       T/K    H(0)-H(T)+PV         H(T)/Eh          T*S/Eh         G(T)/Eh
   ------------------------------------------------------------------------
    298.15    0.725590E-01    0.126551E+01    0.172311E+00    0.109320E+01
   ------------------------------------------------------------------------

         :::::::::::::::::::::::::::::::::::::::::::::::::::::
         ::                  THERMODYNAMIC                  ::
         :::::::::::::::::::::::::::::::::::::::::::::::::::::
         :: total free energy        -189.706877592242 Eh   ::
         ::.................................................::
         :: total energy             -190.800073196140 Eh   ::
         :: zero point energy           1.192947373930 Eh   ::
         :: G(RRHO) w/o ZPVE           -0.099751770032 Eh   ::
         :: G(RRHO) contrib.            1.093195603899 Eh   ::
         :::::::::::::::::::::::::::::::::::::::::::::::::::::

           -------------------------------------------------
          | TOTAL ENERGY             -190.800073196140 Eh   |
          | TOTAL ENTHALPY           -189.534566807929 Eh   |
          | TOTAL FREE ENERGY        -189.706877592242 Eh   |
          | GRADIENT NORM               0.000123835363 Eh/α |
          | HOMO-LUMO GAP               1.020975723309 eV   |
           -------------------------------------------------

 * finished run on 2025/08/23 at 08:31:55.153
