   * xtb version 6.7.1 (edcfbbe) compiled by 'albert@albert-system' on 2024-07-22

   ID    Z sym.   atoms
    1    6 C      1-4, 6-29, 31-36, 38-42, 44-72
    2    7 N      5, 43
    3    5 B      30, 37
    4    1 H      73-144

          program call               : xtb data2507/toluene/tBuCzDBA/tBuCzDBA.xyz --gfn 2 --gbsa toluene --ohess vtight --parallel 40 --molden --ceasefiles --namespace data2507/toluene/tBuCzDBA/tBuCzDBA_toluene_S0_preOpt
      * Solvation model:               GBSA
        Solvent                        toluene
        Solvent mass                       9.2140E+01 g/mol
          :  Hamiltonian                  GFN2-xTB          :
 * total energy  :  -190.7598696 Eh     change       -0.3791513E-08 Eh
 * total energy  :  -190.8165473 Eh     change       -0.5667769E-01 Eh
 * total energy  :  -190.8345631 Eh     change       -0.1801587E-01 Eh
 * total energy  :  -190.8407086 Eh     change       -0.6145425E-02 Eh
 * total energy  :  -190.8445359 Eh     change       -0.3827374E-02 Eh
 * total energy  :  -190.8475480 Eh     change       -0.3012071E-02 Eh
 * total energy  :  -190.8501790 Eh     change       -0.2630986E-02 Eh
 * total energy  :  -190.8524377 Eh     change       -0.2258703E-02 Eh
 * total energy  :  -190.8541055 Eh     change       -0.1667769E-02 Eh
 * total energy  :  -190.8552118 Eh     change       -0.1106373E-02 Eh
 * total energy  :  -190.8612197 Eh     change       -0.2654826E-05 Eh
 * total energy  :  -190.8612225 Eh     change       -0.2783095E-05 Eh
 * total energy  :  -190.8612252 Eh     change       -0.2764729E-05 Eh
 * total energy  :  -190.8612278 Eh     change       -0.2597063E-05 Eh
 * total energy  :  -190.8612302 Eh     change       -0.2328328E-05 Eh
 * total energy  :  -190.8612321 Eh     change       -0.1988714E-05 Eh
 * total energy  :  -190.8612338 Eh     change       -0.1697757E-05 Eh
 * total energy  :  -190.8612354 Eh     change       -0.1611836E-05 Eh
 * total energy  :  -190.8612355 Eh     change       -0.6989410E-08 Eh
   *** GEOMETRY OPTIMIZATION CONVERGED AFTER 152 ITERATIONS ***

 final structure:
================
144
 xtb: 6.7.1 (edcfbbe)
C           -2.94197902985512       -2.31827328207289        0.28120221749728
C           -3.73273457752549       -1.05545700926755        0.09740771971974
C           -5.11750390403825       -1.09277770022214        0.12002573741649
C           -5.85782994847011        0.06609127782099       -0.08011036843336
N           -7.26212997627500        0.02364296903182       -0.06038074074478
C           -8.05772075493740       -0.87090454099759       -0.74674877114131
C           -7.71577279273171       -1.87745236905180       -1.63521568009720
C           -8.73023038772880       -2.63056641390344       -2.19761291538481
C          -10.08139481487062       -2.40951535206323       -1.91368181767970
C          -11.19510169154588       -3.25255305626380       -2.52235464676429
C          -10.67182425108758       -4.35840514062013       -3.44430198445580
C          -12.11998330308159       -2.34456367508129       -3.34683337641940
C          -11.99478061146124       -3.91784113608594       -1.39168996516184
C          -10.41319941329933       -1.37524515146843       -1.04812271092625
C           -9.41740474145875       -0.60497420184398       -0.46821403421314
C           -9.43540372850805        0.51394656173223        0.43363550147331
C          -10.45450597981050        1.21930500988196        1.05441843124461
C          -10.15502778409642        2.27286547431218        1.90842072282934
C          -11.29437806124592        3.04288376337289        2.56460316640894
C          -10.80561957150422        4.19088975923638        3.45352228651683
C          -12.19151085019415        3.64132997968823        1.47032912602537
C          -12.11360837907555        2.08043410557508        3.43767272579471
C           -8.81045349923402        2.57902504776734        2.13960572338067
C           -7.77327514800663        1.89216696249809        1.53556321483771
C           -8.08555311408092        0.86594364713744        0.65882158512413
C           -5.19597183658091        1.26834807547920       -0.29565473366934
C           -3.81088233170877        1.32029389178559       -0.29245029861590
C           -3.10937691067220        2.63483251872225       -0.47592212787255
C           -3.05808763696916        0.15586727118765       -0.10019956664369
B           -1.48898621460818        0.20081280067290       -0.09731020492630
C           -0.71422571282841        0.24310108650154        1.25429239951912
C           -1.39333369709218        0.28765518022863        2.47394026830654
C           -0.71551768357998        0.30069117812386        3.68142224309061
C            0.66951906737441        0.26371581474366        3.69109480706832
C            1.36284304924949        0.22479447499450        2.49302332675282
C            0.69945163546580        0.22137884224261        1.26391697981017
B            1.49075570901095        0.20087836192553       -0.07875202986545
C            3.05973146118564        0.15374376280995       -0.06436910845577
C            3.81409932644867        1.32086220763946        0.10315785142678
C            3.11501052019069        2.64347846379864        0.22803827239673
C            5.19843038220612        1.26277277188409        0.14046785203909
C            5.85822733195294        0.05000055744475       -0.01325612547498
N            7.26212711842031       -0.00259203961973        0.01651303952406
C            8.02414699772766       -0.87162762819663        0.77049817044090
C            7.64044142333868       -1.83896740911315        1.68507702385014
C            8.62692340091175       -2.57173296093514        2.31945010941506
C            9.98973496842451       -2.36841400554685        2.08161437822517
C           11.07268725109256       -3.18947171295122        2.77053294198456
C           11.91938465746457       -3.89901127144967        1.70279570164448
C           11.96326915011729       -2.25199311077585        3.59979593579292
C           10.50552234406880       -4.25846438239380        3.70985702134905
C           10.36250929085728       -1.37279214853342        1.18788047749888
C            9.39543262628584       -0.62331419819442        0.53646654575759
C            9.45622488022546        0.45778193673665       -0.40857909393876
C           10.50350731903103        1.13314779089437       -1.01550620040821
C           10.24482848028000        2.15352587853045       -1.92150476670917
C           11.41478910543623        2.89225955309001       -2.55953005567086
C           10.96978869845146        4.00015984951541       -3.51939028188714
C           12.26991456644697        1.89174171904028       -3.35157343932274
C           12.26317181006314        3.53729483810210       -1.45287942941236
C            8.91245241074271        2.45737816541019       -2.21756362389448
C            7.84781550702850        1.79960256896381       -1.62904544685863
C            8.11863345797393        0.80671015106945       -0.70161122926462
C            5.11662935411895       -1.11107783317399       -0.19534905389264
C            3.73197432698289       -1.06627650132429       -0.20903991459980
C            2.93797549505966       -2.32966400441354       -0.37412347744158
C            0.71629583474686        0.21283598420602       -1.43065247593246
C            1.39570141049555        0.22904751293203       -2.65076024574806
C            0.71807053945497        0.21585325016272       -3.85839145903675
C           -0.66700744318219        0.18003844831476       -3.86745344789523
C           -1.36064575989488        0.16805790526570       -2.66893643413267
C           -0.69757021325839        0.19164210483255       -1.43990895525622
H           -3.59750492144609       -3.16807120303482        0.45797552923404
H           -2.25826038510555       -2.21974923582031        1.12285234506563
H           -2.34227661008054       -2.51784447890733       -0.60643316678886
H           -5.63203134612169       -2.02498395008313        0.30483761679726
H           -6.68529930308026       -2.07095474651328       -1.89380885253676
H           -8.44594060908455       -3.41321917115467       -2.88181646386343
H          -10.02368114132491       -5.04476689044029       -2.90380868324342
H          -11.51167163458364       -4.92868802060186       -3.83714278690147
H          -10.12669142769352       -3.94095798128801       -4.28796834575233
H          -12.57714007213533       -1.57765294386556       -2.72741211376312
H          -11.55595416781002       -1.85198232726677       -4.13682550934623
H          -12.91418620361308       -2.93211374761789       -3.80342827647024
H          -12.44283902517433       -3.17762849397799       -0.73437954129867
H          -12.79184031795105       -4.53232649420067       -1.80580837234578
H          -11.34363825012150       -4.55326172255939       -0.79403201516983
H          -11.44420004830272       -1.15501555366058       -0.81585784208148
H          -11.47787803375753        0.93379566486757        0.86288188749561
H          -10.22910321426338        4.91282524165767        2.87913240901056
H          -10.19724118723216        3.81993691067870        4.27542048623021
H          -11.66347182938662        4.70841196937884        3.87908551209885
H          -13.00140802959675        4.21319284490604        1.91920423558696
H          -12.62823205004521        2.86579548739952        0.84704877454128
H          -11.61259142761076        4.30534879065700        0.83098944724363
H          -12.92784480019128        2.61415201643623        3.92405202738770
H          -11.48117762606198        1.63953379962592        4.20606519904824
H          -12.53987517034409        1.27500725180615        2.84568892491637
H           -8.54958202936833        3.37787676710596        2.81423008986291
H           -6.74770341600332        2.15065180124645        1.75381812144603
H           -5.77129854111231        2.16550308242488       -0.47441323806056
H           -2.30967801235041        2.54409553026121       -1.20831740880964
H           -3.80412660615511        3.40646753380865       -0.80045420347968
H           -2.65866807321179        2.95055749346895        0.46523459059835
H           -2.47480091788650        0.30970892886084        2.47189992189480
H           -1.26441736008726        0.33549027342943        4.61242615981008
H            1.20643166971014        0.26726626398735        4.62966075279652
H            2.44414731890768        0.19967755111211        2.50584032087950
H            3.80519151465766        3.42181017709433        0.54630293710598
H            2.68984412415796        2.93217605770352       -0.73343615675972
H            2.29676103164175        2.57843175385377        0.94250694294435
H            5.77433478341230        2.16285764802569        0.30187240284775
H            6.59915946731108       -2.01778491237313        1.90868619368668
H            8.31072909481172       -3.32374929852086        3.02373688149876
H           12.40228990983561       -3.18538555585144        1.04080904081039
H           12.69242109716346       -4.50194964487478        2.17539985933779
H           11.29238695820316       -4.55236904758398        1.09870669113853
H           11.36647827864599       -1.72811577871386        4.34423829723140
H           12.45006237182526       -1.51047732630530        2.97208457063282
H           12.73431325514924       -2.82289788503188        4.11357472886703
H            9.87637738358534       -4.96169667188798        3.16862358623937
H           11.32525868023150       -4.81723701029094        4.15778952291600
H            9.92845289498528       -3.80807972951847        4.51442234655610
H           11.40335453107239       -1.16643223185642        0.98893574370301
H           11.51662849118821        0.85080667793448       -0.77202730052202
H           11.84730776737610        4.49421458804448       -3.93259117099878
H           10.37450355257564        4.74998361972612       -3.00285297737119
H           10.39336947789104        3.59388428179680       -4.34753949267590
H           11.67087300763849        1.41601914972072       -4.12594871535638
H           12.66947356076824        1.11432436267780       -2.70594181911444
H           13.10502674641868        2.40357133301178       -3.82594489685926
H           12.66922386353390        2.78909626478692       -0.77759242049320
H           13.09379369468658        4.08891198529458       -1.88896028188203
H           11.65742391376125        4.22854170586201       -0.86968351943560
H            8.68362809263545        3.23074595814818       -2.93238843507501
H            6.83324990839649        2.05469218677080       -1.89698519483769
H            5.63050415388086       -2.05155749428037       -0.33453614327196
H            2.30304106078634       -2.49052673036911        0.49663999722556
H            2.28781582827079       -2.25861255325641       -1.24483784741668
H            3.59236203291718       -3.19030067330458       -0.49359703143935
H            2.47720014271056        0.24999611656396       -2.64868967871662
H            1.26704235709776        0.22951912710615       -4.78990544478435
H           -1.20373146734706        0.16354207057935       -4.80599606268833
H           -2.44196591608950        0.14306299734161       -2.68139595080138

          :  Hamiltonian                  GFN2-xTB          :
         :: gradient norm              0.000066854652 Eh/a0 ::
         :: HOMO-LUMO gap              1.274049731316 eV    ::
         :: SCC energy              -194.225450138433 Eh    ::
         :: -> dispersion             -0.186769390158 Eh    ::
         :: -> Gsolv                  -0.074505312263 Eh    ::
         :: repulsion energy           3.364214682659 Eh    ::

    * Orbital Energies and Occupations

         #    Occupation            Energy/Eh            Energy/eV
      -------------------------------------------------------------
         1        2.0000           -0.6657931             -18.1172
       ...           ...                  ...                  ...
       168        2.0000           -0.3958226             -10.7709
       169        2.0000           -0.3942273             -10.7275
       170        2.0000           -0.3900061             -10.6126
       171        2.0000           -0.3896642             -10.6033
       172        2.0000           -0.3850696             -10.4783
       173        2.0000           -0.3849866             -10.4760
       174        2.0000           -0.3830825             -10.4242
       175        2.0000           -0.3820014             -10.3948
       176        2.0000           -0.3718778             -10.1193
       177        2.0000           -0.3688217             -10.0361
       178        2.0000           -0.3687984             -10.0355
       179        2.0000           -0.3479591              -9.4684
       180        2.0000           -0.3472672              -9.4496 (HOMO)
       181                         -0.3004467              -8.1756 (LUMO)
       182                         -0.2546926              -6.9305
       183                         -0.2361624              -6.4263
       184                         -0.2361114              -6.4249
       185                         -0.2192761              -5.9668
       186                         -0.2183788              -5.9424
       187                         -0.2182659              -5.9393
       188                         -0.2176726              -5.9232
       189                         -0.2129925              -5.7958
       190                         -0.2129599              -5.7949
       191                         -0.2105564              -5.7295
       ...                                ...                  ...
       360                          0.7523059              20.4713
      -------------------------------------------------------------
                  HL-Gap            0.0468205 Eh            1.2740 eV

     #   Z          covCN         q      C6AA      α(0)
     1   6 C        3.758    -0.112    22.702     6.793
     2   6 C        2.969     0.012    27.754     8.641
     3   6 C        2.924    -0.061    29.520     8.910
     4   6 C        2.909     0.056    26.754     8.481
     5   7 N        2.800    -0.055    22.299     7.013
     6   6 C        3.079     0.046    26.889     8.501
     7   6 C        2.909    -0.057    29.407     8.892
     8   6 C        2.928    -0.047    29.161     8.856
     9   6 C        2.971    -0.006    28.163     8.705
    10   6 C        3.902     0.024    20.110     6.374
    11   6 C        3.761    -0.106    22.566     6.772
    12   6 C        3.761    -0.103    22.522     6.765
    13   6 C        3.761    -0.103    22.523     6.765
    14   6 C        2.920    -0.042    29.051     8.839
    15   6 C        3.065    -0.023    28.521     8.757
    16   6 C        3.065    -0.023    28.522     8.757
    17   6 C        2.920    -0.042    29.051     8.839
    18   6 C        2.971    -0.006    28.163     8.705
    19   6 C        3.902     0.024    20.110     6.374
    20   6 C        3.761    -0.106    22.566     6.772
    21   6 C        3.761    -0.104    22.524     6.765
    22   6 C        3.761    -0.103    22.522     6.765
    23   6 C        2.928    -0.047    29.162     8.856
    24   6 C        2.909    -0.057    29.407     8.892
    25   6 C        3.080     0.046    26.889     8.501
    26   6 C        2.924    -0.061    29.525     8.911
    27   6 C        2.968     0.012    27.753     8.641
    28   6 C        3.758    -0.113    22.706     6.793
    29   6 C        2.894    -0.083    30.066     8.990
    30   5 B        2.713     0.239    17.846     7.083
    31   6 C        2.888    -0.060    29.483     8.902
    32   6 C        2.919    -0.026    28.656     8.778
    33   6 C        2.915    -0.026    28.654     8.778
    34   6 C        2.915    -0.026    28.652     8.778
    35   6 C        2.918    -0.026    28.661     8.779
    36   6 C        2.888    -0.060    29.495     8.904
    37   5 B        2.713     0.239    17.846     7.083
    38   6 C        2.894    -0.083    30.065     8.990
    39   6 C        2.968     0.012    27.753     8.641
    40   6 C        3.758    -0.113    22.704     6.793
    41   6 C        2.924    -0.061    29.523     8.911
    42   6 C        2.909     0.056    26.755     8.482
    43   7 N        2.800    -0.055    22.301     7.014
    44   6 C        3.080     0.046    26.889     8.501
    45   6 C        2.909    -0.057    29.407     8.892
    46   6 C        2.928    -0.047    29.162     8.856
    47   6 C        2.971    -0.006    28.164     8.705
    48   6 C        3.902     0.024    20.110     6.374
    49   6 C        3.761    -0.104    22.523     6.765
    50   6 C        3.761    -0.103    22.522     6.765
    51   6 C        3.761    -0.106    22.566     6.772
    52   6 C        2.920    -0.042    29.051     8.839
    53   6 C        3.065    -0.023    28.522     8.757
    54   6 C        3.065    -0.023    28.522     8.758
    55   6 C        2.920    -0.042    29.051     8.839
    56   6 C        2.971    -0.006    28.164     8.705
    57   6 C        3.902     0.024    20.110     6.374
    58   6 C        3.761    -0.106    22.566     6.772
    59   6 C        3.761    -0.103    22.522     6.765
    60   6 C        3.761    -0.103    22.523     6.765
    61   6 C        2.928    -0.047    29.161     8.856
    62   6 C        2.909    -0.057    29.407     8.892
    63   6 C        3.080     0.046    26.889     8.501
    64   6 C        2.924    -0.061    29.518     8.910
    65   6 C        2.969     0.012    27.755     8.642
    66   6 C        3.758    -0.112    22.701     6.793
    67   6 C        2.888    -0.060    29.479     8.901
    68   6 C        2.919    -0.026    28.654     8.778
    69   6 C        2.915    -0.026    28.653     8.778
    70   6 C        2.915    -0.026    28.651     8.777
    71   6 C        2.918    -0.026    28.660     8.779
    72   6 C        2.888    -0.060    29.490     8.903
    73   1 H        0.925     0.040     2.445     2.445
    74   1 H        0.925     0.047     2.356     2.401
    75   1 H        0.925     0.045     2.381     2.413
    76   1 H        0.926     0.029     2.605     2.524
    77   1 H        0.926     0.026     2.650     2.546
    78   1 H        0.926     0.034     2.535     2.490
    79   1 H        0.925     0.035     2.522     2.484
    80   1 H        0.925     0.036     2.508     2.477
    81   1 H        0.925     0.035     2.523     2.484
    82   1 H        0.925     0.034     2.524     2.484
    83   1 H        0.925     0.031     2.571     2.507
    84   1 H        0.925     0.036     2.498     2.472
    85   1 H        0.925     0.035     2.523     2.484
    86   1 H        0.925     0.036     2.500     2.473
    87   1 H        0.925     0.031     2.571     2.508
    88   1 H        0.926     0.025     2.664     2.553
    89   1 H        0.926     0.025     2.665     2.553
    90   1 H        0.925     0.035     2.522     2.483
    91   1 H        0.925     0.035     2.523     2.484
    92   1 H        0.925     0.036     2.508     2.477
    93   1 H        0.925     0.036     2.501     2.473
    94   1 H        0.925     0.035     2.522     2.483
    95   1 H        0.925     0.031     2.571     2.508
    96   1 H        0.925     0.036     2.498     2.471
    97   1 H        0.925     0.031     2.571     2.507
    98   1 H        0.925     0.034     2.525     2.485
    99   1 H        0.926     0.034     2.534     2.489
   100   1 H        0.926     0.026     2.648     2.545
   101   1 H        0.926     0.029     2.602     2.523
   102   1 H        0.925     0.047     2.352     2.399
   103   1 H        0.925     0.041     2.442     2.444
   104   1 H        0.924     0.045     2.379     2.412
   105   1 H        0.925     0.031     2.571     2.507
   106   1 H        0.925     0.028     2.622     2.532
   107   1 H        0.925     0.028     2.620     2.531
   108   1 H        0.925     0.032     2.563     2.504
   109   1 H        0.925     0.041     2.442     2.444
   110   1 H        0.925     0.046     2.376     2.411
   111   1 H        0.925     0.047     2.355     2.400
   112   1 H        0.926     0.029     2.604     2.523
   113   1 H        0.926     0.026     2.651     2.546
   114   1 H        0.926     0.034     2.535     2.490
   115   1 H        0.925     0.035     2.522     2.484
   116   1 H        0.925     0.036     2.500     2.473
   117   1 H        0.925     0.031     2.571     2.508
   118   1 H        0.925     0.031     2.571     2.507
   119   1 H        0.925     0.034     2.524     2.485
   120   1 H        0.925     0.036     2.498     2.472
   121   1 H        0.925     0.035     2.522     2.484
   122   1 H        0.925     0.036     2.508     2.477
   123   1 H        0.925     0.035     2.523     2.484
   124   1 H        0.926     0.025     2.665     2.553
   125   1 H        0.926     0.025     2.665     2.553
   126   1 H        0.925     0.036     2.509     2.477
   127   1 H        0.925     0.035     2.522     2.483
   128   1 H        0.925     0.035     2.523     2.484
   129   1 H        0.925     0.031     2.571     2.507
   130   1 H        0.925     0.034     2.524     2.485
   131   1 H        0.925     0.036     2.498     2.472
   132   1 H        0.925     0.035     2.522     2.484
   133   1 H        0.925     0.036     2.500     2.473
   134   1 H        0.925     0.031     2.572     2.508
   135   1 H        0.926     0.034     2.535     2.490
   136   1 H        0.926     0.026     2.650     2.546
   137   1 H        0.926     0.029     2.605     2.524
   138   1 H        0.925     0.045     2.381     2.413
   139   1 H        0.925     0.047     2.356     2.400
   140   1 H        0.925     0.040     2.444     2.445
   141   1 H        0.925     0.031     2.569     2.507
   142   1 H        0.925     0.028     2.621     2.532
   143   1 H        0.925     0.028     2.618     2.530
   144   1 H        0.925     0.032     2.560     2.502

molecular dipole:
                 x           y           z       tot (Debye)
 q only:       -0.006       0.089      -0.035
   full:       -0.006       0.086      -0.030       0.232

 projected vibrational frequencies (cm⁻¹)
eigval :       -0.00    -0.00    -0.00     0.00     0.00     0.00
eigval :       -3.89     6.04     6.64    14.49    16.81    17.52
eigval :       23.34    28.79    34.51    34.72    35.37    35.59
eigval :       37.06    40.52    43.00    46.08    46.81    53.64
eigval :       58.06    69.02    72.82    77.90    78.37    80.50
eigval :       85.56    89.40    93.59    96.24   105.78   108.17
eigval :      116.11   121.31   125.31   130.20   132.05   155.01
eigval :      155.75   161.65   174.64   176.37   177.70   178.66
eigval :      179.19   189.72   190.33   198.67   199.25   200.73
eigval :      209.02   220.66   220.90   221.06   221.90   226.71
eigval :      227.05   228.79   229.06   260.70   260.96   273.58
eigval :      274.39   274.72   287.58   291.99   295.88   299.15
eigval :      310.82   311.03   320.50   321.58   322.94   323.15
eigval :      328.56   330.29   332.05   335.81   342.66   345.40
eigval :      352.56   355.49   355.56   355.92   371.60   374.26
eigval :      379.20   380.90   382.38   397.13   401.55   402.02
eigval :      411.13   411.96   421.38   429.61   442.35   443.18
eigval :      443.97   444.83   446.95   449.06   460.77   461.41
eigval :      470.54   471.75   479.73   484.33   493.88   494.26
eigval :      500.21   500.88   518.20   519.01   535.08   541.40
eigval :      543.40   554.04   567.12   581.40   583.22   585.03
eigval :      586.43   586.70   589.08   597.15   598.61   602.80
eigval :      628.88   633.76   636.90   638.12   638.30   674.68
eigval :      677.36   685.84   686.63   687.84   687.93   697.46
eigval :      699.42   707.79   708.29   717.69   718.37   722.82
eigval :      757.39   771.99   802.24   806.06   816.42   816.72
eigval :      819.05   819.42   835.16   835.86   852.78   853.16
eigval :      872.23   872.44   874.23   879.27   883.26   883.91
eigval :      884.71   885.56   889.23   890.30   895.50   896.37
eigval :      897.09   908.48   909.06   912.24   912.82   919.95
eigval :      923.68   924.10   928.97   929.22   929.66   929.77
eigval :      937.12   938.62   958.08   958.28   958.44   958.85
eigval :      960.88   961.29   961.58   961.59   962.06   962.53
eigval :      963.06   963.07   982.79   983.16   997.02   997.43
eigval :     1026.71  1028.26  1033.04  1033.82  1033.93  1034.24
eigval :     1034.76  1034.86  1035.26  1035.37  1035.94  1036.19
eigval :     1037.38  1037.74  1043.93  1044.90  1046.66  1047.35
eigval :     1058.58  1095.69  1099.02  1100.10  1113.03  1119.58
eigval :     1127.93  1129.56  1130.39  1140.06  1159.56  1164.58
eigval :     1179.50  1180.34  1183.46  1184.36  1188.82  1193.20
eigval :     1213.91  1214.92  1218.41  1218.98  1222.31  1224.32
eigval :     1224.78  1224.92  1225.03  1225.23  1231.03  1231.15
eigval :     1233.33  1235.96  1236.60  1243.01  1244.87  1251.94
eigval :     1252.26  1253.99  1255.51  1256.98  1283.98  1284.19
eigval :     1284.43  1284.93  1295.31  1304.19  1304.31  1306.81
eigval :     1306.92  1307.54  1307.63  1309.45  1347.26  1347.30
eigval :     1365.09  1365.21  1385.24  1385.90  1399.45  1399.66
eigval :     1400.48  1401.40  1401.81  1402.30  1402.84  1402.92
eigval :     1403.15  1403.46  1403.70  1404.66  1406.63  1410.96
eigval :     1411.53  1411.79  1426.51  1426.67  1426.79  1427.65
eigval :     1429.29  1430.01  1433.88  1437.01  1437.76  1450.16
eigval :     1464.08  1464.93  1471.71  1472.80  1473.68  1473.83
eigval :     1474.48  1474.78  1475.12  1475.13  1484.77  1487.55
eigval :     1488.04  1489.27  1489.88  1490.05  1490.31  1490.61
eigval :     1492.56  1492.63  1493.14  1493.42  1500.54  1500.65
eigval :     1501.40  1501.59  1503.07  1503.57  1504.06  1504.28
eigval :     1512.22  1512.67  1513.48  1513.85  1518.21  1518.71
eigval :     1518.88  1519.60  1545.56  1551.02  1551.31  1552.53
eigval :     1564.81  1569.93  1569.95  1571.06  1583.85  1583.92
eigval :     1590.20  1590.30  1603.48  1603.50  1619.75  1619.85
eigval :     2997.11  2997.45  3002.44  3002.87  3016.20  3016.55
eigval :     3017.05  3017.36  3017.71  3017.81  3017.95  3018.50
eigval :     3020.10  3020.96  3021.19  3021.33  3021.64  3022.00
eigval :     3022.49  3022.59  3022.87  3023.19  3024.82  3024.85
eigval :     3025.12  3025.77  3027.75  3027.92  3029.15  3029.34
eigval :     3029.37  3029.71  3031.94  3032.06  3034.25  3034.26
eigval :     3034.36  3034.49  3034.54  3034.61  3042.15  3042.96
eigval :     3043.10  3043.56  3046.13  3046.49  3046.61  3047.07
eigval :     3055.50  3055.51  3059.16  3059.36  3065.55  3065.72
eigval :     3073.41  3073.51  3074.65  3075.19  3075.43  3076.39
eigval :     3078.26  3078.36  3079.45  3079.66  3079.71  3080.44
eigval :     3082.92  3083.05  3112.26  3112.62  3113.74  3115.11

   temp. (K)  partition function   enthalpy   heat capacity  entropy
                                   cal/mol     cal/K/mol   cal/K/mol   J/K/mol
 298.15  VIB  0.211E+36            43069.522    256.784    273.093
         ROT  0.448E+09              888.752      2.981     42.567
         INT  0.947E+44            43958.274    259.765    315.660
         TR   0.278E+29             1481.254      4.968     46.373
         TOT                       45439.5282   264.7329   362.0323  1514.7430

       T/K    H(0)-H(T)+PV         H(T)/Eh          T*S/Eh         G(T)/Eh
   ------------------------------------------------------------------------
    298.15    0.724125E-01    0.126810E+01    0.172013E+00    0.109608E+01
   ------------------------------------------------------------------------

         :::::::::::::::::::::::::::::::::::::::::::::::::::::
         ::                  THERMODYNAMIC                  ::
         :::::::::::::::::::::::::::::::::::::::::::::::::::::
         :: total free energy        -189.765152578324 Eh   ::
         ::.................................................::
         :: total energy             -190.861235458335 Eh   ::
         :: zero point energy           1.195683589504 Eh   ::
         :: G(RRHO) w/o ZPVE           -0.099600709493 Eh   ::
         :: G(RRHO) contrib.            1.096082880012 Eh   ::
         :::::::::::::::::::::::::::::::::::::::::::::::::::::

           -------------------------------------------------
          | TOTAL ENERGY             -190.861235458335 Eh   |
          | TOTAL ENTHALPY           -189.593139371429 Eh   |
          | TOTAL FREE ENERGY        -189.765152578324 Eh   |
          | GRADIENT NORM               0.000066854878 Eh/α |
          | HOMO-LUMO GAP               1.274049895373 eV   |
           -------------------------------------------------

 * finished run on 2025/08/23 at 07:54:25.291
