   * xtb version 6.7.1 (edcfbbe) compiled by 'albert@albert-system' on 2024-07-22

   ID    Z sym.   atoms
    1    6 C      1-4, 6-29, 31-36, 38-42, 44-72
    2    7 N      5, 43
    3    5 B      30, 37
    4    1 H      73-144

          program call               : xtb data2507/toluene/tBuCzDBA/tBuCzDBA_toluene_S0_crest.xyz --gfn 2 --gbsa toluene --ohess vtight --parallel 40 --molden --ceasefiles --namespace data2507/toluene/tBuCzDBA/tBuCzDBA_toluene_S0_finalOpt
      * Solvation model:               GBSA
        Solvent                        toluene
        Solvent mass                       9.2140E+01 g/mol
          :  Hamiltonian                  GFN2-xTB          :
 * total energy  :  -190.8625574 Eh     change       -0.2591065E-08 Eh
 * total energy  :  -190.8626215 Eh     change       -0.6405589E-04 Eh
 * total energy  :  -190.8626509 Eh     change       -0.2942453E-04 Eh
 * total energy  :  -190.8626645 Eh     change       -0.1356972E-04 Eh
 * total energy  :  -190.8626754 Eh     change       -0.1088911E-04 Eh
 * total energy  :  -190.8626833 Eh     change       -0.7911272E-05 Eh
 * total energy  :  -190.8626878 Eh     change       -0.4492314E-05 Eh
 * total energy  :  -190.8626919 Eh     change       -0.4109483E-05 Eh
 * total energy  :  -190.8626956 Eh     change       -0.3715217E-05 Eh
 * total energy  :  -190.8626995 Eh     change       -0.3914522E-05 Eh
 * total energy  :  -190.8627774 Eh     change       -0.8386499E-06 Eh
 * total energy  :  -190.8627783 Eh     change       -0.9796789E-06 Eh
 * total energy  :  -190.8627792 Eh     change       -0.8634206E-06 Eh
 * total energy  :  -190.8627801 Eh     change       -0.8582427E-06 Eh
 * total energy  :  -190.8627811 Eh     change       -0.1069231E-05 Eh
 * total energy  :  -190.8627825 Eh     change       -0.1329919E-05 Eh
 * total energy  :  -190.8627838 Eh     change       -0.1299941E-05 Eh
 * total energy  :  -190.8627848 Eh     change       -0.1054509E-05 Eh
 * total energy  :  -190.8627848 Eh     change       -0.8553997E-08 Eh
   *** GEOMETRY OPTIMIZATION CONVERGED AFTER 68 ITERATIONS ***

 final structure:
================
144
 xtb: 6.7.1 (edcfbbe)
C           -2.94936672618047       -1.44129760252179        1.90029786309128
C           -3.73725055883334       -0.70962466425059        0.85291303286676
C           -5.12198986841234       -0.69846301383335        0.89952286065113
C           -5.85330061785431       -0.02501886949320       -0.07088074131869
N           -7.25826583095684       -0.01320252172531       -0.01756621120088
C           -8.07456952309220       -1.11777976742650        0.10136490466479
C           -7.75491691308836       -2.46684579868292        0.14195998086528
C           -8.78811104657397       -3.37537347765709        0.24424401204613
C          -10.13652141375397       -2.99419816901894        0.30174123874031
C          -11.20156160982469       -4.07646162940705        0.42229113156567
C          -12.62056453453651       -3.50250209450045        0.48532271380606
C          -10.95942193691637       -4.88434201835619        1.70624581821091
C          -11.11858521341088       -5.00494597046243       -0.79866095143387
C          -10.44458230348697       -1.64535105397378        0.23658910847142
C           -9.42492550386958       -0.70695463541903        0.13294740557111
C           -9.41462275764785        0.72603433181302        0.03177700793665
C          -10.41948631591258        1.68582102831432        0.02687158138894
C          -10.09058635099459        3.02841613970138       -0.06135849544513
C          -11.13860098563828        4.13366142924658       -0.06985770549695
C          -11.00416839551938        4.95108213715185       -1.36349248508979
C          -12.56931990662300        3.59025050208262       -0.00059171053377
C          -10.91698482830293        5.04583845979999        1.14620796542694
C           -8.73511118602168        3.38108869698272       -0.13202940353316
C           -7.71627144277080        2.45092954282064       -0.12991380365743
C           -8.05879122060325        1.10861506590191       -0.06119643882483
C           -5.18641066048500        0.64091216508360       -1.09144829065008
C           -3.80137306383284        0.64860731370874       -1.13662991638143
C           -3.08285081196555        1.38301980383932       -2.23096762819781
C           -3.05750487948392       -0.02886323078801       -0.16375360438794
B           -1.48849176566360       -0.01412242248991       -0.20043250958576
C           -0.70728860501924        1.11695192775351        0.53296342807353
C           -1.37986547874222        2.13998191584917        1.20472453459548
C           -0.69486216631310        3.15033190696594        1.85883086267015
C            0.69064489937963        3.15261539381009        1.85699483051495
C            1.37735091556692        2.14459569813257        1.20104523680474
C            0.70650225137978        1.11950412018109        0.53071756880802
B            1.48921402156085       -0.00828086811165       -0.20610991733894
C            3.05830380254447       -0.02140171123612       -0.17093774795522
C            3.80143802145712        0.68033669809208       -1.12704252922580
C            3.08221332005808        1.43923004013995       -2.20410748943793
C            5.18652688048474        0.67325903161916       -1.08187888267171
C            5.85397498699910       -0.01792755337480       -0.07871569126447
N            7.25905245120886       -0.00589030306774       -0.02448452888338
C            8.05763589451535        1.11799028582942       -0.02793886289812
C            7.71253205029748        2.46106719050648       -0.05529046203814
C            8.72943770305730        3.39270844719935       -0.02190552237162
C           10.08523316026502        3.04040762376310        0.04500497791922
C           11.13098792040629        4.14744104428586        0.07435303158614
C           11.00959458974211        4.99072912010108       -1.20386806423042
C           10.89383310036639        5.03415806996777        1.30616261969353
C           12.56181870314365        3.60521094598398        0.14972787499378
C           10.41665466851198        1.69631095074383        0.09019308685535
C            9.41381642530987        0.73488893053948        0.05765850106796
C            9.42642323819355       -0.70073868082081        0.10936735844220
C           10.44733986062351       -1.64076334805436        0.18131840694879
C           10.14124606992040       -2.99155540273828        0.19542621578110
C           11.20807695417729       -4.07604965828782        0.27156945643371
C           10.96309626334122       -4.94303669123621        1.51575134433808
C           12.62555653370843       -3.50281083211354        0.36707464863033
C           11.13121942579604       -4.94694070633293       -0.99158010828409
C            8.79347968328287       -3.37251004947859        0.12256971753139
C            7.75901141243556       -2.46247691252097        0.05212521047397
C            8.07685732670834       -1.11241889549139        0.05957434665684
C            5.12352467774979       -0.71683860526453        0.87410110793562
C            3.73878334763081       -0.72694820040401        0.82825188856395
C            2.95180414730010       -1.48322848504445        1.85868738038706
C            0.70809192208006       -1.12239704609326       -0.96469777804029
C            1.38054314162445       -2.13439120638603       -1.65300725524871
C            0.69523200452413       -3.13382558084371       -2.32355260305945
C           -0.69025863148459       -3.13832296791161       -2.31838073229197
C           -1.37701085009252       -2.14293816836190       -1.64328895725262
C           -0.70600680472461       -1.12637488738751       -0.96031410159914
H           -3.60710972345863       -1.92249299018165        2.62068944211560
H           -2.29387463149797       -0.75092274375549        2.42979674930861
H           -2.31997549999253       -2.20006329679840        1.43674719880217
H           -5.64368229275114       -1.20413130835961        1.69974306790001
H           -6.72951513606621       -2.80165468932133        0.08743303591405
H           -8.53345479652503       -4.42415441861467        0.27768127555591
H          -12.85992750684052       -2.94969309621183       -0.42044032544334
H          -13.33694780374335       -4.31642283462485        0.58085018955764
H          -12.73961963999447       -2.84727196611202        1.34547922029168
H           -9.98689116280672       -5.36874977037717        1.69334648477301
H          -11.00283304200231       -4.23084936534488        2.57575998837131
H          -11.72121882242200       -5.65403783832528        1.81442880638426
H          -10.15095822894802       -5.49561324114007       -0.85929929700813
H          -11.88715035956944       -5.77313715161350       -0.73891683915922
H          -11.26926925072259       -4.43547109966708       -1.71398645820971
H          -11.46402492374148       -1.29725770047474        0.26090473791700
H          -11.44381804887588        1.35908918128627        0.09769415236991
H          -11.14018132904601        4.30757506391516       -2.23084620079010
H          -10.02664034146991        5.41966659931775       -1.43780691363565
H          -11.75951909273986        5.73405315139989       -1.39267777981732
H          -13.27335244461650        4.42017660845830       -0.01908938852393
H          -12.73256825307201        3.03261433245146        0.91902173075466
H          -12.78523250799616        2.94726051910816       -0.85108516363191
H          -11.67229556970224        5.82898238610936        1.17095605763278
H           -9.93864494497102        5.51769673918639        1.11490613218645
H          -10.98678065736101        4.46842785691220        2.06634036631602
H           -8.46270608231907        4.42453512436157       -0.18653616603870
H           -6.68359034082091        2.76450631064574       -0.17133900942442
H           -5.75892029389560        1.14800077476182       -1.85522076646508
H           -3.78524999074768        1.80780365552988       -2.94465012668179
H           -2.48124405610446        2.18827680063818       -1.81031274324755
H           -2.40725015415767        0.71086681052653       -2.75800159683063
H           -2.46153631916940        2.14015678752769        1.21237600027498
H           -1.23846973430299        3.93301410191885        2.36983512078141
H            1.23291057234394        3.93711160163792        2.36665017273320
H            2.45902189100367        2.14855464743388        1.20585790395140
H            3.78399799433377        1.87527687541495       -2.91159085971088
H            2.40214583152153        0.78025347140765       -2.74192893977966
H            2.48532515514822        2.23855793341771       -1.76576387133068
H            5.75872663664552        1.20059004941066       -1.83209165532066
H            6.67937340424873        2.77361562186901       -0.09249013335822
H            8.45529593368145        4.43686223317176       -0.04531230847194
H           11.15770819909882        4.36496789418402       -2.08212843997857
H           10.03124585098565        5.45737882521651       -1.28012744909684
H           11.76271933627056        5.77636207699583       -1.20833003524142
H           10.95273402587985        4.43793890818029        2.21496715481893
H            9.91598224120169        5.50677696541236        1.27291228178722
H           11.64844538870840        5.81676450866699        1.35628231399495
H           12.71238708504762        3.02257524522912        1.05592087045426
H           12.79217363805113        2.98653394323407       -0.71486051019261
H           13.26406933233884        4.43672009064965        0.16460783963023
H           11.44134012264968        1.36937917495617        0.15496182018137
H           11.46622848306397       -1.29230483211463        0.22034275841607
H            9.99438513416791       -5.43336829450163        1.47426343739630
H           10.99576976178956       -4.32907754762892        2.41399572115516
H           11.72980947620981       -5.71143059111530        1.59431545987262
H           12.73860903288365       -2.88578807359337        1.25582384875557
H           12.86886672409310       -2.91031560291370       -0.51212513796005
H           13.34293981196363       -4.31895453712614        0.43052398834158
H           11.28183892047872       -4.33503955042542       -1.87911177700019
H           11.90215537873651       -5.71467514293051       -0.96590135054196
H           10.16517553716510       -5.43712544796556       -1.07704955340339
H            8.54057103491138       -4.42223340374744        0.11680971621259
H            6.73403255942075       -2.79636010310758       -0.01499795363519
H            5.64596179190196       -1.24325492444134        1.66035865164945
H            2.29461249824925       -0.80599531156418        2.40287247107765
H            2.32423964619080       -2.23290147312781        1.37819620648067
H            3.61017651396228       -1.97881287646045        2.56866236423313
H            2.46222623900857       -2.13467774885297       -1.66017086952150
H            1.23867718916796       -3.90735182959513       -2.84845357363157
H           -1.23255347765196       -3.91542099847962       -2.83918426581289
H           -2.45869290455664       -2.14989760437335       -1.64282106718442

          :  Hamiltonian                  GFN2-xTB          :
         :: gradient norm              0.000063226858 Eh/a0 ::
         :: HOMO-LUMO gap              1.279198608148 eV    ::
         :: SCC energy              -194.228252065095 Eh    ::
         :: -> dispersion             -0.186689209587 Eh    ::
         :: -> Gsolv                  -0.074459328101 Eh    ::
         :: repulsion energy           3.365467244234 Eh    ::

    * Orbital Energies and Occupations

         #    Occupation            Energy/Eh            Energy/eV
      -------------------------------------------------------------
         1        2.0000           -0.6655426             -18.1103
       ...           ...                  ...                  ...
       168        2.0000           -0.3962210             -10.7817
       169        2.0000           -0.3948315             -10.7439
       170        2.0000           -0.3910706             -10.6416
       171        2.0000           -0.3907985             -10.6342
       172        2.0000           -0.3857682             -10.4973
       173        2.0000           -0.3856526             -10.4941
       174        2.0000           -0.3831197             -10.4252
       175        2.0000           -0.3823673             -10.4047
       176        2.0000           -0.3720869             -10.1250
       177        2.0000           -0.3670911              -9.9891
       178        2.0000           -0.3670735              -9.9886
       179        2.0000           -0.3486437              -9.4871
       180        2.0000           -0.3480121              -9.4699 (HOMO)
       181                         -0.3010023              -8.1907 (LUMO)
       182                         -0.2549936              -6.9387
       183                         -0.2356719              -6.4130
       184                         -0.2356251              -6.4117
       185                         -0.2197402              -5.9794
       186                         -0.2187968              -5.9538
       187                         -0.2182120              -5.9379
       188                         -0.2175422              -5.9196
       189                         -0.2115874              -5.7576
       190                         -0.2115598              -5.7568
       191                         -0.2108797              -5.7383
       ...                                ...                  ...
       360                          0.7480820              20.3563
      -------------------------------------------------------------
                  HL-Gap            0.0470097 Eh            1.2792 eV

     #   Z          covCN         q      C6AA      α(0)
     1   6 C        3.758    -0.112    22.699     6.792
     2   6 C        2.969     0.012    27.755     8.642
     3   6 C        2.924    -0.060    29.501     8.907
     4   6 C        2.910     0.055    26.755     8.482
     5   7 N        2.802    -0.055    22.301     7.014
     6   6 C        3.084     0.045    26.893     8.501
     7   6 C        2.908    -0.056    29.389     8.889
     8   6 C        2.931    -0.042    29.055     8.840
     9   6 C        2.972    -0.006    28.167     8.705
    10   6 C        3.902     0.024    20.111     6.375
    11   6 C        3.761    -0.105    22.558     6.771
    12   6 C        3.761    -0.104    22.530     6.766
    13   6 C        3.761    -0.104    22.529     6.766
    14   6 C        2.917    -0.047    29.165     8.856
    15   6 C        3.067    -0.024    28.542     8.760
    16   6 C        3.067    -0.024    28.541     8.760
    17   6 C        2.917    -0.047    29.165     8.856
    18   6 C        2.972    -0.006    28.167     8.705
    19   6 C        3.902     0.024    20.111     6.375
    20   6 C        3.761    -0.104    22.530     6.766
    21   6 C        3.761    -0.105    22.558     6.771
    22   6 C        3.761    -0.104    22.528     6.766
    23   6 C        2.931    -0.042    29.055     8.840
    24   6 C        2.908    -0.056    29.389     8.889
    25   6 C        3.084     0.045    26.893     8.501
    26   6 C        2.924    -0.060    29.503     8.907
    27   6 C        2.968     0.012    27.755     8.641
    28   6 C        3.758    -0.112    22.700     6.793
    29   6 C        2.895    -0.082    30.058     8.989
    30   5 B        2.714     0.240    17.840     7.081
    31   6 C        2.888    -0.060    29.479     8.901
    32   6 C        2.919    -0.026    28.651     8.778
    33   6 C        2.915    -0.026    28.649     8.777
    34   6 C        2.915    -0.026    28.649     8.777
    35   6 C        2.919    -0.026    28.651     8.778
    36   6 C        2.888    -0.060    29.478     8.901
    37   5 B        2.714     0.240    17.840     7.081
    38   6 C        2.895    -0.082    30.056     8.989
    39   6 C        2.968     0.012    27.754     8.641
    40   6 C        3.758    -0.112    22.700     6.793
    41   6 C        2.924    -0.060    29.501     8.907
    42   6 C        2.910     0.056    26.755     8.482
    43   7 N        2.802    -0.055    22.304     7.014
    44   6 C        3.084     0.045    26.892     8.501
    45   6 C        2.908    -0.056    29.390     8.889
    46   6 C        2.931    -0.042    29.054     8.840
    47   6 C        2.972    -0.006    28.167     8.706
    48   6 C        3.902     0.024    20.111     6.375
    49   6 C        3.761    -0.104    22.529     6.766
    50   6 C        3.761    -0.104    22.529     6.766
    51   6 C        3.761    -0.105    22.558     6.771
    52   6 C        2.917    -0.047    29.165     8.856
    53   6 C        3.067    -0.024    28.541     8.760
    54   6 C        3.067    -0.024    28.542     8.760
    55   6 C        2.917    -0.047    29.165     8.856
    56   6 C        2.972    -0.006    28.167     8.706
    57   6 C        3.902     0.024    20.111     6.375
    58   6 C        3.761    -0.104    22.530     6.766
    59   6 C        3.761    -0.105    22.558     6.771
    60   6 C        3.761    -0.104    22.528     6.766
    61   6 C        2.931    -0.042    29.055     8.840
    62   6 C        2.908    -0.056    29.388     8.889
    63   6 C        3.084     0.045    26.892     8.501
    64   6 C        2.924    -0.060    29.499     8.907
    65   6 C        2.969     0.012    27.754     8.641
    66   6 C        3.758    -0.112    22.700     6.793
    67   6 C        2.888    -0.060    29.482     8.902
    68   6 C        2.918    -0.026    28.653     8.778
    69   6 C        2.915    -0.026    28.648     8.777
    70   6 C        2.915    -0.026    28.648     8.777
    71   6 C        2.918    -0.026    28.652     8.778
    72   6 C        2.888    -0.060    29.482     8.902
    73   1 H        0.925     0.041     2.441     2.443
    74   1 H        0.925     0.046     2.370     2.408
    75   1 H        0.925     0.047     2.364     2.404
    76   1 H        0.926     0.028     2.609     2.526
    77   1 H        0.926     0.024     2.667     2.554
    78   1 H        0.926     0.026     2.645     2.543
    79   1 H        0.925     0.034     2.526     2.486
    80   1 H        0.925     0.035     2.513     2.479
    81   1 H        0.925     0.034     2.526     2.485
    82   1 H        0.925     0.035     2.516     2.481
    83   1 H        0.925     0.031     2.571     2.507
    84   1 H        0.925     0.036     2.500     2.472
    85   1 H        0.925     0.035     2.518     2.481
    86   1 H        0.925     0.036     2.497     2.471
    87   1 H        0.925     0.031     2.571     2.508
    88   1 H        0.926     0.033     2.548     2.496
    89   1 H        0.926     0.033     2.548     2.496
    90   1 H        0.925     0.031     2.570     2.507
    91   1 H        0.925     0.035     2.516     2.481
    92   1 H        0.925     0.036     2.499     2.472
    93   1 H        0.925     0.035     2.513     2.479
    94   1 H        0.925     0.034     2.526     2.485
    95   1 H        0.925     0.034     2.526     2.485
    96   1 H        0.925     0.036     2.497     2.471
    97   1 H        0.925     0.035     2.518     2.481
    98   1 H        0.925     0.031     2.572     2.508
    99   1 H        0.926     0.026     2.645     2.543
   100   1 H        0.926     0.025     2.666     2.553
   101   1 H        0.926     0.029     2.607     2.525
   102   1 H        0.925     0.041     2.441     2.443
   103   1 H        0.925     0.047     2.363     2.404
   104   1 H        0.925     0.046     2.368     2.406
   105   1 H        0.925     0.031     2.571     2.508
   106   1 H        0.925     0.028     2.618     2.530
   107   1 H        0.925     0.028     2.618     2.530
   108   1 H        0.925     0.031     2.571     2.508
   109   1 H        0.925     0.041     2.441     2.443
   110   1 H        0.925     0.046     2.370     2.408
   111   1 H        0.925     0.047     2.360     2.402
   112   1 H        0.926     0.029     2.607     2.525
   113   1 H        0.926     0.024     2.667     2.554
   114   1 H        0.926     0.026     2.645     2.543
   115   1 H        0.925     0.031     2.571     2.507
   116   1 H        0.925     0.035     2.517     2.481
   117   1 H        0.925     0.036     2.499     2.472
   118   1 H        0.925     0.031     2.571     2.508
   119   1 H        0.925     0.035     2.517     2.481
   120   1 H        0.925     0.036     2.498     2.471
   121   1 H        0.925     0.034     2.526     2.485
   122   1 H        0.925     0.034     2.526     2.485
   123   1 H        0.925     0.035     2.513     2.479
   124   1 H        0.926     0.033     2.548     2.496
   125   1 H        0.926     0.033     2.548     2.496
   126   1 H        0.925     0.035     2.516     2.481
   127   1 H        0.925     0.031     2.570     2.507
   128   1 H        0.925     0.036     2.500     2.472
   129   1 H        0.925     0.034     2.526     2.485
   130   1 H        0.925     0.034     2.526     2.485
   131   1 H        0.925     0.035     2.513     2.479
   132   1 H        0.925     0.031     2.572     2.508
   133   1 H        0.925     0.036     2.497     2.471
   134   1 H        0.925     0.035     2.518     2.482
   135   1 H        0.926     0.026     2.645     2.543
   136   1 H        0.926     0.024     2.669     2.555
   137   1 H        0.926     0.028     2.609     2.526
   138   1 H        0.925     0.046     2.372     2.409
   139   1 H        0.925     0.047     2.361     2.403
   140   1 H        0.925     0.041     2.440     2.443
   141   1 H        0.925     0.031     2.566     2.505
   142   1 H        0.925     0.028     2.615     2.529
   143   1 H        0.925     0.028     2.615     2.529
   144   1 H        0.925     0.031     2.566     2.505

molecular dipole:
                 x           y           z       tot (Debye)
 q only:       -0.003      -0.001      -0.082
   full:       -0.003       0.004      -0.074       0.188

 projected vibrational frequencies (cm⁻¹)
eigval :       -0.00    -0.00    -0.00    -0.00     0.00     0.00
eigval :        0.71     5.04     5.66    12.73    13.12    16.04
eigval :       23.17    29.98    33.77    34.53    34.93    36.13
eigval :       36.49    37.77    39.43    44.94    51.12    52.66
eigval :       53.53    60.14    64.06    65.84    68.29    69.22
eigval :       75.06    85.87    88.39    88.58    96.54   104.21
eigval :      110.74   114.74   117.68   120.29   133.00   158.87
eigval :      159.88   163.01   173.15   174.14   175.58   178.18
eigval :      178.48   201.85   202.20   202.76   203.42   204.72
eigval :      211.16   220.04   220.37   221.41   223.51   224.75
eigval :      225.60   226.77   228.76   231.60   233.47   258.71
eigval :      260.36   267.93   278.83   280.81   298.50   302.60
eigval :      309.24   315.71   316.04   319.74   320.39   321.44
eigval :      323.24   332.59   340.49   340.86   341.81   344.49
eigval :      353.13   355.86   359.37   359.49   370.42   374.46
eigval :      379.72   380.69   383.13   394.77   398.94   399.26
eigval :      410.81   411.86   419.30   430.88   440.25   440.70
eigval :      442.49   443.10   445.86   448.51   463.46   465.12
eigval :      465.46   466.07   480.79   481.99   495.12   495.54
eigval :      499.12   499.64   518.13   518.49   534.99   540.95
eigval :      543.75   553.92   567.10   582.25   583.45   585.46
eigval :      585.60   586.03   590.07   595.54   599.35   603.50
eigval :      628.72   635.98   638.75   638.89   640.55   674.78
eigval :      678.45   686.72   687.38   687.71   688.46   698.95
eigval :      700.84   707.16   710.19   717.89   718.22   722.28
eigval :      754.76   769.36   803.01   806.67   819.06   819.79
eigval :      822.38   822.80   833.90   834.76   850.05   851.79
eigval :      869.96   870.04   872.46   872.50   874.79   875.20
eigval :      884.95   885.09   888.64   890.56   894.16   895.57
eigval :      897.15   913.14   914.81   915.98   916.65   920.42
eigval :      923.84   923.92   927.73   928.76   931.42   931.49
eigval :      934.65   935.66   958.64   958.70   959.26   959.56
eigval :      961.56   961.70   961.85   962.24   962.58   962.85
eigval :      963.05   963.14   982.73   982.80   997.69   997.92
eigval :     1027.27  1027.90  1031.23  1031.41  1032.54  1032.94
eigval :     1034.74  1034.84  1034.85  1035.29  1035.37  1035.78
eigval :     1041.61  1041.71  1045.28  1046.02  1046.24  1046.28
eigval :     1058.38  1095.16  1098.51  1099.29  1112.36  1118.85
eigval :     1127.42  1127.78  1127.93  1138.36  1157.46  1163.57
eigval :     1174.92  1175.53  1182.41  1183.23  1185.94  1190.39
eigval :     1214.13  1215.22  1217.21  1217.46  1225.06  1225.22
eigval :     1225.49  1225.84  1226.91  1228.40  1230.29  1230.44
eigval :     1231.47  1236.56  1238.44  1238.57  1240.07  1251.14
eigval :     1252.52  1254.78  1255.17  1256.03  1283.27  1283.56
eigval :     1283.59  1283.94  1295.53  1304.55  1304.69  1309.60
eigval :     1312.32  1312.61  1312.65  1312.74  1346.59  1346.69
eigval :     1359.67  1359.68  1387.41  1387.81  1400.29  1400.63
eigval :     1402.08  1402.32  1402.37  1402.80  1403.13  1403.20
eigval :     1403.24  1403.31  1403.56  1404.74  1406.19  1410.48
eigval :     1412.25  1412.29  1426.90  1426.91  1427.26  1427.36
eigval :     1429.59  1430.12  1433.62  1438.73  1439.18  1449.91
eigval :     1464.82  1465.18  1473.04  1473.34  1473.56  1474.33
eigval :     1481.68  1481.86  1484.59  1485.19  1485.23  1486.17
eigval :     1486.71  1488.82  1488.83  1489.55  1489.64  1489.80
eigval :     1492.94  1493.17  1493.52  1493.63  1499.99  1500.14
eigval :     1500.41  1500.42  1502.29  1502.84  1503.03  1503.15
eigval :     1511.08  1511.55  1511.81  1511.99  1518.66  1518.78
eigval :     1519.53  1519.66  1545.46  1551.81  1552.05  1552.44
eigval :     1564.52  1567.97  1567.99  1570.86  1580.82  1580.87
eigval :     1590.53  1590.64  1603.18  1603.20  1617.50  1617.58
eigval :     3001.60  3001.72  3002.16  3002.55  3016.21  3016.36
eigval :     3016.76  3016.82  3016.85  3017.14  3017.20  3017.37
eigval :     3017.48  3017.79  3018.72  3019.04  3021.40  3021.47
eigval :     3021.76  3021.91  3022.36  3022.64  3022.85  3023.02
eigval :     3025.12  3025.19  3025.62  3025.64  3028.79  3029.09
eigval :     3029.29  3029.32  3033.36  3033.40  3033.94  3034.25
eigval :     3034.29  3034.36  3034.49  3034.56  3043.52  3043.59
eigval :     3043.64  3044.16  3046.97  3046.99  3047.13  3047.67
eigval :     3055.47  3055.66  3058.17  3058.58  3064.84  3065.12
eigval :     3070.81  3071.39  3072.64  3072.81  3073.32  3073.37
eigval :     3073.91  3074.21  3074.58  3076.22  3085.50  3085.60
eigval :     3086.55  3086.75  3109.84  3110.10  3113.03  3113.04

   temp. (K)  partition function   enthalpy   heat capacity  entropy
                                   cal/mol     cal/K/mol   cal/K/mol   J/K/mol
 298.15  VIB  0.353E+35            42715.133    255.227    270.210
         ROT  0.449E+09              888.752      2.981     42.571
         INT  0.158E+44            43603.885    258.208    312.781
         TR   0.278E+29             1481.254      4.968     46.373
         TOT                       45085.1389   263.1765   359.1537  1502.6990

       T/K    H(0)-H(T)+PV         H(T)/Eh          T*S/Eh         G(T)/Eh
   ------------------------------------------------------------------------
    298.15    0.718477E-01    0.126694E+01    0.170645E+00    0.109629E+01
   ------------------------------------------------------------------------

         :::::::::::::::::::::::::::::::::::::::::::::::::::::
         ::                  THERMODYNAMIC                  ::
         :::::::::::::::::::::::::::::::::::::::::::::::::::::
         :: total free energy        -189.766494404171 Eh   ::
         ::.................................................::
         :: total energy             -190.862784820252 Eh   ::
         :: zero point energy           1.195088172136 Eh   ::
         :: G(RRHO) w/o ZPVE           -0.098797756055 Eh   ::
         :: G(RRHO) contrib.            1.096290416081 Eh   ::
         :::::::::::::::::::::::::::::::::::::::::::::::::::::

           -------------------------------------------------
          | TOTAL ENERGY             -190.862784820252 Eh   |
          | TOTAL ENTHALPY           -189.595848905964 Eh   |
          | TOTAL FREE ENERGY        -189.766494404171 Eh   |
          | GRADIENT NORM               0.000063231135 Eh/α |
          | HOMO-LUMO GAP               1.279200139149 eV   |
           -------------------------------------------------

 * finished run on 2025/08/23 at 08:31:34.355
