   * xtb version 6.7.1 (edcfbbe) compiled by 'albert@albert-system' on 2024-07-22

   ID    Z sym.   atoms
    1    6 C      1, 2, 4-7, 9-11, 13-25, 27-40, 42-46, 48
    2    7 N      3, 8, 12, 26, 41, 47
    3    1 H      49-72

          program call               : xtb data2507/gas/DCz-DPPZ/DCz-DPPZ_gas_S0_finalOpt.xtbopt.xyz --gfn 2 --spinpol --tblite --uhf 2 --ohess vtight --parallel 40 --molden --ceasefiles --namespace data2507/gas/DCz-DPPZ/DCz-DPPZ_gas_T1_preOpt
 * total energy  :  -119.7768102 Eh     change       -0.4275779E-07 Eh
 * total energy  :  -119.7799094 Eh     change       -0.3099184E-02 Eh
 * total energy  :  -119.7810502 Eh     change       -0.1140786E-02 Eh
 * total energy  :  -119.7811820 Eh     change       -0.1317635E-03 Eh
 * total energy  :  -119.7812385 Eh     change       -0.5652033E-04 Eh
 * total energy  :  -119.7812433 Eh     change       -0.4785129E-05 Eh
 * total energy  :  -119.7812455 Eh     change       -0.2261692E-05 Eh
 * total energy  :  -119.7812473 Eh     change       -0.1743561E-05 Eh
 * total energy  :  -119.7812489 Eh     change       -0.1664830E-05 Eh
 * total energy  :  -119.7812508 Eh     change       -0.1822367E-05 Eh
 * total energy  :  -119.7812561 Eh     change       -0.1398598E-05 Eh
 * total energy  :  -119.7812577 Eh     change       -0.1573930E-05 Eh
 * total energy  :  -119.7812591 Eh     change       -0.1404854E-05 Eh
 * total energy  :  -119.7812601 Eh     change       -0.9893018E-06 Eh
 * total energy  :  -119.7812607 Eh     change       -0.6143204E-06 Eh
 * total energy  :  -119.7812611 Eh     change       -0.4314186E-06 Eh
 * total energy  :  -119.7812615 Eh     change       -0.3479208E-06 Eh
 * total energy  :  -119.7812618 Eh     change       -0.3061411E-06 Eh
 * total energy  :  -119.7812618 Eh     change       -0.1013889E-07 Eh
   *** GEOMETRY OPTIMIZATION CONVERGED AFTER 22 ITERATIONS ***

 final structure:
================
72
 xtb: 6.7.1 (edcfbbe)
C            6.42219235357604       -3.24460850518712        1.19250596667589
C            7.58495481568422       -2.51173500818800        0.91640848630839
N            7.57244923235243       -1.28606094618901        0.46258064624650
C            6.40445927590687       -0.68187902312787        0.24313575855198
C            5.16731619132388       -1.32908875012452        0.48637858035506
C            5.20731694112393       -2.64647956877908        0.97517549392499
C            3.92683999212354       -0.67269428595809        0.24448215999434
N            2.76829755612663       -1.28085444043945        0.46460998957452
C            1.59955750318926       -0.68118019039430        0.24831635120986
C            0.38061081575190       -1.29862160826024        0.49994107310382
C           -0.82688645933792       -0.65029428409634        0.26826018904094
N           -2.03329632544049       -1.29879016671668        0.56174911993195
C           -3.08450534327217       -0.74176866397844        1.26520940528941
C           -3.09473167795093        0.38059391920421        2.07913660538578
C           -4.29143421508777        0.73402059103738        2.67179325679172
C           -5.44372447158807       -0.02469699681537        2.48465116108913
C           -5.42187488994984       -1.17899710906500        1.72591021582089
C           -4.23219820026861       -1.55064683937865        1.11643321039984
C           -3.84112978034881       -2.66328991792617        0.29559956433033
C           -4.51762174525222       -3.76925135073703       -0.19862352667624
C           -3.83090185918854       -4.66361886328309       -0.99651391395954
C           -2.48927711071738       -4.46143163013482       -1.30970828777735
C           -1.79478883521754       -3.36615048010519       -0.83169874349017
C           -2.47687107134031       -2.47239525817363       -0.01996926339237
C           -0.82626282766231        0.65275491551598       -0.26562375198220
N           -2.03220739394456        1.30327319973368       -0.55657523416194
C           -2.47284716940604        2.47745929475118        0.02623767745415
C           -1.78754398014647        3.37052051215346        0.83600814557834
C           -2.47944431933293        4.46671937687774        1.31568044843884
C           -3.82165855856123        4.67046082575160        1.00604896990392
C           -4.51157253247822        3.77678937195990        0.21013726058155
C           -3.83771332785162        2.66996086524966       -0.28573402146052
C           -4.23230630173835        1.55772566137557       -1.10543363986768
C           -5.42407943854909        1.18734994858923       -1.71158779843093
C           -5.44930528130971        0.03301981363449       -2.47017818647641
C           -4.29836026981062       -0.72694194082941       -2.66052330907538
C           -3.09964424271696       -0.37481044507971       -2.07117772831281
C           -3.08596145186843        0.74752024055155       -1.25725929793932
C            0.38195602094140        1.29883475302118       -0.49990166821828
C            1.60029509372642        0.67908398343805       -0.25095330965438
N            2.76973862517105        1.27648802946488       -0.46985633514430
C            3.92760414271209        0.66601051508771       -0.25237227718700
C            5.16884613909783        1.31988213108429       -0.49713541722193
C            5.21043227979674        2.63718406119872       -0.98605651613434
C            6.42602510786059        3.23281263938756       -1.20622634102160
C            7.58792341154614        2.49756497416456       -0.93281472072999
N            7.57394853569983        1.27193110172704       -0.47892684252777
C            6.40524227801213        0.67014808822469       -0.25675573593569
H            6.49069091710449       -4.25443938443915        1.56569397594568
H            8.56362054556701       -2.94595917802771        1.07270173374130
H            4.27204615771296       -3.15302382012923        1.16533470411240
H            0.38285448276554       -2.29161063884501        0.92088665720668
H           -2.19870806659497        0.95743825496385        2.25135855791749
H           -4.33047221666660        1.61594589090994        3.29346632209359
H           -6.36252185267396        0.28777603581028        2.95789481388646
H           -6.30853171553308       -1.78333040182421        1.60889666755340
H           -5.56039171670838       -3.92081071761879        0.03525392673961
H           -4.33905422819779       -5.53138085619145       -1.38997284932049
H           -1.98068455798669       -5.17375997328873       -1.94250428501677
H           -0.75844751237448       -3.20959724144953       -1.09213384809780
H           -0.75069997260146        3.21277717512731        1.09370662732395
H           -1.96830454852705        5.17855854568812        1.94697283126703
H           -4.32772188955507        5.53889552974418        1.40071544982356
H           -5.55478110456120        3.92954955947580       -0.02098722850578
H           -6.30975012598411        1.79265069225443       -1.59213758327919
H           -6.36976746328229       -0.27850508225402       -2.94080425658992
H           -4.34007843045027       -1.60883812541427       -3.28206431608032
H           -2.20471667642364       -0.95261890311958       -2.24585474831156
H            0.38514739453024        2.29181491166085       -0.92086373078735
H            4.27576878445827        3.14564626282404       -1.17406041711873
H            6.49572991633884        4.24249161230333       -1.57959995682730
H            8.56711516906816        2.92977487692165       -1.09138182951853

 projected vibrational frequencies (cm⁻¹)
eigval :       -0.00    -0.00     0.00     0.00     0.00     0.00
eigval :       16.78    20.20    20.99    33.18    37.33    46.49
eigval :       61.43    70.83    84.46    96.50   102.48   108.17
eigval :      115.80   124.45   137.74   145.67   146.45   149.86
eigval :      164.75   193.98   207.74   223.15   239.81   242.04
eigval :      258.87   274.98   275.83   281.53   297.25   312.73
eigval :      339.22   363.25   392.10   394.57   400.14   400.34
eigval :      410.51   418.31   422.96   424.30   432.30   435.16
eigval :      438.23   444.35   454.47   487.77   516.89   518.61
eigval :      520.45   523.54   528.06   541.01   541.49   543.07
eigval :      549.45   563.83   567.67   581.47   587.27   587.95
eigval :      594.34   596.94   623.06   626.63   658.23   666.47
eigval :      671.33   675.31   678.36   692.28   696.09   703.67
eigval :      707.36   709.48   712.87   744.82   755.87   756.50
eigval :      769.30   770.99   781.03   781.58   783.21   787.75
eigval :      794.75   812.35   827.12   843.17   858.02   872.56
eigval :      873.26   876.88   877.19   895.32   896.23   902.95
eigval :      903.07   904.98   905.21   906.64   906.81   917.96
eigval :      918.07   918.40   922.18   922.19   923.55   923.78
eigval :      957.45  1012.03  1012.89  1031.65  1056.36  1069.18
eigval :     1070.02  1071.87  1073.56  1081.41  1084.49  1095.15
eigval :     1114.19  1128.60  1133.60  1149.66  1150.03  1163.98
eigval :     1173.88  1179.26  1180.10  1180.86  1181.19  1186.74
eigval :     1197.74  1213.72  1231.00  1233.94  1234.08  1236.10
eigval :     1238.21  1241.01  1257.67  1280.77  1281.32  1292.91
eigval :     1293.40  1298.29  1299.59  1305.82  1309.58  1316.57
eigval :     1336.03  1343.35  1357.84  1359.30  1359.71  1361.17
eigval :     1363.51  1383.52  1389.96  1404.45  1412.48  1424.20
eigval :     1425.76  1427.44  1433.31  1445.02  1458.37  1469.92
eigval :     1473.36  1479.14  1487.87  1487.92  1499.34  1504.77
eigval :     1507.24  1532.71  1558.32  1572.16  1573.82  1574.28
eigval :     1588.36  1589.90  1595.92  1596.52  1607.71  1612.31
eigval :     3058.97  3059.18  3076.42  3076.52  3076.52  3076.75
eigval :     3079.82  3079.91  3081.74  3081.94  3084.28  3084.65
eigval :     3089.11  3089.21  3091.87  3092.00  3096.03  3096.15
eigval :     3096.51  3096.84  3098.35  3099.07  3104.04  3104.52

   temp. (K)  partition function   enthalpy   heat capacity  entropy
                                   cal/mol     cal/K/mol   cal/K/mol   J/K/mol
 298.15  VIB  0.170E+15            20255.703    134.328    122.450
         ROT  0.336E+08              888.752      2.981     37.419
         INT  0.570E+22            21144.456    137.309    159.869
         TR   0.147E+29             1481.254      4.968     45.101
         TOT                       22625.7097   142.2773   204.9699   857.5939

       T/K    H(0)-H(T)+PV         H(T)/Eh          T*S/Eh         G(T)/Eh
   ------------------------------------------------------------------------
    298.15    0.360564E-01    0.567857E+00    0.973878E-01    0.470470E+00
   ------------------------------------------------------------------------

         :::::::::::::::::::::::::::::::::::::::::::::::::::::
         ::                  THERMODYNAMIC                  ::
         :::::::::::::::::::::::::::::::::::::::::::::::::::::
         :: total free energy        -119.310792267810 Eh   ::
         ::.................................................::
         :: total energy             -119.781261834727 Eh   ::
         :: zero point energy           0.531800996078 Eh   ::
         :: G(RRHO) w/o ZPVE           -0.061331429161 Eh   ::
         :: G(RRHO) contrib.            0.470469566917 Eh   ::
         :::::::::::::::::::::::::::::::::::::::::::::::::::::

           -------------------------------------------------
          | TOTAL ENERGY             -119.781261834727 Eh   |
          | TOTAL ENTHALPY           -119.213404475203 Eh   |
          | TOTAL FREE ENERGY        -119.310792267810 Eh   |
          | GRADIENT NORM               0.000078611523 Eh/α |
           -------------------------------------------------

 * finished run on 2025/08/22 at 13:54:55.118
