   * xtb version 6.7.1 (edcfbbe) compiled by 'albert@albert-system' on 2024-07-22

   ID    Z sym.   atoms
    1    6 C      1, 2, 4-7, 9-11, 13-25, 27-40, 42-46, 48
    2    7 N      3, 8, 12, 26, 41, 47
    3    1 H      49-72

          program call               : xtb data2507/gas/DCz-DPPZ/DCz-DPPZ_gas_S0_crest.xyz --gfn 2 --ohess vtight --parallel 40 --molden --ceasefiles --namespace data2507/gas/DCz-DPPZ/DCz-DPPZ_gas_S0_finalOpt
          :  Hamiltonian                  GFN2-xTB          :
 * total energy  :  -119.8246799 Eh     change       -0.5026180E-08 Eh
 * total energy  :  -119.8246805 Eh     change       -0.6031550E-06 Eh
 * total energy  :  -119.8246809 Eh     change       -0.3542423E-06 Eh
 * total energy  :  -119.8246812 Eh     change       -0.3414032E-06 Eh
 * total energy  :  -119.8246817 Eh     change       -0.5194595E-06 Eh
 * total energy  :  -119.8246823 Eh     change       -0.6006039E-06 Eh
 * total energy  :  -119.8246827 Eh     change       -0.4192996E-06 Eh
 * total energy  :  -119.8246830 Eh     change       -0.2718720E-06 Eh
 * total energy  :  -119.8246833 Eh     change       -0.2509695E-06 Eh
 * total energy  :  -119.8246835 Eh     change       -0.2413944E-06 Eh
 * total energy  :  -119.8246837 Eh     change       -0.1483016E-06 Eh
 * total energy  :  -119.8246838 Eh     change       -0.1072603E-06 Eh
 * total energy  :  -119.8246839 Eh     change       -0.1073834E-06 Eh
 * total energy  :  -119.8246840 Eh     change       -0.1332315E-06 Eh
 * total energy  :  -119.8246841 Eh     change       -0.1220108E-06 Eh
 * total energy  :  -119.8246842 Eh     change       -0.9658305E-07 Eh
   *** GEOMETRY OPTIMIZATION CONVERGED AFTER 16 ITERATIONS ***

 final structure:
================
72
 xtb: 6.7.1 (edcfbbe)
C            6.41151985307130       -3.26507438680953        1.14615146338999
C            7.56068953440675       -2.51737954626014        0.88361937235665
N            7.54104237237374       -1.28020476917045        0.44769104521851
C            6.36556777408627       -0.68931760451247        0.23856469928991
C            5.14406659776348       -1.35213372786562        0.47138865681257
C            5.18708332160520       -2.67076628811911        0.93614523181594
C            3.88846708481576       -0.67792547336629        0.23295599880442
N            2.76023876448450       -1.32477303947445        0.46143497366855
C            1.61057103618531       -0.67673501743574        0.23313734039661
C            0.38242372882362       -1.31666684286574        0.48778455412433
C           -0.80491005311826       -0.66757793397676        0.26595132038639
N           -2.01752000801554       -1.29926435354365        0.55438858499244
C           -3.06986251061711       -0.73106103318332        1.25127310181139
C           -3.07356718054071        0.38878183641836        2.06784505154590
C           -4.27023595465620        0.75161156201223        2.65542758804792
C           -5.42776512799911        0.00293146795442        2.46196225631350
C           -5.41122473599949       -1.15168319209455        1.70413436035651
C           -4.22146476905835       -1.53245481840417        1.10010094101234
C           -3.83430437061765       -2.65252924725810        0.28727218431179
C           -4.51937023168271       -3.75362894921718       -0.20675863469155
C           -3.83690068362423       -4.65887302859601       -0.99529266869402
C           -2.49136142486761       -4.47181868149997       -1.30002041297617
C           -1.78856742745169       -3.38175633214270       -0.82155365356771
C           -2.46655228291947       -2.47792307813382       -0.01877544895401
C           -0.80469893855608        0.66405603294789       -0.26897199205690
N           -2.01695719942331        1.29877812387376       -0.55198256210072
C           -2.45934891612841        2.47916409393632        0.02280320122143
C           -1.77492506062785        3.38045652446463        0.82298283532152
C           -2.47178572257017        4.47311848577559        1.30415546620246
C           -3.81779648817196        4.66516931589777        1.00465941458911
C           -4.50668336755224        3.76243187384387        0.21884712532173
C           -3.82762210316331        2.65880637740720       -0.27785153803229
C           -4.22206437347395        1.54015741871562       -1.08912505226932
C           -5.41550432941376        1.16414964754665       -1.68884820870311
C           -5.43935400366678        0.00969964564238       -2.44672871793564
C           -4.28551556036387       -0.74357912063177       -2.64432186127458
C           -3.08527513082692       -0.38551892848903       -2.06109397145634
C           -3.07408585963894        0.73436646792638       -1.24465152162818
C            0.38295509774725        1.31104147668069       -0.49505498673282
C            1.61082201873649        0.66962242256148       -0.24307770025539
N            2.76063065111692        1.31698906884541       -0.47238062201523
C            3.88865507750859        0.66988477888722       -0.24378158568230
C            5.14430482505913        1.34432112081042       -0.48118992937484
C            5.18738879083886        2.66247409320253       -0.94732755931204
C            6.41186843770367        3.25742939528022       -1.15519212030866
C            7.56097053274356        2.51101056889222       -0.88868894672252
N            7.54123505376080        1.27418114770137       -0.45176208502694
C            6.36570016403278        0.68247596821235       -0.24524923073741
H            6.48710123766410       -4.28027076424481        1.50377641322448
H            8.54511786071669       -2.94171317046452        1.03389960833468
H            4.25700210787055       -3.18745611090531        1.11801267139383
H            0.39699917723855       -2.31543551427252        0.89551212002179
H           -2.17370893321854        0.95800267835895        2.24638333347334
H           -4.30427320715219        1.63275308980141        3.27842111846903
H           -6.34613274202460        0.32272592117483        2.93101674369540
H           -6.30128759364882       -1.75030021734720        1.58429879698209
H           -5.56548644906072       -3.89196717185116        0.01994688234396
H           -4.35118737937185       -5.52326099472875       -1.38809586835648
H           -1.98531233621688       -5.19203084069387       -1.92579694443296
H           -0.74882320284036       -3.23863370020118       -1.07599473464005
H           -0.73476250684912        3.23347670354249        1.07347552653921
H           -1.96059609014811        5.19146676325877        1.92789151601539
H           -4.32729537633482        5.53153479521358        1.39934590707380
H           -5.55315015956977        3.90465535415224       -0.00379574606119
H           -6.30273728886775        1.76629685458369       -1.56572820959953
H           -6.36067227274525       -0.30639092362759       -2.91249990833688
H           -4.32532809159155       -1.62462200378077       -3.26712025200132
H           -2.18838046694393       -0.95834449037776       -2.24296274320610
H            0.39785104178619        2.30973299030535       -0.90294665683920
H            4.25731998076033        3.17822327150442       -1.13193312366486
H            6.48754395915921        4.27216367617233       -1.51411737382625
H            8.54542001127165        2.93606744224031       -1.03677057000616

          :  Hamiltonian                  GFN2-xTB          :
         :: gradient norm              0.000038251100 Eh/a0 ::
         :: HOMO-LUMO gap              1.310883404993 eV    ::
         :: SCC energy              -121.994701563933 Eh    ::
         :: -> dispersion             -0.119326844755 Eh    ::
         :: repulsion energy           2.170017334670 Eh    ::

    * Orbital Energies and Occupations

         #    Occupation            Energy/Eh            Energy/eV
      -------------------------------------------------------------
         1        2.0000           -0.6912514             -18.8099
       ...           ...                  ...                  ...
        99        2.0000           -0.4224366             -11.4951
       100        2.0000           -0.4214232             -11.4675
       101        2.0000           -0.4104031             -11.1676
       102        2.0000           -0.4094391             -11.1414
       103        2.0000           -0.4076409             -11.0925
       104        2.0000           -0.4055272             -11.0350
       105        2.0000           -0.3865073             -10.5174
       106        2.0000           -0.3794729             -10.3260
       107        2.0000           -0.3701932             -10.0735
       108        2.0000           -0.3700335             -10.0691
       109        2.0000           -0.3688431             -10.0367
       110        2.0000           -0.3679256             -10.0118
       111        2.0000           -0.3615143              -9.8373 (HOMO)
       112                         -0.3133403              -8.5264 (LUMO)
       113                         -0.2823219              -7.6824
       114                         -0.2748528              -7.4791
       115                         -0.2507533              -6.8233
       116                         -0.2489767              -6.7750
       117                         -0.2408986              -6.5552
       118                         -0.2378711              -6.4728
       119                         -0.2305247              -6.2729
       120                         -0.2211798              -6.0186
       121                         -0.2181977              -5.9375
       122                         -0.2121960              -5.7741
       ...                                ...                  ...
       216                          0.7435428              20.2328
      -------------------------------------------------------------
                  HL-Gap            0.0481740 Eh            1.3109 eV

     #   Z          covCN         q      C6AA      α(0)
     1   6 C        2.912    -0.038    28.939     8.821
     2   6 C        2.907     0.064    26.577     8.453
     3   7 N        1.841    -0.199    26.156     7.579
     4   6 C        2.971     0.085    26.107     8.381
     5   6 C        2.983    -0.012    28.299     8.726
     6   6 C        2.928    -0.010    28.274     8.720
     7   6 C        2.960     0.081    26.181     8.393
     8   7 N        1.849    -0.236    27.019     7.704
     9   6 C        2.967     0.080    26.221     8.399
    10   6 C        2.921    -0.058    29.430     8.896
    11   6 C        2.909     0.058    26.701     8.473
    12   7 N        2.801    -0.045    22.101     6.982
    13   6 C        3.077     0.049    26.823     8.491
    14   6 C        2.910    -0.047    29.160     8.855
    15   6 C        2.925    -0.031    28.778     8.797
    16   6 C        2.921    -0.038    28.951     8.824
    17   6 C        2.913    -0.032    28.790     8.799
    18   6 C        3.066    -0.015    28.319     8.726
    19   6 C        3.069    -0.014    28.286     8.721
    20   6 C        2.913    -0.031    28.779     8.797
    21   6 C        2.920    -0.039    28.971     8.827
    22   6 C        2.924    -0.032    28.803     8.801
    23   6 C        2.910    -0.050    29.234     8.866
    24   6 C        3.073     0.049    26.817     8.491
    25   6 C        2.909     0.058    26.702     8.473
    26   7 N        2.801    -0.045    22.100     6.982
    27   6 C        3.073     0.049    26.817     8.491
    28   6 C        2.910    -0.050    29.234     8.866
    29   6 C        2.924    -0.032    28.803     8.801
    30   6 C        2.920    -0.039    28.971     8.827
    31   6 C        2.913    -0.031    28.779     8.797
    32   6 C        3.069    -0.014    28.286     8.721
    33   6 C        3.066    -0.015    28.319     8.726
    34   6 C        2.913    -0.032    28.790     8.799
    35   6 C        2.921    -0.038    28.951     8.824
    36   6 C        2.925    -0.031    28.778     8.797
    37   6 C        2.910    -0.047    29.160     8.855
    38   6 C        3.077     0.049    26.823     8.491
    39   6 C        2.921    -0.058    29.430     8.896
    40   6 C        2.967     0.080    26.221     8.399
    41   7 N        1.849    -0.236    27.019     7.704
    42   6 C        2.960     0.081    26.181     8.393
    43   6 C        2.983    -0.012    28.299     8.726
    44   6 C        2.928    -0.010    28.274     8.720
    45   6 C        2.912    -0.038    28.939     8.821
    46   6 C        2.907     0.064    26.577     8.453
    47   7 N        1.841    -0.199    26.156     7.579
    48   6 C        2.971     0.085    26.107     8.381
    49   1 H        0.926     0.042     2.417     2.431
    50   1 H        0.925     0.048     2.349     2.396
    51   1 H        0.926     0.061     2.191     2.315
    52   1 H        0.926     0.065     2.136     2.285
    53   1 H        0.926     0.023     2.684     2.562
    54   1 H        0.926     0.031     2.571     2.507
    55   1 H        0.926     0.031     2.565     2.505
    56   1 H        0.926     0.034     2.534     2.490
    57   1 H        0.926     0.034     2.536     2.490
    58   1 H        0.926     0.031     2.572     2.508
    59   1 H        0.926     0.032     2.558     2.501
    60   1 H        0.926     0.028     2.617     2.530
    61   1 H        0.926     0.028     2.617     2.530
    62   1 H        0.926     0.032     2.558     2.501
    63   1 H        0.926     0.031     2.571     2.508
    64   1 H        0.926     0.034     2.535     2.490
    65   1 H        0.926     0.034     2.534     2.490
    66   1 H        0.926     0.031     2.565     2.505
    67   1 H        0.926     0.031     2.571     2.507
    68   1 H        0.926     0.023     2.684     2.562
    69   1 H        0.926     0.065     2.136     2.285
    70   1 H        0.926     0.061     2.191     2.315
    71   1 H        0.926     0.042     2.417     2.431
    72   1 H        0.925     0.048     2.349     2.396

molecular dipole:
                 x           y           z       tot (Debye)
 q only:       -0.373       0.000      -0.001
   full:       -0.880      -0.000      -0.002       2.236

 projected vibrational frequencies (cm⁻¹)
eigval :       -0.00    -0.00     0.00     0.00     0.00     0.00
eigval :       14.37    20.25    22.03    35.03    38.71    47.30
eigval :       60.80    70.02    83.48    97.11    98.15   107.28
eigval :      116.98   126.92   138.89   144.27   147.36   153.58
eigval :      165.73   197.13   207.58   232.16   233.43   257.39
eigval :      259.50   276.17   276.41   282.58   316.95   318.02
eigval :      359.83   362.34   379.83   395.71   400.24   400.94
eigval :      409.77   417.25   422.40   428.88   435.13   437.65
eigval :      441.47   445.72   449.46   488.33   517.46   518.93
eigval :      525.61   528.61   529.65   541.66   542.31   545.77
eigval :      554.52   574.69   583.17   588.24   589.25   595.93
eigval :      599.58   601.67   626.12   666.74   668.64   671.35
eigval :      678.62   689.81   696.96   707.44   707.77   708.10
eigval :      712.32   737.92   747.56   756.60   756.80   770.31
eigval :      771.82   774.61   782.42   782.50   787.94   795.25
eigval :      811.35   848.30   853.63   864.14   868.74   875.72
eigval :      878.00   878.05   886.24   895.27   898.59   903.90
eigval :      904.17   905.71   906.05   916.76   917.44   923.11
eigval :      923.33   924.39   924.57   928.37   928.54   951.30
eigval :      961.03  1012.73  1013.38  1048.54  1069.19  1070.81
eigval :     1070.89  1072.84  1074.65  1083.07  1091.26  1102.91
eigval :     1109.69  1136.12  1136.85  1151.38  1151.56  1164.53
eigval :     1173.44  1178.68  1180.28  1181.11  1183.90  1185.86
eigval :     1194.63  1219.64  1230.05  1235.17  1236.11  1236.66
eigval :     1250.09  1273.51  1273.80  1284.93  1295.49  1297.43
eigval :     1298.80  1300.25  1307.42  1315.45  1319.59  1345.54
eigval :     1346.54  1358.98  1359.51  1361.94  1361.99  1376.92
eigval :     1388.77  1401.28  1419.30  1419.89  1428.13  1428.30
eigval :     1437.70  1445.49  1451.39  1467.26  1468.13  1474.94
eigval :     1476.40  1487.76  1487.97  1497.70  1522.03  1542.24
eigval :     1551.14  1563.52  1576.18  1577.22  1577.34  1586.27
eigval :     1592.08  1592.22  1600.15  1601.25  1614.86  1615.85
eigval :     3055.16  3055.42  3076.98  3077.06  3079.88  3079.90
eigval :     3082.14  3082.34  3083.75  3084.18  3088.84  3088.93
eigval :     3089.52  3089.74  3091.99  3092.05  3097.31  3097.50
eigval :     3099.43  3099.69  3099.73  3099.99  3104.17  3104.39

   temp. (K)  partition function   enthalpy   heat capacity  entropy
                                   cal/mol     cal/K/mol   cal/K/mol   J/K/mol
 298.15  VIB  0.143E+15            20062.102    133.043    121.516
         ROT  0.333E+08              888.752      2.981     37.404
         INT  0.475E+22            20950.854    136.024    158.920
         TR   0.147E+29             1481.254      4.968     45.101
         TOT                       22432.1082   140.9925   204.0205   853.6216

       T/K    H(0)-H(T)+PV         H(T)/Eh          T*S/Eh         G(T)/Eh
   ------------------------------------------------------------------------
    298.15    0.357478E-01    0.570545E+00    0.969367E-01    0.473608E+00
   ------------------------------------------------------------------------

         :::::::::::::::::::::::::::::::::::::::::::::::::::::
         ::                  THERMODYNAMIC                  ::
         :::::::::::::::::::::::::::::::::::::::::::::::::::::
         :: total free energy        -119.351075842519 Eh   ::
         ::.................................................::
         :: total energy             -119.824684229277 Eh   ::
         :: zero point energy           0.534797255996 Eh   ::
         :: G(RRHO) w/o ZPVE           -0.061188869239 Eh   ::
         :: G(RRHO) contrib.            0.473608386758 Eh   ::
         :::::::::::::::::::::::::::::::::::::::::::::::::::::

           -------------------------------------------------
          | TOTAL ENERGY             -119.824684229277 Eh   |
          | TOTAL ENTHALPY           -119.254139133444 Eh   |
          | TOTAL FREE ENERGY        -119.351075842519 Eh   |
          | GRADIENT NORM               0.000038189864 Eh/α |
          | HOMO-LUMO GAP               1.310881523291 eV   |
           -------------------------------------------------

 * finished run on 2025/08/22 at 13:54:47.904
