   * xtb version 6.7.1 (edcfbbe) compiled by 'albert@albert-system' on 2024-07-22

   ID    Z sym.   atoms
    1    6 C      1, 2, 4-7, 9-11, 13-25, 27-40, 42-46, 48
    2    7 N      3, 8, 12, 26, 41, 47
    3    1 H      49-72

          program call               : xtb data2507/gas/DCz-DPPZ/DCz-DPPZ.xyz --gfn 2 --ohess vtight --parallel 40 --molden --ceasefiles --namespace data2507/gas/DCz-DPPZ/DCz-DPPZ_gas_S0_preOpt
          :  Hamiltonian                  GFN2-xTB          :
 * total energy  :  -119.7901214 Eh     change       -0.6088314E-08 Eh
 * total energy  :  -119.8138309 Eh     change       -0.2370944E-01 Eh
 * total energy  :  -119.8197482 Eh     change       -0.5917351E-02 Eh
 * total energy  :  -119.8209364 Eh     change       -0.1188141E-02 Eh
 * total energy  :  -119.8216439 Eh     change       -0.7075025E-03 Eh
 * total energy  :  -119.8218199 Eh     change       -0.1759907E-03 Eh
 * total energy  :  -119.8219327 Eh     change       -0.1128506E-03 Eh
 * total energy  :  -119.8220202 Eh     change       -0.8751804E-04 Eh
 * total energy  :  -119.8220986 Eh     change       -0.7837643E-04 Eh
 * total energy  :  -119.8221733 Eh     change       -0.7469482E-04 Eh
 * total energy  :  -119.8246812 Eh     change       -0.6119488E-06 Eh
 * total energy  :  -119.8246820 Eh     change       -0.8212769E-06 Eh
 * total energy  :  -119.8246828 Eh     change       -0.7828235E-06 Eh
 * total energy  :  -119.8246833 Eh     change       -0.5442836E-06 Eh
 * total energy  :  -119.8246836 Eh     change       -0.2820421E-06 Eh
 * total energy  :  -119.8246837 Eh     change       -0.1585065E-06 Eh
 * total energy  :  -119.8246839 Eh     change       -0.1672384E-06 Eh
 * total energy  :  -119.8246841 Eh     change       -0.1464870E-06 Eh
 * total energy  :  -119.8246842 Eh     change       -0.9528326E-07 Eh
   *** GEOMETRY OPTIMIZATION CONVERGED AFTER 56 ITERATIONS ***

 final structure:
================
72
 xtb: 6.7.1 (edcfbbe)
C            6.75789411626401       -3.29908709612026       -1.03775876362631
C            7.90706118119263       -2.54341212876648       -0.79908767171896
N            7.88742632308274       -1.29215903916008       -0.40539438502725
C            6.71193670661951       -0.69402700778204       -0.21799523544428
C            5.49047086516168       -1.36402691176037       -0.42931927405613
C            5.53346352465517       -2.69764060879059       -0.84919917545457
C            4.23487764775091       -0.68187736326797       -0.21470423457039
N            3.10672717727795       -1.33680242074416       -0.41923225179294
C            1.95700450274185       -0.68136322460585       -0.21361348839526
C            0.72898178125119       -1.33129942428642       -0.44223083752426
C           -0.45840818782734       -0.67532691789040       -0.24243001420839
N           -1.67112889240264       -1.31871197706491       -0.50343866937065
C           -2.11836253808865       -2.47344219809062        0.11772196859397
C           -1.43821523707120       -3.34366974359870        0.95504128692760
C           -2.13973081097659       -4.41312142272862        1.47963776485030
C           -3.48600707340159       -4.61249653351565        1.18618641990760
C           -4.17040809319138       -3.74065432603756        0.36247864689888
C           -3.48668670082015       -2.66075722450339       -0.17801896892814
C           -3.87600080112158       -1.57473176099296       -1.03482859927334
C           -5.06702279237256       -1.21947924602760       -1.65176604340410
C           -5.08569944289362       -0.09635986297752       -2.45549568550665
C           -3.92918708439551        0.64499153439212       -2.68057328094792
C           -2.73127220811083        0.30703857610771       -2.08080128271833
C           -2.72521295477870       -0.77936473855583       -1.22027571475289
C           -0.45840705263016        0.67559862221632        0.24168374347587
N           -1.67114891169101        1.31880147544365        0.50299269171549
C           -2.72523710123715        0.77890408531168        1.21943953274327
C           -2.73105376432425       -0.30757622560001        2.07986756769017
C           -3.92907234334768       -0.64638338079093        2.67894673403343
C           -5.08594753638061        0.09422029998005        2.45327018195021
C           -5.06744281447093        1.21770469065017        1.65004168613189
C           -3.87625424053319        1.57392532905052        1.03398341090158
C           -3.48691657103122        2.66074012002407        0.17818058909723
C           -4.17049607900186        3.74146678494379       -0.36083350069562
C           -3.48589696642944        4.61454129508627       -1.18307671329155
C           -2.13965171994482        4.41538599380099       -1.47679799986723
C           -1.43829063979542        3.34508342615548       -0.95371100770802
C           -2.11850220078344        2.47388301555033       -0.11746501339790
C            0.72901249535570        1.33161046656963        0.44127131030974
C            1.95702274719490        0.68170288459441        0.21247362632523
N            3.10678770526420        1.33708183539226        0.41810617164458
C            4.23490931328267        0.68204859161613        0.21374068821863
C            5.49056013256280        1.36397107903095        0.42876784857226
C            5.53367055111526        2.69764996616759        0.84842900737147
C            6.75815103155143        3.29876239838666        1.03773579126780
C            7.90725781124432        2.54268278710646        0.80006075323893
N            7.88751596522022        1.29140264366961        0.40646185942455
C            6.71197922684753        0.69361191809526        0.21827866094350
H            6.83349744644693       -4.32571507555470       -1.36110193390474
H            8.89148013978730       -2.97300874074886       -0.93365623667875
H            4.60335511406073       -3.21979988614807       -1.01454915916287
H            0.74363610733187       -2.34472758227818       -0.81202816755692
H           -0.39783079865805       -3.19019767865517        1.20072634737962
H           -1.63208836673696       -5.10697719572606        2.13328073125727
H           -3.99931337738437       -5.45983627781497        1.61569343294375
H           -5.21701939476083       -3.88825439727849        0.14408792291313
H           -5.95641541571364       -1.81342313636408       -1.50643051470375
H           -6.00506391519669        0.20352676168531       -2.93562625629902
H           -3.96502517132194        1.50046228476892       -3.33827861357354
H           -1.83222488718462        0.86949377750015       -2.28329949383558
H           -1.83174478947562       -0.86945274101435        2.28277866570146
H           -3.96471384328818       -1.50197099835977        3.33651063508257
H           -6.00543358510057       -0.20647142266691        2.93264834850045
H           -5.95709289310054        1.81117198557358        1.50440520150184
H           -5.21709311954572        3.88891353814012       -0.14224795573761
H           -3.99902070878307        5.46272451074513       -1.61115966554545
H           -1.63189375034597        5.11013080978531       -2.12940531658890
H           -0.39791925157454        3.19184738725160       -1.19958229888993
H            0.74371104720500        2.34500017007546        0.81116671232295
H            4.60360791553733        3.22011981000471        1.01305490697283
H            6.83383914909504        4.32543023720888        1.36093266585922
H            8.89171430211439        2.97197382418756        0.93532991149268

          :  Hamiltonian                  GFN2-xTB          :
         :: gradient norm              0.000050495298 Eh/a0 ::
         :: HOMO-LUMO gap              1.310883347818 eV    ::
         :: SCC energy              -121.994731243599 Eh    ::
         :: -> dispersion             -0.119363048050 Eh    ::
         :: repulsion energy           2.170047087485 Eh    ::

    * Orbital Energies and Occupations

         #    Occupation            Energy/Eh            Energy/eV
      -------------------------------------------------------------
         1        2.0000           -0.6912627             -18.8102
       ...           ...                  ...                  ...
        99        2.0000           -0.4224183             -11.4946
       100        2.0000           -0.4214408             -11.4680
       101        2.0000           -0.4104143             -11.1679
       102        2.0000           -0.4094526             -11.1418
       103        2.0000           -0.4075906             -11.0911
       104        2.0000           -0.4055454             -11.0355
       105        2.0000           -0.3865146             -10.5176
       106        2.0000           -0.3794353             -10.3250
       107        2.0000           -0.3701871             -10.0733
       108        2.0000           -0.3700056             -10.0684
       109        2.0000           -0.3688581             -10.0371
       110        2.0000           -0.3679443             -10.0123
       111        2.0000           -0.3615426              -9.8381 (HOMO)
       112                         -0.3133685              -8.5272 (LUMO)
       113                         -0.2823480              -7.6831
       114                         -0.2748734              -7.4797
       115                         -0.2507294              -6.8227
       116                         -0.2489566              -6.7745
       117                         -0.2409212              -6.5558
       118                         -0.2378935              -6.4734
       119                         -0.2305142              -6.2726
       120                         -0.2211366              -6.0174
       121                         -0.2182214              -5.9381
       122                         -0.2122101              -5.7745
       ...                                ...                  ...
       216                          0.7435792              20.2338
      -------------------------------------------------------------
                  HL-Gap            0.0481741 Eh            1.3109 eV

     #   Z          covCN         q      C6AA      α(0)
     1   6 C        2.912    -0.038    28.938     8.821
     2   6 C        2.907     0.064    26.577     8.453
     3   7 N        1.841    -0.199    26.156     7.579
     4   6 C        2.971     0.085    26.107     8.381
     5   6 C        2.983    -0.012    28.299     8.726
     6   6 C        2.928    -0.010    28.274     8.720
     7   6 C        2.960     0.082    26.181     8.393
     8   7 N        1.849    -0.236    27.019     7.704
     9   6 C        2.967     0.080    26.221     8.399
    10   6 C        2.921    -0.057    29.428     8.896
    11   6 C        2.909     0.058    26.701     8.473
    12   7 N        2.801    -0.045    22.102     6.982
    13   6 C        3.073     0.049    26.816     8.491
    14   6 C        2.910    -0.050    29.233     8.866
    15   6 C        2.925    -0.032    28.802     8.801
    16   6 C        2.920    -0.039    28.971     8.827
    17   6 C        2.913    -0.031    28.779     8.797
    18   6 C        3.069    -0.014    28.286     8.721
    19   6 C        3.066    -0.015    28.319     8.726
    20   6 C        2.913    -0.032    28.790     8.799
    21   6 C        2.921    -0.038    28.952     8.824
    22   6 C        2.925    -0.031    28.778     8.797
    23   6 C        2.910    -0.047    29.160     8.855
    24   6 C        3.077     0.049    26.823     8.491
    25   6 C        2.909     0.058    26.701     8.473
    26   7 N        2.801    -0.045    22.102     6.982
    27   6 C        3.077     0.049    26.823     8.491
    28   6 C        2.910    -0.047    29.160     8.855
    29   6 C        2.925    -0.031    28.778     8.797
    30   6 C        2.921    -0.038    28.951     8.824
    31   6 C        2.913    -0.032    28.791     8.799
    32   6 C        3.066    -0.015    28.319     8.726
    33   6 C        3.069    -0.014    28.286     8.721
    34   6 C        2.913    -0.031    28.779     8.797
    35   6 C        2.920    -0.039    28.971     8.827
    36   6 C        2.925    -0.032    28.802     8.801
    37   6 C        2.910    -0.050    29.233     8.866
    38   6 C        3.073     0.049    26.816     8.491
    39   6 C        2.921    -0.057    29.429     8.896
    40   6 C        2.967     0.080    26.221     8.399
    41   7 N        1.849    -0.236    27.019     7.704
    42   6 C        2.960     0.082    26.181     8.393
    43   6 C        2.983    -0.012    28.299     8.726
    44   6 C        2.928    -0.010    28.274     8.720
    45   6 C        2.912    -0.038    28.938     8.821
    46   6 C        2.907     0.064    26.577     8.453
    47   7 N        1.841    -0.199    26.156     7.579
    48   6 C        2.971     0.085    26.107     8.381
    49   1 H        0.926     0.042     2.417     2.431
    50   1 H        0.925     0.048     2.348     2.396
    51   1 H        0.926     0.061     2.191     2.315
    52   1 H        0.926     0.065     2.136     2.285
    53   1 H        0.926     0.028     2.618     2.530
    54   1 H        0.926     0.032     2.558     2.501
    55   1 H        0.926     0.031     2.572     2.508
    56   1 H        0.926     0.034     2.536     2.490
    57   1 H        0.926     0.034     2.535     2.490
    58   1 H        0.926     0.031     2.566     2.505
    59   1 H        0.926     0.031     2.571     2.507
    60   1 H        0.926     0.023     2.685     2.562
    61   1 H        0.926     0.023     2.685     2.562
    62   1 H        0.926     0.031     2.571     2.507
    63   1 H        0.926     0.031     2.566     2.505
    64   1 H        0.926     0.034     2.535     2.490
    65   1 H        0.926     0.034     2.536     2.490
    66   1 H        0.926     0.031     2.572     2.508
    67   1 H        0.926     0.032     2.558     2.501
    68   1 H        0.926     0.028     2.617     2.530
    69   1 H        0.926     0.065     2.136     2.285
    70   1 H        0.926     0.061     2.191     2.315
    71   1 H        0.926     0.042     2.417     2.431
    72   1 H        0.925     0.048     2.348     2.396

molecular dipole:
                 x           y           z       tot (Debye)
 q only:       -0.370       0.000      -0.000
   full:       -0.876       0.000      -0.000       2.228

 projected vibrational frequencies (cm⁻¹)
eigval :       -0.00    -0.00     0.00     0.00     0.00     0.00
eigval :       14.33    20.23    21.94    35.17    38.72    47.37
eigval :       60.76    69.89    83.45    97.07    98.16   107.34
eigval :      116.97   126.92   138.89   144.22   147.28   153.50
eigval :      165.75   197.11   207.57   232.10   233.36   257.39
eigval :      259.48   276.13   276.43   282.50   316.89   318.00
eigval :      359.83   362.43   379.83   395.71   400.23   400.89
eigval :      409.75   417.24   422.40   428.78   435.12   437.56
eigval :      441.44   445.69   449.44   488.35   517.46   518.94
eigval :      525.60   528.60   529.63   541.65   542.32   545.75
eigval :      554.44   574.74   583.19   588.24   589.25   595.94
eigval :      599.60   601.67   626.06   666.78   668.61   671.35
eigval :      678.64   689.83   696.99   707.44   707.77   708.10
eigval :      712.34   737.91   747.58   756.60   756.80   770.27
eigval :      771.80   774.62   782.40   782.48   787.93   795.25
eigval :      811.35   848.28   853.60   864.15   868.76   875.64
eigval :      877.96   877.99   886.13   895.29   898.58   903.86
eigval :      904.12   905.67   906.01   916.77   917.45   923.08
eigval :      923.30   924.35   924.53   928.37   928.53   951.25
eigval :      961.02  1012.74  1013.38  1048.54  1069.18  1070.79
eigval :     1070.86  1072.82  1074.61  1083.02  1091.26  1102.90
eigval :     1109.65  1136.11  1136.84  1151.35  1151.54  1164.52
eigval :     1173.45  1178.67  1180.28  1181.11  1183.89  1185.84
eigval :     1194.53  1219.64  1230.02  1235.17  1236.09  1236.66
eigval :     1250.05  1273.50  1273.79  1284.92  1295.49  1297.42
eigval :     1298.82  1300.28  1307.43  1315.43  1319.58  1345.53
eigval :     1346.53  1359.01  1359.53  1361.98  1362.01  1376.84
eigval :     1388.76  1401.29  1419.31  1419.89  1428.15  1428.31
eigval :     1437.69  1445.49  1451.31  1467.29  1468.14  1474.95
eigval :     1476.40  1487.77  1487.97  1497.71  1522.06  1542.25
eigval :     1551.14  1563.53  1576.21  1577.22  1577.35  1586.34
eigval :     1592.12  1592.25  1600.17  1601.27  1614.88  1615.88
eigval :     3055.16  3055.42  3076.93  3077.01  3079.86  3079.91
eigval :     3082.12  3082.31  3083.75  3084.17  3088.87  3088.95
eigval :     3089.52  3089.73  3092.01  3092.08  3097.31  3097.50
eigval :     3099.44  3099.72  3099.76  3100.02  3104.12  3104.34

   temp. (K)  partition function   enthalpy   heat capacity  entropy
                                   cal/mol     cal/K/mol   cal/K/mol   J/K/mol
 298.15  VIB  0.144E+15            20063.072    133.048    121.530
         ROT  0.333E+08              888.752      2.981     37.403
         INT  0.478E+22            20951.824    136.029    158.934
         TR   0.147E+29             1481.254      4.968     45.101
         TOT                       22433.0783   140.9967   204.0345   853.6805

       T/K    H(0)-H(T)+PV         H(T)/Eh          T*S/Eh         G(T)/Eh
   ------------------------------------------------------------------------
    298.15    0.357494E-01    0.570542E+00    0.969434E-01    0.473599E+00
   ------------------------------------------------------------------------

         :::::::::::::::::::::::::::::::::::::::::::::::::::::
         ::                  THERMODYNAMIC                  ::
         :::::::::::::::::::::::::::::::::::::::::::::::::::::
         :: total free energy        -119.351085368863 Eh   ::
         ::.................................................::
         :: total energy             -119.824684156108 Eh   ::
         :: zero point energy           0.534792798507 Eh   ::
         :: G(RRHO) w/o ZPVE           -0.061194011262 Eh   ::
         :: G(RRHO) contrib.            0.473598787245 Eh   ::
         :::::::::::::::::::::::::::::::::::::::::::::::::::::

           -------------------------------------------------
          | TOTAL ENERGY             -119.824684156108 Eh   |
          | TOTAL ENTHALPY           -119.254141971794 Eh   |
          | TOTAL FREE ENERGY        -119.351085368863 Eh   |
          | GRADIENT NORM               0.000050486288 Eh/α |
          | HOMO-LUMO GAP               1.310884916993 eV   |
           -------------------------------------------------

 * finished run on 2025/08/22 at 13:51:51.199
