   * xtb version 6.7.1 (edcfbbe) compiled by 'albert@albert-system' on 2024-07-22

   ID    Z sym.   atoms
    1    6 C      1, 2, 4-7, 9-11, 13-25, 27-40, 42-46, 48
    2    7 N      3, 8, 12, 26, 41, 47
    3    1 H      49-72

          program call               : xtb data2507/gas/DCz-DPPZ/DCz-DPPZ_gas_T1_crest.xyz --gfn 2 --spinpol --tblite --uhf 2 --ohess vtight --parallel 40 --molden --ceasefiles --namespace data2507/gas/DCz-DPPZ/DCz-DPPZ_gas_T1_finalOpt
 * total energy  :  -119.7812130 Eh     change       -0.3428904E-07 Eh
 * total energy  :  -119.7812502 Eh     change       -0.3722017E-04 Eh
 * total energy  :  -119.7812620 Eh     change       -0.1176082E-04 Eh
 * total energy  :  -119.7812637 Eh     change       -0.1759382E-05 Eh
 * total energy  :  -119.7812647 Eh     change       -0.9255278E-06 Eh
 * total energy  :  -119.7812644 Eh     change        0.2147694E-06 Eh
 * total energy  :  -119.7812652 Eh     change       -0.7125940E-06 Eh
 * total energy  :  -119.7812656 Eh     change       -0.4779790E-06 Eh
 * total energy  :  -119.7812663 Eh     change       -0.6220259E-06 Eh
 * total energy  :  -119.7812671 Eh     change       -0.8014948E-06 Eh
 * total energy  :  -119.7812707 Eh     change       -0.4414274E-06 Eh
 * total energy  :  -119.7812711 Eh     change       -0.3815170E-06 Eh
 * total energy  :  -119.7812715 Eh     change       -0.3741330E-06 Eh
 * total energy  :  -119.7812718 Eh     change       -0.3143179E-06 Eh
 * total energy  :  -119.7812720 Eh     change       -0.2379312E-06 Eh
 * total energy  :  -119.7812721 Eh     change       -0.1125079E-06 Eh
 * total energy  :  -119.7812724 Eh     change       -0.2496687E-06 Eh
 * total energy  :  -119.7812724 Eh     change        0.6971405E-08 Eh
 * total energy  :  -119.7812724 Eh     change       -0.1282345E-08 Eh
   *** GEOMETRY OPTIMIZATION CONVERGED AFTER 23 ITERATIONS ***

 final structure:
================
72
 xtb: 6.7.1 (edcfbbe)
C            6.42295787721185       -3.22797411006664        1.22538671934195
C            7.58520786242822       -2.49451094037706        0.94862912861156
N            7.57184633131211       -1.27226824803072        0.48572484027413
C            6.40348245290503       -0.67217821114217        0.25746059937699
C            5.16677836247978       -1.32018368518286        0.50094740433999
C            5.20767126598601       -2.63404480530617        0.99905997545600
C            3.92581830255303       -0.66767651686945        0.25118052440296
N            2.76772202960335       -1.27735529337533        0.46941050502380
C            1.59857033935312       -0.68013228249202        0.24867051902543
C            0.37990879114541       -1.29980463883913        0.49596716084083
C           -0.82821848968243       -0.65304385296048        0.26279627287550
N           -2.03373281744864       -1.30690592659724        0.54830113855319
C           -3.09141769296388       -0.75715622058829        1.24775422873925
C           -3.11023449585942        0.35948093703620        2.06935359274482
C           -4.31258979847501        0.70714963650662        2.65394534688333
C           -5.46208302159766       -0.05189808922199        2.45160315412322
C           -5.43183318521652       -1.20130730908698        1.68576280499295
C           -4.23634707715982       -1.56717393933031        1.08427987791899
C           -3.83674179689002       -2.67325264854150        0.25869056443585
C           -4.50718738980896       -3.77681636345186       -0.24897951078592
C           -3.81264100627695       -4.66373584300571       -1.04842902524419
C           -2.46915720571686       -4.45645252462268       -1.35007917483272
C           -1.78061329938049       -3.36330747810260       -0.85872165363376
C           -2.47060462618435       -2.47722715196183       -0.04528599179409
C           -0.82837401878633        0.65194859295292       -0.26617373106993
N           -2.03402722849503        1.30553085271286       -0.55170136495514
C           -2.47105991364620        2.47579836851577        0.04190617901918
C           -1.78110154029690        3.36213377621790        0.85508119816508
C           -2.46977890198601        4.45520907067257        1.34641537674663
C           -3.81337319069628        4.66214913966001        1.04502829723261
C           -4.50790284242384        3.77493370787534        0.24590088807262
C           -3.83731654379159        2.67144513268620       -0.26175876518927
C           -4.23685539487097        1.56517296377565       -1.08711497945949
C           -5.43243262913000        1.19888992218278       -1.68817354848379
C           -5.46258549206892        0.04940039062697       -2.45388898568915
C           -4.31291800711571       -0.70928848260745       -2.65658294070293
C           -3.11047786429472       -0.36120611178368       -2.07240702566395
C           -3.09175490875428        0.75545832107489       -1.25085566876346
C            0.37961075867580        1.29910958314968       -0.49902748725051
C            1.59836822842037        0.67993460921441       -0.25105666769903
N            2.76736458581883        1.27784130424544       -0.47089841104032
C            3.92567206758188        0.66898160471629       -0.25116464694604
C            5.16639919053916        1.32258491919758       -0.49908426989888
C            5.20690706283093        2.63613674455299       -0.99807870820018
C            6.42201771790469        3.23132532933770       -1.22200737717499
C            7.58448441458339        2.49953214967763       -0.94175085678736
N            7.57147913294625        1.27749617255557       -0.47826422011995
C            6.40329606766270        0.67607535418794       -0.25262681213326
H            6.49216524013460       -4.23491421925376        1.60620530336689
H            8.56416733357860       -2.92537813492475        1.11223776928194
H            4.27271557163928       -3.14112337626634        1.18938453176265
H            0.38255593963177       -2.29351988575719        0.91517098889156
H           -2.21666300408685        0.93670252782235        2.25275999347534
H           -4.35841405308772        1.58496000798838        3.28095274577275
H           -6.38556452707873        0.25636596554012        2.91843963964677
H           -6.31655586858307       -1.80605532415932        1.55689328902939
H           -5.55141425711138       -3.93217136139388       -0.02429058796419
H           -4.31603195205060       -5.52948549879310       -1.45231278028513
H           -1.95433181226549       -5.16289092364557       -1.98443660475299
H           -0.74278354625061       -3.20246493394301       -1.11043891518704
H           -0.74319455126228        3.20155765906260        1.10664251018407
H           -1.95497322788861        5.16183912836449        1.98057568541848
H           -4.31686400979611        5.52785329811983        1.44888362177505
H           -5.55221504291657        3.93001313265932        0.02141838495019
H           -6.31728874314568        1.80339416479918       -1.55907807341816
H           -6.38613143577559       -0.25919641082209       -2.92038043566395
H           -4.35867793928381       -1.58716165121068       -3.28350807750792
H           -2.21678691746988       -0.93816015397203       -2.25606601261053
H            0.38205618013627        2.29280951400249       -0.91826574007651
H            4.27180171911269        3.14194017368646       -1.19100101626601
H            6.49093512586830        4.23800320968901       -1.60355504967801
H            8.56331066493109        2.93158691942055       -1.10297417402302

 projected vibrational frequencies (cm⁻¹)
eigval :       -0.00    -0.00    -0.00    -0.00     0.00     0.00
eigval :       16.61    20.14    20.90    33.99    37.51    46.67
eigval :       61.52    70.86    84.40    96.53   102.13   107.95
eigval :      115.92   124.62   137.38   145.68   146.52   150.01
eigval :      164.77   194.57   207.72   222.93   239.94   242.22
eigval :      259.06   275.14   275.84   281.45   297.34   312.73
eigval :      339.37   363.19   392.06   394.56   400.17   400.40
eigval :      410.91   418.51   422.77   424.12   432.33   435.14
eigval :      438.21   444.41   454.55   487.97   516.84   518.62
eigval :      520.31   523.57   527.98   541.02   541.46   543.16
eigval :      549.28   565.53   567.70   581.51   587.27   588.02
eigval :      594.63   596.97   623.10   626.51   658.28   666.52
eigval :      671.21   675.36   678.37   692.30   696.08   703.59
eigval :      707.43   709.33   712.95   744.81   755.82   756.73
eigval :      769.33   771.01   781.12   781.50   782.72   787.72
eigval :      794.72   812.15   827.23   843.16   857.99   872.54
eigval :      873.14   876.83   877.10   895.31   896.25   902.82
eigval :      903.01   904.93   905.09   906.60   906.71   917.81
eigval :      918.04   918.60   922.11   922.13   923.50   923.76
eigval :      957.47  1012.12  1012.96  1031.91  1056.39  1069.44
eigval :     1070.06  1072.05  1073.79  1081.10  1084.30  1095.03
eigval :     1114.18  1127.14  1133.69  1149.24  1149.98  1164.00
eigval :     1174.70  1179.12  1179.94  1180.47  1181.01  1187.37
eigval :     1197.62  1214.35  1230.38  1233.72  1235.60  1236.15
eigval :     1238.17  1240.98  1255.67  1280.78  1280.94  1292.95
eigval :     1293.64  1298.13  1299.32  1305.73  1309.78  1316.54
eigval :     1335.84  1343.37  1357.86  1359.39  1359.63  1361.08
eigval :     1363.65  1383.44  1389.97  1403.93  1412.50  1423.57
eigval :     1425.61  1427.28  1433.68  1445.37  1458.39  1469.56
eigval :     1473.27  1479.10  1487.83  1488.02  1498.25  1504.52
eigval :     1506.88  1532.67  1558.31  1572.14  1573.82  1574.26
eigval :     1588.36  1589.98  1595.92  1596.47  1607.42  1612.11
eigval :     3058.96  3059.14  3076.34  3076.61  3076.62  3076.75
eigval :     3079.80  3079.94  3081.80  3082.05  3084.23  3084.65
eigval :     3089.19  3089.33  3091.94  3092.03  3095.96  3096.11
eigval :     3096.57  3096.90  3098.42  3099.14  3104.11  3104.69

   temp. (K)  partition function   enthalpy   heat capacity  entropy
                                   cal/mol     cal/K/mol   cal/K/mol   J/K/mol
 298.15  VIB  0.167E+15            20253.246    134.345    122.452
         ROT  0.336E+08              888.752      2.981     37.418
         INT  0.561E+22            21141.999    137.326    159.870
         TR   0.147E+29             1481.254      4.968     45.101
         TOT                       22623.2528   142.2944   204.9705   857.5968

       T/K    H(0)-H(T)+PV         H(T)/Eh          T*S/Eh         G(T)/Eh
   ------------------------------------------------------------------------
    298.15    0.360524E-01    0.567849E+00    0.973881E-01    0.470461E+00
   ------------------------------------------------------------------------

         :::::::::::::::::::::::::::::::::::::::::::::::::::::
         ::                  THERMODYNAMIC                  ::
         :::::::::::::::::::::::::::::::::::::::::::::::::::::
         :: total free energy        -119.310811748707 Eh   ::
         ::.................................................::
         :: total energy             -119.781272392905 Eh   ::
         :: zero point energy           0.531796317005 Eh   ::
         :: G(RRHO) w/o ZPVE           -0.061335672807 Eh   ::
         :: G(RRHO) contrib.            0.470460644198 Eh   ::
         :::::::::::::::::::::::::::::::::::::::::::::::::::::

           -------------------------------------------------
          | TOTAL ENERGY             -119.781272392905 Eh   |
          | TOTAL ENTHALPY           -119.213423627786 Eh   |
          | TOTAL FREE ENERGY        -119.310811748707 Eh   |
          | GRADIENT NORM               0.000119848652 Eh/α |
           -------------------------------------------------

 * finished run on 2025/08/22 at 14:00:03.190
