   * xtb version 6.7.1 (edcfbbe) compiled by 'albert@albert-system' on 2024-07-22

   ID    Z sym.   atoms
    1    6 C      1-12, 14, 15, 17-20, 22, 23, 25-36
    2    7 N      13, 16, 21, 24, 37, 38
    3    1 H      39-58

          program call               : xtb data2507/gas/CPzPzC/CPzPzC_gas_S0_crest.xyz --gfn 2 --ohess vtight --parallel 40 --molden --ceasefiles --namespace data2507/gas/CPzPzC/CPzPzC_gas_S0_finalOpt
          :  Hamiltonian                  GFN2-xTB          :
 * total energy  :   -96.3222871 Eh     change       -0.2783295E-08 Eh
 * total energy  :   -96.3222885 Eh     change       -0.1451976E-05 Eh
 * total energy  :   -96.3222898 Eh     change       -0.1246837E-05 Eh
 * total energy  :   -96.3222920 Eh     change       -0.2185748E-05 Eh
 * total energy  :   -96.3222934 Eh     change       -0.1455705E-05 Eh
 * total energy  :   -96.3222939 Eh     change       -0.4719767E-06 Eh
 * total energy  :   -96.3222940 Eh     change       -0.7518011E-07 Eh
   *** GEOMETRY OPTIMIZATION CONVERGED AFTER 7 ITERATIONS ***

 final structure:
================
58
 xtb: 6.7.1 (edcfbbe)
C           -7.78403777423351        1.49264241100949        1.44402299704643
C           -6.68980840406369        2.25953974962388        1.83110966375453
C           -5.40624391297391        1.95140683101577        1.41649442707545
C           -5.23599536974831        0.85491818035470        0.58463830912232
C           -6.33704106181758        0.04551356409349        0.22709575003440
C           -7.61649660717568        0.37366865596287        0.65203152679561
C           -5.81364768662477       -1.05181280189815       -0.54137997248055
C           -6.40781344362764       -2.14309291824194       -1.16009600525050
C           -5.60168023739163       -3.03793296637357       -1.83588043589964
C           -4.22446261788029       -2.84807576940779       -1.90322654474535
C           -3.61241725155132       -1.76708626940159       -1.29502699211732
C           -4.41622061253810       -0.87312392977948       -0.60692472276157
N           -4.07475434266306        0.30386120840866        0.05456211901023
C           -2.80437055346778        0.83808280890990        0.11765746833260
C           -2.56577389801808        2.22407982798782        0.10266225521526
N           -1.34669454698892        2.71039584278771        0.21059014630224
C           -0.33899596300382        1.85581515363219        0.30345859203415
C           -0.55262696561695        0.47928365672297        0.22078042232728
C            0.55280996196593       -0.47925225804281        0.22313552522585
C            0.33957138203868       -1.85535591926229        0.31368027859115
N            1.34732056107136       -2.71013682698093        0.22313183737490
C            2.56614843505561       -2.22422814023318        0.11086892667010
C            2.80459576470087       -0.83811961664102        0.11986429411994
N            4.07486017769027       -0.30398162093912        0.05423815153586
C            5.23624329503954       -0.85307298058001        0.58604526307201
C            5.40644516651727       -1.94596221061953        1.42262102589320
C            6.69000026927167       -2.25233291723750        1.83855537925845
C            7.78424208127929       -1.48721863010207        1.44796433168312
C            7.61673094798961       -0.37165179406642        0.65116733420566
C            6.33723777161870       -0.04513419111540        0.22506592504123
C            5.81364693710870        1.04935421490427       -0.54732827167396
C            6.40756117064523        2.13859676423634       -1.16987191154771
C            5.60107789833557        3.03175856044543       -1.84746967752018
C            4.22377636580783        2.84194039964151       -1.91329052471642
C            3.61199055132359        1.76278812564813       -1.30156991958959
C            4.41613437804366        0.87071529598590       -0.61142535811933
N            1.78659811076260        0.01479797967255        0.13958658859125
N           -1.78654451972971       -0.01502519902977        0.14077600926279
H           -8.77084119514645        1.76843151824259        1.78409349068750
H           -6.84201024108823        3.11207022846594        2.47600431204222
H           -4.57052272117911        2.54104935214881        1.75957933492031
H           -8.45811811182877       -0.24231643811589        0.37444485715733
H           -7.47699982181405       -2.28325450057346       -1.11237096628524
H           -6.04208270869474       -3.89609755623610       -2.32122739522803
H           -3.61799310429656       -3.56113925193369       -2.44153081024167
H           -2.54536653671560       -1.62621831684991       -1.34938089417105
H           -3.36013379114844        2.94158225371841       -0.04030291082630
H            0.65154839816326        2.26793518380560        0.41837108436909
H           -0.65062950821566       -2.26708956153024        0.43283199860561
H            3.36031112522673       -2.94222075846321       -0.03080111518273
H            4.57061727830106       -2.53384230402688        1.76847143716091
H            6.84214197244013       -3.10162156424845        2.48772649243506
H            8.77105277175289       -1.76152463067249        1.78921866737539
H            8.45845383860624        0.24280921286483        0.37053509830066
H            7.47680446892398        2.27877957751205       -1.12329302406054
H            6.04130834226173        3.88839267158567       -2.33566922974160
H            3.61700938678963        3.55379491392105       -2.45286469120416
H            2.54488673301073        1.62191251589421       -1.35475755096662

          :  Hamiltonian                  GFN2-xTB          :
         :: gradient norm              0.000114723926 Eh/a0 ::
         :: HOMO-LUMO gap              1.616111566369 eV    ::
         :: SCC energy               -98.024852249519 Eh    ::
         :: -> dispersion             -0.079917839471 Eh    ::
         :: repulsion energy           1.702558272256 Eh    ::

    * Orbital Energies and Occupations

         #    Occupation            Energy/Eh            Energy/eV
      -------------------------------------------------------------
         1        2.0000           -0.6955911             -18.9280
       ...           ...                  ...                  ...
        77        2.0000           -0.4254469             -11.5770
        78        2.0000           -0.4252804             -11.5725
        79        2.0000           -0.4230746             -11.5124
        80        2.0000           -0.4214567             -11.4684
        81        2.0000           -0.4181140             -11.3775
        82        2.0000           -0.4117752             -11.2050
        83        2.0000           -0.4116511             -11.2016
        84        2.0000           -0.3855455             -10.4912
        85        2.0000           -0.3855395             -10.4911
        86        2.0000           -0.3822356             -10.4012
        87        2.0000           -0.3778438             -10.2817
        88        2.0000           -0.3694555             -10.0534
        89        2.0000           -0.3587991              -9.7634 (HOMO)
        90                         -0.2994081              -8.1473 (LUMO)
        91                         -0.2768882              -7.5345
        92                         -0.2689579              -7.3187
        93                         -0.2515790              -6.8458
        94                         -0.2495710              -6.7912
        95                         -0.2341872              -6.3726
        96                         -0.2284494              -6.2164
        97                         -0.2281063              -6.2071
        98                         -0.2023100              -5.5051
        99                         -0.1932167              -5.2577
       100                         -0.1923833              -5.2350
       ...                                ...                  ...
       172                          0.7387071              20.1012
      -------------------------------------------------------------
                  HL-Gap            0.0593910 Eh            1.6161 eV

     #   Z          covCN         q      C6AA      α(0)
     1   6 C        2.920    -0.037    28.929     8.820
     2   6 C        2.924    -0.032    28.788     8.799
     3   6 C        2.910    -0.050    29.240     8.867
     4   6 C        3.059     0.046    26.919     8.508
     5   6 C        3.066    -0.011    28.227     8.712
     6   6 C        2.913    -0.031    28.783     8.797
     7   6 C        3.064    -0.013    28.270     8.719
     8   6 C        2.913    -0.032    28.797     8.800
     9   6 C        2.920    -0.037    28.924     8.819
    10   6 C        2.925    -0.031    28.773     8.797
    11   6 C        2.910    -0.045    29.118     8.848
    12   6 C        3.064     0.053    26.756     8.482
    13   7 N        2.803    -0.041    22.036     6.972
    14   6 C        2.888     0.145    24.843     8.172
    15   6 C        2.906     0.034    27.233     8.557
    16   7 N        1.839    -0.199    26.155     7.579
    17   6 C        2.907     0.043    27.036     8.526
    18   6 C        2.956     0.083    26.147     8.387
    19   6 C        2.956     0.083    26.147     8.387
    20   6 C        2.907     0.043    27.036     8.526
    21   7 N        1.839    -0.199    26.154     7.579
    22   6 C        2.906     0.034    27.233     8.557
    23   6 C        2.888     0.145    24.843     8.172
    24   7 N        2.803    -0.041    22.035     6.972
    25   6 C        3.059     0.046    26.919     8.508
    26   6 C        2.910    -0.050    29.240     8.867
    27   6 C        2.924    -0.032    28.788     8.799
    28   6 C        2.920    -0.037    28.929     8.820
    29   6 C        2.913    -0.031    28.783     8.797
    30   6 C        3.066    -0.011    28.227     8.712
    31   6 C        3.064    -0.013    28.270     8.719
    32   6 C        2.913    -0.032    28.797     8.800
    33   6 C        2.920    -0.037    28.924     8.819
    34   6 C        2.925    -0.031    28.773     8.797
    35   6 C        2.910    -0.045    29.118     8.848
    36   6 C        3.064     0.053    26.756     8.482
    37   7 N        1.856    -0.247    27.301     7.744
    38   7 N        1.856    -0.247    27.301     7.744
    39   1 H        0.926     0.034     2.533     2.489
    40   1 H        0.926     0.035     2.515     2.480
    41   1 H        0.926     0.032     2.562     2.503
    42   1 H        0.926     0.036     2.498     2.471
    43   1 H        0.926     0.035     2.519     2.482
    44   1 H        0.926     0.033     2.542     2.493
    45   1 H        0.926     0.036     2.508     2.476
    46   1 H        0.926     0.048     2.351     2.398
    47   1 H        0.926     0.052     2.297     2.370
    48   1 H        0.926     0.064     2.156     2.296
    49   1 H        0.926     0.064     2.156     2.296
    50   1 H        0.926     0.052     2.297     2.370
    51   1 H        0.926     0.032     2.562     2.503
    52   1 H        0.926     0.035     2.515     2.480
    53   1 H        0.926     0.034     2.533     2.489
    54   1 H        0.926     0.036     2.498     2.471
    55   1 H        0.926     0.035     2.519     2.482
    56   1 H        0.926     0.033     2.542     2.493
    57   1 H        0.926     0.036     2.508     2.476
    58   1 H        0.926     0.048     2.350     2.397

molecular dipole:
                 x           y           z       tot (Debye)
 q only:        0.001      -0.000      -0.128
   full:        0.001       0.000      -0.046       0.118

 projected vibrational frequencies (cm⁻¹)
eigval :       -0.00    -0.00    -0.00    -0.00     0.00     0.00
eigval :       11.36    15.50    23.27    35.94    44.19    56.45
eigval :       71.19    93.65    95.37   102.02   117.96   129.39
eigval :      138.55   143.86   181.83   195.54   209.62   220.65
eigval :      229.99   273.81   273.99   286.21   289.00   330.62
eigval :      333.93   346.70   368.31   393.65   394.52   407.38
eigval :      423.47   424.02   437.52   438.47   442.12   460.96
eigval :      501.41   516.62   517.49   533.83   540.33   540.40
eigval :      550.24   578.77   584.97   592.31   603.56   611.56
eigval :      620.67   637.48   659.45   673.62   675.36   680.87
eigval :      710.12   710.92   722.95   723.77   740.12   755.49
eigval :      759.01   772.00   772.05   782.37   782.46   829.69
eigval :      831.67   839.02   871.41   873.29   875.36   877.18
eigval :      893.56   893.96   896.20   896.53   905.60   906.05
eigval :      908.86   909.11   924.27   924.37   925.35   925.37
eigval :      952.16  1009.13  1012.86  1019.94  1022.37  1034.08
eigval :     1070.74  1070.92  1077.49  1077.63  1117.95  1132.41
eigval :     1142.44  1148.05  1149.62  1154.46  1159.29  1177.82
eigval :     1178.05  1181.27  1182.11  1187.72  1194.28  1224.75
eigval :     1231.73  1234.15  1244.28  1247.72  1257.78  1266.31
eigval :     1288.35  1291.52  1295.08  1300.78  1312.79  1353.50
eigval :     1355.13  1358.42  1359.09  1370.58  1382.44  1405.63
eigval :     1408.38  1422.14  1425.21  1430.45  1439.69  1454.26
eigval :     1473.15  1474.03  1485.13  1485.22  1502.22  1520.52
eigval :     1544.04  1561.17  1578.13  1578.30  1589.61  1589.82
eigval :     1598.72  1598.74  1611.55  1611.70  3078.48  3078.68
eigval :     3080.20  3080.22  3081.90  3081.91  3087.07  3087.10
eigval :     3088.50  3088.53  3095.46  3095.47  3095.60  3096.24
eigval :     3097.04  3097.16  3101.39  3101.43  3113.99  3114.06

   temp. (K)  partition function   enthalpy   heat capacity  entropy
                                   cal/mol     cal/K/mol   cal/K/mol   J/K/mol
 298.15  VIB  0.775E+12            16057.779    105.089     98.273
         ROT  0.217E+08              888.752      2.981     36.556
         INT  0.168E+20            16946.531    108.070    134.829
         TR   0.104E+29             1481.254      4.968     44.426
         TOT                       18427.7848   113.0379   179.2547   750.0016

       T/K    H(0)-H(T)+PV         H(T)/Eh          T*S/Eh         G(T)/Eh
   ------------------------------------------------------------------------
    298.15    0.293665E-01    0.461429E+00    0.851697E-01    0.376259E+00
   ------------------------------------------------------------------------

         :::::::::::::::::::::::::::::::::::::::::::::::::::::
         ::                  THERMODYNAMIC                  ::
         :::::::::::::::::::::::::::::::::::::::::::::::::::::
         :: total free energy         -95.946034793921 Eh   ::
         ::.................................................::
         :: total energy              -96.322293977261 Eh   ::
         :: zero point energy           0.432062320916 Eh   ::
         :: G(RRHO) w/o ZPVE           -0.055803137576 Eh   ::
         :: G(RRHO) contrib.            0.376259183340 Eh   ::
         :::::::::::::::::::::::::::::::::::::::::::::::::::::

           -------------------------------------------------
          | TOTAL ENERGY              -96.322293977261 Eh   |
          | TOTAL ENTHALPY            -95.860865111952 Eh   |
          | TOTAL FREE ENERGY         -95.946034793921 Eh   |
          | GRADIENT NORM               0.000114770778 Eh/α |
          | HOMO-LUMO GAP               1.616111172856 eV   |
           -------------------------------------------------

 * finished run on 2025/08/30 at 20:56:24.871
