   * xtb version 6.7.1 (edcfbbe) compiled by 'albert@albert-system' on 2024-07-22

   ID    Z sym.   atoms
    1    6 C      1-12, 14, 15, 17-20, 22, 23, 25-36
    2    7 N      13, 16, 21, 24, 37, 38
    3    1 H      39-58

          program call               : xtb data2507/gas/CPzPzC/CPzPzC_gas_S0_finalOpt.xtbopt.xyz --gfn 2 --spinpol --tblite --uhf 2 --ohess vtight --parallel 40 --molden --ceasefiles --namespace data2507/gas/CPzPzC/CPzPzC_gas_T1_preOpt
 * total energy  :   -96.2620768 Eh     change       -0.9180681E-08 Eh
 * total energy  :   -96.2667292 Eh     change       -0.4652332E-02 Eh
 * total energy  :   -96.2687380 Eh     change       -0.2008851E-02 Eh
 * total energy  :   -96.2690373 Eh     change       -0.2992475E-03 Eh
 * total energy  :   -96.2691927 Eh     change       -0.1554207E-03 Eh
 * total energy  :   -96.2692118 Eh     change       -0.1908508E-04 Eh
 * total energy  :   -96.2692398 Eh     change       -0.2802997E-04 Eh
 * total energy  :   -96.2692463 Eh     change       -0.6489203E-05 Eh
 * total energy  :   -96.2692566 Eh     change       -0.1035030E-04 Eh
 * total energy  :   -96.2692611 Eh     change       -0.4516778E-05 Eh
 * total energy  :   -96.2693685 Eh     change       -0.9591879E-06 Eh
 * total energy  :   -96.2693699 Eh     change       -0.1381720E-05 Eh
 * total energy  :   -96.2693712 Eh     change       -0.1274260E-05 Eh
 * total energy  :   -96.2693719 Eh     change       -0.6670578E-06 Eh
 * total energy  :   -96.2693723 Eh     change       -0.3955048E-06 Eh
 * total energy  :   -96.2693734 Eh     change       -0.1143425E-05 Eh
 * total energy  :   -96.2693735 Eh     change       -0.1500952E-06 Eh
 * total energy  :   -96.2693737 Eh     change       -0.1283616E-06 Eh
 * total energy  :   -96.2693737 Eh     change       -0.5299492E-07 Eh
   *** GEOMETRY OPTIMIZATION CONVERGED AFTER 43 ITERATIONS ***

 final structure:
================
58
 xtb: 6.7.1 (edcfbbe)
C           -7.75246324130441        1.43139632947099        1.63868818294108
C           -6.64067972671574        2.18044659827924        2.01166491419158
C           -5.37581607930040        1.88429975304678        1.53610310170281
C           -5.24468370612231        0.81791552524183        0.65916853684798
C           -6.36286879572728        0.02811907804946        0.30853591696249
C           -7.62277943742155        0.34434283908198        0.79617115120874
C           -5.87372034047955       -1.03321984596872       -0.53021549574649
C           -6.48781052754532       -2.09995205510161       -1.17144674324685
C           -5.70605343516692       -2.96041027850565       -1.91785132626369
C           -4.33283276462844       -2.76284071176941       -2.03309790482393
C           -3.70083774770524       -1.70528884281373       -1.40487792872351
C           -4.47976968727528       -0.84774748080022       -0.64566684108083
N           -4.10941740350793        0.28787377948100        0.06311869142887
C           -2.83057681172969        0.81236662608891        0.09387655198183
C           -2.60808439064320        2.19773502879639        0.05240001870336
N           -1.35735606833140        2.66429011423695        0.08876031341194
C           -0.35435946107356        1.85200885287381        0.12952569484251
C           -0.54927553908666        0.44120043675864        0.12646711661773
C            0.54935924715104       -0.44078494483500        0.12790693236810
C            0.35443981237499       -1.85155283008651        0.13625009246162
N            1.35739029497001       -2.66402301089936        0.09814430804138
C            2.60812052719412       -2.19757949089751        0.05964426506742
C            2.83063322004031       -0.81210341050827        0.09595795614184
N            4.10949083969456       -0.28775374834276        0.06296640279362
C            5.24480181157052       -0.81548361650496        0.66097753497798
C            5.37603156088349       -1.87861557641502        1.54183688458629
C            6.64091749895069       -2.17288204688200        2.01850087155361
C            7.75263206178212       -1.42510278644959        1.64277620040477
C            7.62285338492448       -0.34119422222431        0.79623110084127
C            6.36291771628892       -0.02690074236207        0.30741207848097
C            5.87367822517924        1.03127322785834       -0.53527132065630
C            6.48768013413289        2.09566222951031       -1.18046896230247
C            5.70585584731574        2.95325035490046       -1.93010004421352
C            4.33265398960854        2.75511944244731       -2.04463327122367
C            3.70074422140425        1.69987156199853       -1.41246486295920
C            4.47974429916484        0.84524573166078       -0.65004284151993
N            1.81720667810053        0.02959199669912        0.12706139757764
N           -1.81711356639799       -0.02913856565702        0.12778093322234
H           -8.72393515171141        1.69679628948404        2.02779054627207
H           -6.76498795198213        3.00886662886918        2.69297149080218
H           -4.52190603109405        2.45805068476031        1.86089683357930
H           -8.47884676201425       -0.25507948094060        0.52641944051465
H           -7.55338711196469       -2.24955615996588       -1.08613611118847
H           -6.16350042015752       -3.79797296405712       -2.42300139714742
H           -3.74767729934576       -3.44912585958928       -2.62690128049299
H           -2.63739190286447       -1.55246779470824       -1.49874928823102
H           -3.40646500808436        2.91080701805059       -0.05552330784402
H            0.65142084893833        2.24183793508102        0.17367293279622
H           -0.65133076243317       -2.24121403306566        0.18219294513440
H            3.40645532847407       -2.91106196084289       -0.04589068603967
H            4.52217564675473       -2.45125857820429        1.86872134325901
H            6.76529797129965       -2.99877186991965        2.70285989910840
H            8.72412187118475       -1.68895214030439        2.03288961593080
H            8.47886218009761        0.25732202678113        0.52428801889722
H            7.55324463952198        2.24566424225644       -1.09572577587226
H            6.16323844088185        3.78894113211114       -2.43839952523951
H            3.74744754060082        3.43911904549278       -2.64101829710592
H            2.63730992028074        1.54661365415419       -1.50575460672955

 projected vibrational frequencies (cm⁻¹)
eigval :       -0.00    -0.00     0.00     0.00     0.00     0.00
eigval :       14.68    16.18    23.20    34.30    43.61    61.70
eigval :       88.26    92.86    96.80   104.79   114.06   129.02
eigval :      141.07   147.51   182.93   206.85   214.99   218.28
eigval :      226.45   272.29   272.69   276.37   291.18   329.25
eigval :      329.62   351.58   372.50   389.51   394.86   395.22
eigval :      423.37   424.02   435.83   436.56   453.84   477.20
eigval :      513.40   514.95   519.54   520.72   540.03   540.11
eigval :      549.94   560.72   580.87   585.31   585.68   604.90
eigval :      612.93   620.64   629.56   660.10   661.84   672.03
eigval :      674.50   678.73   709.66   710.42   732.01   733.75
eigval :      745.64   754.82   757.42   772.35   773.16   783.10
eigval :      783.54   821.13   824.44   832.83   872.62   872.87
eigval :      876.91   877.21   894.20   895.11   904.14   904.15
eigval :      905.89   906.06   919.91   922.91   922.93   923.89
eigval :      923.98   957.01   989.02  1010.81  1012.46  1032.90
eigval :     1069.03  1069.48  1074.89  1075.01  1092.60  1116.52
eigval :     1120.18  1126.08  1131.75  1150.21  1150.27  1172.18
eigval :     1176.32  1179.21  1180.01  1181.14  1186.44  1220.25
eigval :     1220.85  1232.54  1232.76  1242.32  1251.92  1262.63
eigval :     1271.24  1292.00  1293.02  1297.55  1298.02  1307.59
eigval :     1313.02  1354.96  1356.25  1358.64  1359.12  1360.65
eigval :     1369.49  1417.34  1423.19  1424.05  1425.39  1444.42
eigval :     1458.35  1472.47  1473.11  1484.95  1485.01  1485.51
eigval :     1502.88  1551.02  1576.16  1576.22  1589.08  1589.21
eigval :     1596.72  1596.76  1610.04  1610.08  3076.50  3076.73
eigval :     3080.15  3080.16  3081.32  3081.33  3086.59  3086.60
eigval :     3088.10  3088.16  3094.75  3094.77  3096.44  3096.75
eigval :     3100.54  3100.77  3103.85  3103.89  3115.25  3116.13

   temp. (K)  partition function   enthalpy   heat capacity  entropy
                                   cal/mol     cal/K/mol   cal/K/mol   J/K/mol
 298.15  VIB  0.500E+12            16174.654    106.686     98.229
         ROT  0.220E+08              888.752      2.981     36.579
         INT  0.110E+20            17063.406    109.667    134.808
         TR   0.104E+29             1481.254      4.968     44.426
         TOT                       18544.6600   114.6349   179.2338   749.9142

       T/K    H(0)-H(T)+PV         H(T)/Eh          T*S/Eh         G(T)/Eh
   ------------------------------------------------------------------------
    298.15    0.295528E-01    0.458659E+00    0.851598E-01    0.373500E+00
   ------------------------------------------------------------------------

         :::::::::::::::::::::::::::::::::::::::::::::::::::::
         ::                  THERMODYNAMIC                  ::
         :::::::::::::::::::::::::::::::::::::::::::::::::::::
         :: total free energy         -95.895874035018 Eh   ::
         ::.................................................::
         :: total energy              -96.269373774352 Eh   ::
         :: zero point energy           0.429106699857 Eh   ::
         :: G(RRHO) w/o ZPVE           -0.055606960522 Eh   ::
         :: G(RRHO) contrib.            0.373499739334 Eh   ::
         :::::::::::::::::::::::::::::::::::::::::::::::::::::

           -------------------------------------------------
          | TOTAL ENERGY              -96.269373774352 Eh   |
          | TOTAL ENTHALPY            -95.810714277702 Eh   |
          | TOTAL FREE ENERGY         -95.895874035018 Eh   |
          | GRADIENT NORM               0.000063443565 Eh/α |
           -------------------------------------------------

 * finished run on 2025/08/30 at 20:56:30.267
