   * xtb version 6.7.1 (edcfbbe) compiled by 'albert@albert-system' on 2024-07-22

   ID    Z sym.   atoms
    1    6 C      1-12, 14, 15, 17-20, 22, 23, 25-36
    2    7 N      13, 16, 21, 24, 37, 38
    3    1 H      39-58

          program call               : xtb data2507/gas/CPzPzC/CPzPzC.xyz --gfn 2 --ohess vtight --parallel 40 --molden --ceasefiles --namespace data2507/gas/CPzPzC/CPzPzC_gas_S0_preOpt
          :  Hamiltonian                  GFN2-xTB          :
 * total energy  :   -96.2959691 Eh     change       -0.3332033E-08 Eh
 * total energy  :   -96.3143700 Eh     change       -0.1840098E-01 Eh
 * total energy  :   -96.3192139 Eh     change       -0.4843873E-02 Eh
 * total energy  :   -96.3203135 Eh     change       -0.1099598E-02 Eh
 * total energy  :   -96.3212029 Eh     change       -0.8894045E-03 Eh
 * total energy  :   -96.3215221 Eh     change       -0.3191888E-03 Eh
 * total energy  :   -96.3216800 Eh     change       -0.1579018E-03 Eh
 * total energy  :   -96.3217455 Eh     change       -0.6543818E-04 Eh
 * total energy  :   -96.3217958 Eh     change       -0.5039081E-04 Eh
 * total energy  :   -96.3218205 Eh     change       -0.2464546E-04 Eh
 * total energy  :   -96.3220142 Eh     change       -0.8010140E-06 Eh
 * total energy  :   -96.3220153 Eh     change       -0.1105808E-05 Eh
 * total energy  :   -96.3220163 Eh     change       -0.1034226E-05 Eh
 * total energy  :   -96.3220170 Eh     change       -0.6755071E-06 Eh
 * total energy  :   -96.3220175 Eh     change       -0.4873013E-06 Eh
 * total energy  :   -96.3220179 Eh     change       -0.4443758E-06 Eh
 * total energy  :   -96.3220183 Eh     change       -0.3513249E-06 Eh
 * total energy  :   -96.3220185 Eh     change       -0.1895838E-06 Eh
 * total energy  :   -96.3220185 Eh     change       -0.7514484E-07 Eh
   *** GEOMETRY OPTIMIZATION CONVERGED AFTER 30 ITERATIONS ***

 final structure:
================
58
 xtb: 6.7.1 (edcfbbe)
C           -7.72670257495591       -2.06008995550968       -0.46116341157228
C           -6.61567031409016       -2.89353143850717       -0.38104314740330
C           -5.34899380174353       -2.39089434128271       -0.14195033243308
C           -5.21377925038048       -1.02169924243034        0.03174613492810
C           -6.33076342265949       -0.16630332302234       -0.09504534716325
C           -7.59288947456957       -0.69149189946373       -0.33298027571803
C           -5.84021895382495        1.17937930653171        0.03568476384870
C           -6.46009283109344        2.42111658476872        0.00917416323869
C           -5.68215991301963        3.55049304922642        0.17225342823414
C           -4.30792426705478        3.44890406798338        0.36893050462895
C           -3.67077383774436        2.22178899889110        0.39978331973865
C           -4.44536378165601        1.08739070705041        0.22229628112230
N           -4.07481056285657       -0.25419565354939        0.24621670096394
C           -2.79753142831061       -0.71929335876996        0.48565887590614
C           -2.54771560389590       -1.89492874191444        1.21540833925425
N           -1.32028170942689       -2.32372091118506        1.42551904960739
C           -0.31764634323588       -1.60829858070828        0.93760583731515
C           -0.54801038359678       -0.41536671132232        0.25138966525976
C            0.54802900812360        0.41560712242988       -0.25113863586450
C            0.31769079892208        1.60860633784648       -0.93724115609474
N            1.32033633222596        2.32397844550569       -1.42520834795336
C            2.54775891267950        1.89508939575876       -1.21522090033363
C            2.79755441759406        0.71941757963101       -0.48552469659257
N            4.07481507104531        0.25423155879905       -0.24616132474220
C            4.44529346598408       -1.08737780052761       -0.22235336071086
C            3.67063016050162       -2.22172007266333       -0.39987877837709
C            4.30771831440522       -3.44887203957550       -0.36917502720601
C            5.68195190061439       -3.55055605650144       -0.17253220010354
C            6.45995904974966       -2.42123414479783       -0.00942660270345
C            5.84015534325990       -1.17945944136064       -0.03583867309579
C            6.33078708878633        0.16618670525653        0.09494381548069
C            7.59295320738057        0.69128066388129        0.33286556830336
C            7.72684665502510        2.05985785059147        0.46117798358641
C            6.61586090275456        2.89337124518826        0.38115316348060
C            5.34915209652379        2.39083324931776        0.14202452148670
C            5.21384785109995        1.02165759288458       -0.03174567603083
N            1.78858779171001       -0.01600519707373       -0.03173599077604
N           -1.78857967972456        0.01616986137121        0.03189582846027
H           -8.69960170714896       -2.49087832868573       -0.64390423585431
H           -6.74100536070928       -3.95758176931683       -0.51511107868508
H           -4.49857394554057       -3.05432454805040       -0.11896055246422
H           -8.44707481380520       -0.03820510115301       -0.42469239380166
H           -7.52729331615831        2.49645712473338       -0.13396829628954
H           -6.14283855966343        4.52683927058306        0.15078731680876
H           -3.72459136164128        4.34818316188525        0.49966480895428
H           -2.60658044099838        2.14850302878150        0.55389143024583
H           -3.34255677341178       -2.46811275537180        1.66925538724692
H            0.68192362103945       -1.97233382347842        1.11759364528489
H           -0.68187360349256        1.97260287099405       -1.11732637722896
H            3.34261447508382        2.46835030691237       -1.66894792137929
H            2.60642243432166       -2.14837084551517       -0.55386025165073
H            3.72431766720743       -4.34811351460114       -0.49986813139336
H            6.14257916722216       -4.52692828247210       -0.15117720776116
H            7.52717504962416       -2.49663789184706        0.13356085616620
H            8.44712253836940        0.03794517132475        0.42436786600100
H            8.69979489821645        2.49058452484270        0.64379583604002
H            6.74126344763611        3.95740452767113        0.51528841292784
H            4.49875534930298        3.05429746001539        0.11924782686261

          :  Hamiltonian                  GFN2-xTB          :
         :: gradient norm              0.000049771891 Eh/a0 ::
         :: HOMO-LUMO gap              1.591814662819 eV    ::
         :: SCC energy               -98.024431391937 Eh    ::
         :: -> dispersion             -0.079941536452 Eh    ::
         :: repulsion energy           1.702412844317 Eh    ::

    * Orbital Energies and Occupations

         #    Occupation            Energy/Eh            Energy/eV
      -------------------------------------------------------------
         1        2.0000           -0.6958546             -18.9352
       ...           ...                  ...                  ...
        77        2.0000           -0.4255300             -11.5793
        78        2.0000           -0.4254305             -11.5766
        79        2.0000           -0.4227299             -11.5031
        80        2.0000           -0.4223749             -11.4934
        81        2.0000           -0.4189949             -11.4014
        82        2.0000           -0.4119328             -11.2093
        83        2.0000           -0.4118351             -11.2066
        84        2.0000           -0.3856811             -10.4949
        85        2.0000           -0.3856800             -10.4949
        86        2.0000           -0.3820191             -10.3953
        87        2.0000           -0.3772183             -10.2646
        88        2.0000           -0.3707222             -10.0879
        89        2.0000           -0.3587389              -9.7618 (HOMO)
        90                         -0.3002408              -8.1700 (LUMO)
        91                         -0.2773510              -7.5471
        92                         -0.2692583              -7.3269
        93                         -0.2516945              -6.8490
        94                         -0.2498123              -6.7977
        95                         -0.2340876              -6.3698
        96                         -0.2285834              -6.2201
        97                         -0.2282567              -6.2112
        98                         -0.2024780              -5.5097
        99                         -0.1933572              -5.2615
       100                         -0.1925390              -5.2393
       ...                                ...                  ...
       172                          0.7386976              20.1010
      -------------------------------------------------------------
                  HL-Gap            0.0584981 Eh            1.5918 eV

     #   Z          covCN         q      C6AA      α(0)
     1   6 C        2.920    -0.037    28.930     8.820
     2   6 C        2.924    -0.032    28.787     8.799
     3   6 C        2.910    -0.050    29.240     8.867
     4   6 C        3.060     0.046    26.914     8.508
     5   6 C        3.066    -0.011    28.228     8.712
     6   6 C        2.913    -0.031    28.781     8.797
     7   6 C        3.064    -0.013    28.269     8.719
     8   6 C        2.913    -0.032    28.794     8.799
     9   6 C        2.920    -0.037    28.925     8.820
    10   6 C        2.925    -0.031    28.774     8.797
    11   6 C        2.910    -0.045    29.110     8.847
    12   6 C        3.065     0.053    26.750     8.481
    13   7 N        2.803    -0.042    22.043     6.973
    14   6 C        2.888     0.145    24.840     8.171
    15   6 C        2.907     0.035    27.220     8.555
    16   7 N        1.839    -0.200    26.165     7.581
    17   6 C        2.908     0.043    27.031     8.525
    18   6 C        2.956     0.083    26.141     8.386
    19   6 C        2.956     0.083    26.141     8.386
    20   6 C        2.908     0.043    27.031     8.525
    21   7 N        1.839    -0.200    26.165     7.581
    22   6 C        2.907     0.035    27.220     8.555
    23   6 C        2.888     0.145    24.840     8.171
    24   7 N        2.803    -0.042    22.043     6.973
    25   6 C        3.065     0.053    26.750     8.481
    26   6 C        2.910    -0.045    29.110     8.847
    27   6 C        2.925    -0.031    28.774     8.797
    28   6 C        2.920    -0.037    28.925     8.820
    29   6 C        2.913    -0.032    28.794     8.799
    30   6 C        3.064    -0.013    28.269     8.719
    31   6 C        3.066    -0.011    28.228     8.712
    32   6 C        2.913    -0.031    28.781     8.797
    33   6 C        2.920    -0.037    28.930     8.820
    34   6 C        2.924    -0.032    28.787     8.799
    35   6 C        2.910    -0.050    29.240     8.867
    36   6 C        3.060     0.046    26.914     8.508
    37   7 N        1.856    -0.247    27.291     7.743
    38   7 N        1.856    -0.247    27.291     7.743
    39   1 H        0.926     0.034     2.533     2.489
    40   1 H        0.926     0.035     2.515     2.480
    41   1 H        0.926     0.031     2.568     2.506
    42   1 H        0.926     0.036     2.497     2.471
    43   1 H        0.926     0.035     2.517     2.481
    44   1 H        0.926     0.033     2.541     2.493
    45   1 H        0.926     0.035     2.510     2.477
    46   1 H        0.926     0.045     2.379     2.412
    47   1 H        0.926     0.052     2.294     2.369
    48   1 H        0.926     0.065     2.146     2.291
    49   1 H        0.926     0.065     2.146     2.291
    50   1 H        0.926     0.052     2.294     2.369
    51   1 H        0.926     0.045     2.379     2.412
    52   1 H        0.926     0.035     2.510     2.477
    53   1 H        0.926     0.033     2.541     2.493
    54   1 H        0.926     0.035     2.517     2.481
    55   1 H        0.926     0.036     2.497     2.471
    56   1 H        0.926     0.034     2.533     2.489
    57   1 H        0.926     0.035     2.515     2.480
    58   1 H        0.926     0.031     2.568     2.506

molecular dipole:
                 x           y           z       tot (Debye)
 q only:        0.000      -0.000      -0.000
   full:        0.000      -0.000      -0.000       0.000

 projected vibrational frequencies (cm⁻¹)
eigval :       -0.00    -0.00     0.00     0.00     0.00     0.00
eigval :       10.47    15.92    23.85    36.07    43.36    61.21
eigval :       67.03    88.96    97.71   104.09   117.02   126.62
eigval :      138.97   141.12   187.85   187.88   207.04   212.80
eigval :      238.45   273.84   274.04   274.64   295.07   330.55
eigval :      335.73   349.40   367.65   394.08   394.62   407.19
eigval :      423.15   423.89   437.34   438.46   439.53   474.73
eigval :      489.41   516.93   517.35   534.04   540.44   540.46
eigval :      544.45   582.21   584.62   595.90   600.35   615.89
eigval :      617.21   637.84   660.73   673.78   675.14   681.12
eigval :      710.01   710.84   722.74   725.51   739.11   755.52
eigval :      758.84   771.81   771.86   782.23   782.37   829.85
eigval :      831.38   839.49   871.46   873.30   874.69   876.53
eigval :      893.73   894.36   896.07   896.46   905.13   905.60
eigval :      908.56   908.77   923.88   924.00   925.13   925.15
eigval :      952.49  1009.22  1012.95  1020.41  1022.60  1034.01
eigval :     1070.42  1070.61  1077.26  1077.41  1117.69  1132.38
eigval :     1142.39  1148.06  1149.99  1155.01  1159.92  1177.94
eigval :     1178.18  1181.26  1182.11  1187.99  1194.15  1224.67
eigval :     1231.84  1234.16  1244.70  1247.00  1256.22  1266.03
eigval :     1288.98  1291.85  1294.94  1300.64  1312.70  1353.90
eigval :     1355.54  1358.38  1359.05  1370.01  1382.64  1405.42
eigval :     1408.04  1422.44  1425.31  1430.44  1438.87  1453.40
eigval :     1473.30  1474.17  1485.21  1485.30  1503.22  1519.45
eigval :     1546.49  1563.28  1578.10  1578.30  1589.86  1590.07
eigval :     1599.02  1599.04  1611.72  1611.88  3078.81  3078.99
eigval :     3080.26  3080.27  3081.83  3081.84  3086.98  3086.99
eigval :     3088.40  3088.41  3095.34  3095.38  3096.66  3096.93
eigval :     3097.17  3097.49  3101.23  3101.26  3112.14  3112.22

   temp. (K)  partition function   enthalpy   heat capacity  entropy
                                   cal/mol     cal/K/mol   cal/K/mol   J/K/mol
 298.15  VIB  0.841E+12            16071.138    105.118     98.478
         ROT  0.437E+08              888.752      2.981     37.942
         INT  0.367E+20            16959.891    108.099    136.419
         TR   0.104E+29             1481.254      4.968     44.426
         TOT                       18441.1447   113.0670   180.8456   756.6578

       T/K    H(0)-H(T)+PV         H(T)/Eh          T*S/Eh         G(T)/Eh
   ------------------------------------------------------------------------
    298.15    0.293878E-01    0.461422E+00    0.859256E-01    0.375497E+00
   ------------------------------------------------------------------------

         :::::::::::::::::::::::::::::::::::::::::::::::::::::
         ::                  THERMODYNAMIC                  ::
         :::::::::::::::::::::::::::::::::::::::::::::::::::::
         :: total free energy         -95.946521735369 Eh   ::
         ::.................................................::
         :: total energy              -96.322018547503 Eh   ::
         :: zero point energy           0.432034534085 Eh   ::
         :: G(RRHO) w/o ZPVE           -0.056537721951 Eh   ::
         :: G(RRHO) contrib.            0.375496812134 Eh   ::
         :::::::::::::::::::::::::::::::::::::::::::::::::::::

           -------------------------------------------------
          | TOTAL ENERGY              -96.322018547503 Eh   |
          | TOTAL ENTHALPY            -95.860596178688 Eh   |
          | TOTAL FREE ENERGY         -95.946521735369 Eh   |
          | GRADIENT NORM               0.000049841065 Eh/α |
          | HOMO-LUMO GAP               1.591814867797 eV   |
           -------------------------------------------------

 * finished run on 2025/08/30 at 20:54:00.116
