   * xtb version 6.7.1 (edcfbbe) compiled by 'albert@albert-system' on 2024-07-22

   ID    Z sym.   atoms
    1    6 C      1-12, 14, 15, 17-20, 22, 23, 25-36
    2    7 N      13, 16, 21, 24, 37, 38
    3    1 H      39-58

          program call               : xtb data2507/gas/CPzPzC/CPzPzC_gas_T1_crest.xyz --gfn 2 --spinpol --tblite --uhf 2 --ohess vtight --parallel 40 --molden --ceasefiles --namespace data2507/gas/CPzPzC/CPzPzC_gas_T1_finalOpt
 * total energy  :   -96.2694283 Eh     change        0.1209186E-07 Eh
 * total energy  :   -96.2694437 Eh     change       -0.1535922E-04 Eh
 * total energy  :   -96.2694533 Eh     change       -0.9675754E-05 Eh
 * total energy  :   -96.2694571 Eh     change       -0.3720519E-05 Eh
 * total energy  :   -96.2694615 Eh     change       -0.4445875E-05 Eh
 * total energy  :   -96.2694668 Eh     change       -0.5293385E-05 Eh
 * total energy  :   -96.2694737 Eh     change       -0.6862215E-05 Eh
 * total energy  :   -96.2694818 Eh     change       -0.8105664E-05 Eh
 * total energy  :   -96.2694890 Eh     change       -0.7238991E-05 Eh
 * total energy  :   -96.2694931 Eh     change       -0.4107907E-05 Eh
 * total energy  :   -96.2695297 Eh     change       -0.4320446E-06 Eh
 * total energy  :   -96.2695301 Eh     change       -0.3405758E-06 Eh
 * total energy  :   -96.2695303 Eh     change       -0.2424573E-06 Eh
 * total energy  :   -96.2695305 Eh     change       -0.1801937E-06 Eh
 * total energy  :   -96.2695307 Eh     change       -0.1918623E-06 Eh
 * total energy  :   -96.2695309 Eh     change       -0.1618880E-06 Eh
 * total energy  :   -96.2695311 Eh     change       -0.2097873E-06 Eh
 * total energy  :   -96.2695312 Eh     change       -0.1506782E-06 Eh
 * total energy  :   -96.2695312 Eh     change       -0.1652324E-08 Eh
   *** GEOMETRY OPTIMIZATION CONVERGED AFTER 44 ITERATIONS ***

 final structure:
================
58
 xtb: 6.7.1 (edcfbbe)
C           -5.74025709506575        3.54374238146029        0.20213522571634
C           -4.36663965547559        3.44731691948316        0.40669921376448
C           -3.72340593824105        2.22315214346462        0.42064825928580
C           -4.49125603467329        1.08887901758892        0.21488026276307
C           -5.88577053517676        1.17467416306798        0.01788251819600
C           -6.51131091431742        2.41351965561172        0.01027696574975
C           -6.36265992229605       -0.17241509448381       -0.14730933739122
C           -7.61768758136650       -0.70748505372123       -0.39956907960342
C           -7.73505825962865       -2.07537450695498       -0.55312815498694
C           -6.61590138252791       -2.89907170124293       -0.48129079770755
C           -5.35560311918129       -2.38725959494823       -0.22925474888806
C           -5.23682371536259       -1.01914974994918       -0.03546352591213
N           -4.10856764144312       -0.24624974153659        0.19899426477030
C           -2.82599377594733       -0.70073929151952        0.44225313882395
C           -2.59521162248091       -1.86297653719540        1.19572966430684
N           -1.34189760403096       -2.27483061814662        1.40231162742515
C           -0.34384402488572       -1.59444285695333        0.94559938448559
C           -0.54680359706256       -0.38082521209740        0.22815169817797
C            0.54619222473561        0.36761608034404       -0.25082423628012
C            0.34417604139769        1.58420229049017       -0.96344914211891
N            1.34285008240432        2.27214591741635       -1.40745409036370
C            2.59624411943792        1.86403395200723       -1.19320508994920
C            2.82533669650221        0.69494198736949       -0.45021127140213
N            4.10827206379928        0.24246735140936       -0.20380457003694
C            4.49947604967943       -1.08932554134899       -0.24405556240871
C            3.74104003345237       -2.22300523298488       -0.48497787636131
C            4.39205947759273       -3.44308441377444       -0.49253559663608
C            5.76385925783432       -3.53568242299559       -0.27414830331073
C            6.52530629252360       -2.40572991849844       -0.04571164397334
C            5.89204811658418       -1.17085635324881       -0.03165921895013
C            6.35790679512888        0.17514665742583        0.17015472115458
C            7.60542061027869        0.71290365259197        0.45235629532728
C            7.71096867384466        2.07782606351984        0.63777962427357
C            6.58758996756645        2.89591427559295        0.56669942863541
C            5.33465160129365        2.38156504731956        0.28509480030839
C            5.22816592918369        1.01705938065059        0.06139883346703
N            1.81690704397645       -0.02812491452079       -0.00798172877942
N           -1.81773308500777        0.01490205455538       -0.01264958701890
H           -6.20663717826425        4.51760566920467        0.19731124732137
H           -3.79018653650746        4.34754830892293        0.55935232123213
H           -2.66000240906262        2.15061639030586        0.58426720253813
H           -7.57735342522979        2.48718391863928       -0.14214590858006
H           -8.47961060447088       -0.06303025068044       -0.48127248848864
H           -8.70262489541433       -2.51321777385525       -0.74727850886985
H           -6.73068476164548       -3.96217495208019       -0.63143220303268
H           -4.49583419392068       -3.03851843122972       -0.20727923721222
H           -3.38860631084074       -2.41326507794083        1.67054585734907
H            0.66393732421055       -1.94689239140148        1.10557329583882
H           -0.66360113352963        1.93371499965907       -1.12962699278319
H            3.39182558873396        2.42307580441310       -1.65404707188521
H            2.67898380290251       -2.15307656463285       -0.65864070269951
H            3.82347346797039       -4.34307020340989       -0.67351841581686
H            6.23653768314950       -4.50643033987979       -0.28747144636523
H            7.58989126942864       -2.47657616821929        0.11786017730332
H            8.47058200088267        0.07261369238577        0.53262661698396
H            8.67249484892491        2.51752391452625        0.85626141209584
H            6.69316064280872        3.95626000079887        0.74115080743274
H            4.47060823672853        3.02723125672735        0.26308235938594

 projected vibrational frequencies (cm⁻¹)
eigval :       -0.00    -0.00     0.00     0.00     0.00     0.00
eigval :       14.78    16.18    23.42    34.43    42.34    66.75
eigval :       80.87    97.50    98.13   101.89   117.78   127.47
eigval :      141.65   144.50   191.16   195.36   209.73   224.99
eigval :      228.64   272.87   273.07   277.12   289.65   329.56
eigval :      329.76   350.86   372.47   388.85   394.86   395.25
eigval :      423.35   424.20   435.94   436.44   453.57   479.16
eigval :      514.23   515.27   520.59   521.54   540.12   540.15
eigval :      554.65   555.92   579.80   585.41   586.12   607.35
eigval :      613.43   620.21   629.54   660.90   661.39   672.04
eigval :      674.67   678.35   709.66   710.44   731.61   735.62
eigval :      744.12   754.82   757.38   772.58   773.32   783.51
eigval :      783.64   821.12   825.84   831.57   872.78   872.92
eigval :      877.12   877.34   894.60   894.99   904.27   904.38
eigval :      906.10   906.22   920.52   923.10   923.18   924.09
eigval :      924.18   957.31   988.51  1010.90  1012.67  1032.86
eigval :     1068.94  1069.36  1074.73  1074.94  1092.71  1117.56
eigval :     1120.64  1126.08  1131.56  1150.08  1150.14  1172.45
eigval :     1176.29  1179.44  1180.21  1181.24  1186.46  1220.19
eigval :     1222.75  1232.58  1232.74  1244.29  1252.26  1263.49
eigval :     1270.82  1293.08  1293.54  1297.51  1298.19  1308.43
eigval :     1312.37  1355.04  1356.20  1358.70  1359.20  1360.84
eigval :     1369.44  1417.54  1423.05  1424.06  1425.75  1445.32
eigval :     1459.19  1472.30  1472.97  1484.13  1484.89  1485.06
eigval :     1503.25  1550.79  1576.18  1576.26  1589.10  1589.24
eigval :     1596.63  1596.66  1609.98  1610.00  3077.21  3077.71
eigval :     3080.28  3080.36  3081.49  3081.57  3086.71  3086.84
eigval :     3088.21  3088.33  3094.78  3095.02  3096.55  3096.92
eigval :     3100.63  3100.94  3104.28  3104.95  3113.66  3114.63

   temp. (K)  partition function   enthalpy   heat capacity  entropy
                                   cal/mol     cal/K/mol   cal/K/mol   J/K/mol
 298.15  VIB  0.488E+12            16170.880    106.680     98.198
         ROT  0.441E+08              888.752      2.981     37.960
         INT  0.215E+20            17059.632    109.660    136.158
         TR   0.104E+29             1481.254      4.968     44.426
         TOT                       18540.8862   114.6286   180.5840   755.5633

       T/K    H(0)-H(T)+PV         H(T)/Eh          T*S/Eh         G(T)/Eh
   ------------------------------------------------------------------------
    298.15    0.295468E-01    0.458702E+00    0.858013E-01    0.372901E+00
   ------------------------------------------------------------------------

         :::::::::::::::::::::::::::::::::::::::::::::::::::::
         ::                  THERMODYNAMIC                  ::
         :::::::::::::::::::::::::::::::::::::::::::::::::::::
         :: total free energy         -95.896630232836 Eh   ::
         ::.................................................::
         :: total energy              -96.269531215113 Eh   ::
         :: zero point energy           0.429155462575 Eh   ::
         :: G(RRHO) w/o ZPVE           -0.056254480298 Eh   ::
         :: G(RRHO) contrib.            0.372900982277 Eh   ::
         :::::::::::::::::::::::::::::::::::::::::::::::::::::

           -------------------------------------------------
          | TOTAL ENERGY              -96.269531215113 Eh   |
          | TOTAL ENTHALPY            -95.810828969683 Eh   |
          | TOTAL FREE ENERGY         -95.896630232836 Eh   |
          | GRADIENT NORM               0.000029338588 Eh/α |
           -------------------------------------------------

 * finished run on 2025/08/30 at 20:59:06.254
