   * xtb version 6.7.1 (edcfbbe) compiled by 'albert@albert-system' on 2024-07-22

   ID    Z sym.   atoms
    1    6 C      1, 3, 5, 7-29, 31-50
    2   16 S      2
    3    7 N      4, 6, 30, 51
    4    1 H      52-105

          program call               : xtb data2507/gas/tCbz-mPYRs/tCbz-mPYRs_gas_S0_finalOpt.xtbopt.xyz --gfn 2 --spinpol --tblite --uhf 2 --ohess vtight --parallel 40 --molden --ceasefiles --namespace data2507/gas/tCbz-mPYRs/tCbz-mPYRs_gas_T1_preOpt
 * total energy  :  -141.0382899 Eh     change       -0.1969596E-07 Eh
 * total energy  :  -141.0421737 Eh     change       -0.3883818E-02 Eh
 * total energy  :  -141.0433300 Eh     change       -0.1156306E-02 Eh
 * total energy  :  -141.0434552 Eh     change       -0.1251367E-03 Eh
 * total energy  :  -141.0435203 Eh     change       -0.6510505E-04 Eh
 * total energy  :  -141.0435419 Eh     change       -0.2164438E-04 Eh
 * total energy  :  -141.0435647 Eh     change       -0.2275406E-04 Eh
 * total energy  :  -141.0435850 Eh     change       -0.2029897E-04 Eh
 * total energy  :  -141.0436046 Eh     change       -0.1965504E-04 Eh
 * total energy  :  -141.0436185 Eh     change       -0.1384723E-04 Eh
 * total energy  :  -141.0437431 Eh     change       -0.2678207E-06 Eh
 * total energy  :  -141.0437435 Eh     change       -0.3817153E-06 Eh
 * total energy  :  -141.0437437 Eh     change       -0.2245817E-06 Eh
 * total energy  :  -141.0437440 Eh     change       -0.3141771E-06 Eh
 * total energy  :  -141.0437442 Eh     change       -0.1801935E-06 Eh
 * total energy  :  -141.0437445 Eh     change       -0.2673661E-06 Eh
 * total energy  :  -141.0437447 Eh     change       -0.2297957E-06 Eh
 * total energy  :  -141.0437449 Eh     change       -0.2301454E-06 Eh
 * total energy  :  -141.0437449 Eh     change       -0.2962634E-07 Eh
   *** GEOMETRY OPTIMIZATION CONVERGED AFTER 68 ITERATIONS ***

 final structure:
================
105
 xtb: 6.7.1 (edcfbbe)
C            1.73609406089205        3.67244425554918        3.33397428271397
S           -0.04986821309069        3.41964406700938        3.12457933237678
C           -0.02669288818267        1.97004642866807        2.14223953495810
N           -1.18933831633336        1.45709689696252        1.82692526204241
C           -1.21976992512396        0.36871798947705        0.97417188651503
N           -2.47604171688915       -0.08356565762222        0.59422566688817
C           -3.48874585284226        0.70440195105512        0.11375523297953
C           -3.49711167506106        2.08363622864552       -0.04017829280897
C           -4.63909004842550        2.67643466299205       -0.52734752613887
C           -5.76864125032828        1.92194542096049       -0.87391146730106
C           -6.99713800439565        2.64488060665866       -1.40515446119119
C           -8.15064772213614        1.69677887382647       -1.74693864246846
C           -7.49394867780324        3.63133973715669       -0.33815238064909
C           -6.61752667763562        3.40830056782389       -2.68249650209640
C           -5.73826849562691        0.54184654050686       -0.71925305888282
C           -4.60434359480640       -0.10225490405102       -0.22885945431976
C           -4.23195330526861       -1.47255658930633        0.07751828779770
C           -4.83649756227086       -2.74075293012108       -0.01176372430556
C           -6.22365134626694       -2.94894963796254       -0.59959465753378
C           -7.24725332733118       -2.23597451426088        0.30071462622551
C           -6.65039482473991       -4.42210814591292       -0.66455617778605
C           -6.23248154310007       -2.43671712823688       -2.04983755231193
C           -4.11461302791844       -3.82294150887702        0.47901052735330
C           -2.85769394041142       -3.70311840456568        1.06245306370591
C           -2.23737192895079       -2.47694835158689        1.13748928667533
C           -2.91636949643982       -1.38733937656674        0.61416308333526
C           -0.03543352416965       -0.15463008717328        0.44836513208723
C           -0.02252009825873       -1.13418171987478       -0.68459083309030
C            1.14928922549051        0.38023985936298        0.96101731280585
N            2.40399952414222       -0.08290321371249        0.57703639689585
C            3.39769840311428        0.67904031241077        0.02229668229778
C            3.37595257621369        2.03803023425753       -0.25538746294137
C            4.49822556513901        2.60759345715011       -0.81091804643042
C            5.63983377899543        1.84768696363095       -1.10160644535064
C            6.84674979624807        2.54457473013396       -1.71231995951371
C            8.01980504344321        1.59451858094032       -1.97204201484656
C            7.32948443491856        3.64141608282127       -0.75197696974428
C            6.43875743486264        3.17085048623185       -3.05384167908121
C            5.63803498207595        0.48692844763445       -0.82792412247232
C            4.52283182840501       -0.13373319040380       -0.26721643311368
C            4.17491187050415       -1.48112345441285        0.14914629019436
C            4.79856383576118       -2.74377137939930        0.15427330400252
C            6.18970531747605       -2.97342215460136       -0.41597235663680
C            6.64687009073626       -4.43752761050989       -0.35479985963791
C            7.19919285297506       -2.16598061801632        0.41797876676673
C            6.18752395706326       -2.58635970182794       -1.90450163606325
C            4.09194582088488       -3.79725579459041        0.72194554362995
C            2.83209626639277       -3.65416362920509        1.29378816969026
C            2.19606894196019       -2.43400071853224        1.28435545804611
C            2.86205904185723       -1.37511046510169        0.68658314589174
N            1.13561348981459        1.46528264987466        1.81782484388455
H            2.17201935431886        2.77141035360215        3.75222800471298
H            2.18598718035261        3.89199798003430        2.37124657853102
H            1.85375631326016        4.51111881039449        4.01176292913228
H           -2.63260995749849        2.66719817448169        0.23396578417077
H           -4.65221930162513        3.74876141446325       -0.64237842200406
H           -8.48649792848411        1.15278023941314       -0.86707934257909
H           -7.86185557085180        0.98798279803763       -2.51979910904632
H           -8.99229264287002        2.27556702479066       -2.12237087774263
H           -6.73811650229121        4.37440863304520       -0.10098776973797
H           -8.38246536942077        4.14988872465049       -0.69239301953951
H           -7.74593726909219        3.09893218768818        0.57664665682185
H           -7.48839142764129        3.92231309367252       -3.08387881854228
H           -5.84595624881975        4.14796423228315       -2.48932798574960
H           -6.24627758799598        2.71736407027626       -3.43677911560451
H           -6.61133460804069       -0.02459877651995       -0.97955882358817
H           -6.89985001140468       -1.26196144139362        0.62534273937372
H           -8.19869193947717       -2.12279156230713       -0.21553292940525
H           -7.41594464024488       -2.83289205314947        1.19522235454111
H           -7.63757013048868       -4.47761811639693       -1.11989221833442
H           -5.96736407123783       -5.00939698190924       -1.27422325458511
H           -6.71647011083555       -4.86670960970554        0.32568479463635
H           -5.72691045410560       -1.48437411498754       -2.15587472141228
H           -7.25366016012423       -2.33886278623105       -2.41336485653266
H           -5.71418296700648       -3.15257353776211       -2.68564489911873
H           -4.53955436566627       -4.81083294747860        0.43373253893332
H           -2.37176101572572       -4.58166018992277        1.45943315815609
H           -1.27535977921251       -2.35312225114326        1.60821370805207
H           -0.94332411262728       -1.05648062971154       -1.25925032565456
H            0.07559589644388       -2.16447235798184       -0.34523650034494
H            0.81930955815399       -0.92134548807573       -1.34241212990005
H            2.49681316007039        2.62348467101990       -0.03504383792864
H            4.48625778420470        3.66455283112320       -1.02708585779709
H            8.37128129533256        1.14182195739495       -1.04766137734120
H            7.74364238554129        0.81095783812969       -2.67400412221093
H            8.84659908001625        2.15418669167182       -2.40507475246937
H            8.20397676078274        4.14119529015143       -1.16340745486283
H            6.55978191673094        4.38893951093661       -0.58248629029432
H            7.59968252934120        3.20703311158871        0.20839059724394
H            7.29355131743702        3.66346040347050       -3.51254927613968
H            5.65086200556612        3.90760259837805       -2.92580603593958
H            6.07816171399726        2.40114949985061       -3.73328062094011
H            6.51708427821274       -0.08477592530539       -1.05424998397496
H            5.97985955529070       -5.08846481387745       -0.91554203688122
H            7.63767333568752       -4.51064419209102       -0.79970154858950
H            6.71578443583859       -4.79527789363596        0.66987845787576
H            6.83563026555708       -1.17251534080101        0.65358590445018
H            7.37536885967965       -2.67787246570299        1.36240690478456
H            8.14992661566910       -2.08383008833893       -0.10543404160642
H            5.68617310803907       -3.36532691197239       -2.47645675114356
H            7.20626334672697       -2.49585004551509       -2.27677206369917
H            5.65946433894907       -1.65858169635185       -2.08981145162689
H            4.53052070760613       -4.77988080967355        0.74809800583880
H            2.35688172039426       -4.50979199848161        1.74971928968246
H            1.23212707704877       -2.28881746616781        1.74636461035538

 projected vibrational frequencies (cm⁻¹)
eigval :       -0.00    -0.00    -0.00     0.00     0.00     0.00
eigval :        8.33    10.38    13.52    24.81    26.08    31.28
eigval :       31.57    35.01    43.58    45.54    51.15    67.82
eigval :       74.74    75.52    80.49    83.39    86.71    88.93
eigval :      101.25   105.99   118.38   121.90   126.01   131.62
eigval :      151.96   161.42   162.71   170.37   175.57   178.30
eigval :      184.32   186.10   198.54   212.41   219.51   221.41
eigval :      222.98   223.92   229.87   232.79   237.22   245.25
eigval :      247.12   269.97   270.77   285.58   297.81   306.41
eigval :      309.90   314.24   320.28   326.11   328.59   329.66
eigval :      335.06   335.36   343.36   345.94   346.82   347.41
eigval :      349.89   363.44   365.14   376.34   381.92   393.29
eigval :      406.70   419.22   420.25   430.38   431.16   437.11
eigval :      440.66   451.37   452.16   453.90   455.82   484.56
eigval :      487.28   495.66   502.92   515.41   521.59   529.49
eigval :      544.88   551.47   553.34   568.23   589.34   596.58
eigval :      601.75   603.54   613.76   616.11   617.16   617.62
eigval :      671.23   678.76   686.84   687.31   689.03   692.40
eigval :      715.91   716.70   733.93   760.39   787.10   792.16
eigval :      793.96   799.84   802.14   806.59   819.03   822.50
eigval :      871.73   872.55   876.80   880.45   882.86   891.25
eigval :      893.42   893.69   907.93   908.46   908.77   912.21
eigval :      924.21   936.89   943.33   950.61   957.90   958.20
eigval :      959.78   959.83   962.02   962.08   962.84   963.01
eigval :      965.26   965.29   979.91   980.02   984.02   988.55
eigval :     1027.10  1027.84  1031.01  1032.00  1033.78  1034.41
eigval :     1034.57  1036.29  1036.32  1038.58  1039.05  1069.22
eigval :     1110.02  1116.81  1122.31  1124.58  1133.09  1136.97
eigval :     1157.67  1159.21  1162.16  1166.26  1186.40  1188.07
eigval :     1210.07  1222.98  1223.31  1223.95  1224.13  1224.96
eigval :     1225.46  1228.94  1229.51  1238.12  1243.30  1245.11
eigval :     1264.41  1265.55  1279.47  1282.54  1284.58  1286.03
eigval :     1300.86  1307.78  1309.00  1334.69  1336.57  1339.36
eigval :     1345.19  1352.65  1353.88  1374.23  1386.97  1393.31
eigval :     1403.61  1403.91  1405.36  1405.41  1405.48  1406.58
eigval :     1407.46  1407.64  1414.97  1415.33  1423.82  1428.56
eigval :     1428.67  1428.76  1431.83  1432.43  1436.76  1438.70
eigval :     1446.63  1449.94  1451.96  1475.44  1478.84  1479.54
eigval :     1482.50  1488.55  1488.71  1491.20  1491.75  1493.67
eigval :     1494.09  1497.62  1497.82  1501.81  1502.07  1503.95
eigval :     1504.55  1510.75  1511.16  1512.40  1512.61  1516.21
eigval :     1516.36  1517.59  1517.65  1520.43  1520.64  1532.43
eigval :     1532.68  1536.89  1541.09  1553.89  1557.98  1569.05
eigval :     1573.10  1575.68  1576.82  3002.10  3016.27  3016.63
eigval :     3018.50  3018.85  3019.15  3020.70  3020.90  3022.88
eigval :     3022.92  3023.14  3023.32  3023.68  3024.09  3026.37
eigval :     3026.57  3027.12  3027.45  3029.60  3029.89  3030.52
eigval :     3031.06  3032.42  3032.66  3032.75  3034.88  3035.11
eigval :     3036.30  3036.64  3037.61  3037.86  3043.38  3048.36
eigval :     3048.39  3050.01  3051.78  3053.53  3064.51  3081.73
eigval :     3084.11  3084.21  3084.72  3087.66  3089.20  3090.15
eigval :     3093.88  3094.97  3098.66  3101.88  3105.27  3131.66
eigval :     3132.09  3177.51  3177.86

   temp. (K)  partition function   enthalpy   heat capacity  entropy
                                   cal/mol     cal/K/mol   cal/K/mol   J/K/mol
 298.15  VIB  0.101E+25            31227.107    188.868    194.955
         ROT  0.114E+09              888.752      2.981     39.855
         INT  0.115E+33            32115.860    191.849    234.810
         TR   0.177E+29             1481.254      4.968     45.476
         TOT                       33597.1137   196.8168   280.2864  1172.7181

       T/K    H(0)-H(T)+PV         H(T)/Eh          T*S/Eh         G(T)/Eh
   ------------------------------------------------------------------------
    298.15    0.535404E-01    0.928456E+00    0.133173E+00    0.795283E+00
   ------------------------------------------------------------------------

         :::::::::::::::::::::::::::::::::::::::::::::::::::::
         ::                  THERMODYNAMIC                  ::
         :::::::::::::::::::::::::::::::::::::::::::::::::::::
         :: total free energy        -140.248462016408 Eh   ::
         ::.................................................::
         :: total energy             -141.043744926980 Eh   ::
         :: zero point energy           0.874915591369 Eh   ::
         :: G(RRHO) w/o ZPVE           -0.079632680797 Eh   ::
         :: G(RRHO) contrib.            0.795282910572 Eh   ::
         :::::::::::::::::::::::::::::::::::::::::::::::::::::

           -------------------------------------------------
          | TOTAL ENERGY             -141.043744926980 Eh   |
          | TOTAL ENTHALPY           -140.115288926885 Eh   |
          | TOTAL FREE ENERGY        -140.248462016408 Eh   |
          | GRADIENT NORM               0.000058549338 Eh/α |
           -------------------------------------------------

 * finished run on 2025/08/25 at 13:56:28.684
