   * xtb version 6.7.1 (edcfbbe) compiled by 'albert@albert-system' on 2024-07-22

   ID    Z sym.   atoms
    1    6 C      1, 3, 5, 7-29, 31-50
    2   16 S      2
    3    7 N      4, 6, 30, 51
    4    1 H      52-105

          program call               : xtb data2507/gas/tCbz-mPYRs/tCbz-mPYRs_gas_T1_crest.xyz --gfn 2 --spinpol --tblite --uhf 2 --ohess vtight --parallel 40 --molden --ceasefiles --namespace data2507/gas/tCbz-mPYRs/tCbz-mPYRs_gas_T1_finalOpt
 * total energy  :  -141.0433889 Eh     change       -0.1798230E-07 Eh
 * total energy  :  -141.0435367 Eh     change       -0.1477434E-03 Eh
 * total energy  :  -141.0436257 Eh     change       -0.8902385E-04 Eh
 * total energy  :  -141.0436357 Eh     change       -0.1000176E-04 Eh
 * total energy  :  -141.0436467 Eh     change       -0.1096049E-04 Eh
 * total energy  :  -141.0436518 Eh     change       -0.5132341E-05 Eh
 * total energy  :  -141.0436609 Eh     change       -0.9108855E-05 Eh
 * total energy  :  -141.0436653 Eh     change       -0.4375651E-05 Eh
 * total energy  :  -141.0436686 Eh     change       -0.3349501E-05 Eh
 * total energy  :  -141.0436705 Eh     change       -0.1828134E-05 Eh
 * total energy  :  -141.0437120 Eh     change       -0.3495984E-06 Eh
 * total energy  :  -141.0437125 Eh     change       -0.5046105E-06 Eh
 * total energy  :  -141.0437127 Eh     change       -0.1688660E-06 Eh
 * total energy  :  -141.0437129 Eh     change       -0.2556376E-06 Eh
 * total energy  :  -141.0437131 Eh     change       -0.1754270E-06 Eh
 * total energy  :  -141.0437134 Eh     change       -0.2681481E-06 Eh
 * total energy  :  -141.0437136 Eh     change       -0.2028847E-06 Eh
 * total energy  :  -141.0437137 Eh     change       -0.1432780E-06 Eh
 * total energy  :  -141.0437138 Eh     change       -0.3867135E-07 Eh
   *** GEOMETRY OPTIMIZATION CONVERGED AFTER 58 ITERATIONS ***

 final structure:
================
105
 xtb: 6.7.1 (edcfbbe)
C            1.79261460841956        3.72107103653001        3.28830940968589
S            0.00740051967757        3.40731451469066        3.15223208362043
C            0.00975452650156        1.96340961401819        2.15580882778911
N           -1.16353472188939        1.47701985152300        1.84743059452149
C           -1.22144023809018        0.38406075890319        1.00305419483156
N           -2.48538953418073       -0.05465149201624        0.63172433663230
C           -3.47728066722801        0.73015885970701        0.10615038452684
C           -3.45664131270150        2.10132985450720       -0.10663613513811
C           -4.57787886894304        2.69241370025726       -0.64176892263907
C           -5.71496957247964        1.94387096976401       -0.97615264204088
C           -6.91752745095728        2.66397906191464       -1.56730635886220
C           -8.08286130477154        1.72296331729829       -1.88787715955489
C           -7.41611101057609        3.71092130588821       -0.56055411198449
C           -6.49581139978543        3.35642688767870       -2.87168330741837
C           -5.71487053196980        0.57194169772315       -0.75801092783487
C           -4.60231007132551       -0.07028068573308       -0.21884299066967
C           -4.25838915875321       -1.43334956419108        0.14931741282587
C           -4.88504678655963       -2.69309335531579        0.10825339955076
C           -6.27438465309467       -2.89959752081976       -0.47485621074998
C           -7.28507434446297       -2.12060695638513        0.38434924271914
C           -6.73414860783197       -4.36416350842979       -0.46810532242703
C           -6.26630191063671       -2.45916455327031       -1.94850198710668
C           -4.18361011382104       -3.76758983481617        0.64391826714166
C           -2.92719066904583       -3.64710685063106        1.22804524810830
C           -2.28779652250378       -2.42881338516524        1.26213753290213
C           -2.94699950080504       -1.34903252336053        0.69501145724775
C           -0.05121398929874       -0.15625937148206        0.45778951804278
C           -0.08829506545672       -1.12980583346034       -0.67958017998517
C            1.14726678572618        0.35756676597517        0.95449374541060
N            2.39451119983132       -0.11134520703613        0.55514115918972
C            3.40672231799151        0.66131880697844        0.04828741650296
C            3.41613314816104        2.03466224388184       -0.14833576023193
C            4.55316293577093        2.61126114623048       -0.66511971902162
C            5.67920772803699        1.84531230571006       -0.99762493111508
C            6.90350486406335        2.55083013540839       -1.56200478145669
C            8.05630177113294        1.59238811566150       -1.87588220207730
C            7.40651451749034        3.57656604304017       -0.53572426307349
C            6.51451094981078        3.26612068117801       -2.86406121146044
C            5.64678381417682        0.47134156609388       -0.80441412717513
C            4.51625077005190       -0.15680741849385       -0.28388124564495
C            4.14083449193322       -1.51777689652711        0.05594061328806
C            4.73942309673682       -2.79092849735809       -0.01037914968112
C            6.12229340966108       -3.01706816789661       -0.60186768992455
C            6.54527175901012       -4.49238876326609       -0.63307846596365
C            7.15403000202397       -2.28513939063870        0.27355125820124
C            6.12248905575824       -2.54066540426206       -2.06430677024321
C            4.01528486260071       -3.85924412146051        0.50469304670888
C            2.76083576625055       -3.72217630307017        1.09006691848638
C            2.14686170759063       -2.49216037262733        1.14484055045614
C            2.82939150563668       -1.41603721726654        0.59860399378240
N            1.16064112397157        1.43484983368795        1.82231471516105
H            2.30233304251648        2.77744863346491        3.11789651084676
H            2.08741266987496        4.45265405810943        2.54193392851146
H            1.98540835058200        4.10164764707894        4.28541353601313
H           -2.58553800783556        2.67979626751742        0.15738898056413
H           -4.56841050076578        3.75849887989339       -0.80524049707272
H           -8.44729260296627        1.22829633307919       -0.99045630119366
H           -7.79300563691911        0.97255279320688       -2.61998743377075
H           -8.90485431402331        2.29920571052602       -2.30808199009107
H           -6.65039025626676        4.44993297488006       -0.34325340087808
H           -8.28616136156758        4.22872890156408       -0.95894589522965
H           -7.69809652089148        3.22893328727836        0.37323670444557
H           -7.34735885620264        3.86708510193882       -3.31643067777003
H           -5.71330354001898        4.08941537400261       -2.69795480318286
H           -6.12327228174512        2.62226644702510       -3.58330806252824
H           -6.59399190090421        0.01074604967038       -1.00923377974538
H           -6.91976074667955       -1.13768183576816        0.65828419959061
H           -8.23336484993273       -2.01649075348624       -0.13954228104064
H           -7.46658964675884       -2.66653801463249        1.30843547134114
H           -7.72306906152619       -4.41945837335528       -0.91965914682490
H           -6.06576007715776       -4.99587668458676       -1.04888222011189
H           -6.80840161539995       -4.75820335575500        0.54276910003154
H           -5.73540444067141       -1.52666877789757       -2.09864308772162
H           -7.28359521973337       -2.35261328423203       -2.32036565010074
H           -5.76520808095698       -3.21839115471626       -2.54665206906339
H           -4.62528848673719       -4.74912179710355        0.63475102058145
H           -2.45747400365331       -4.51834809015741        1.65926750365589
H           -1.32697897468257       -2.30142528853816        1.73540750093662
H           -0.16654068006158       -2.16296583039607       -0.34402827344236
H            0.81701662008870       -1.03903453944426       -1.27699345612999
H           -0.94847344674242       -0.92199678298480       -1.31451241786892
H            2.55134243654733        2.62671065363489        0.10712680307681
H            4.56530618703327        3.67936639404712       -0.81649103653153
H            8.39482395371818        1.07763290067800       -0.97956794090708
H            7.76518411422734        0.85842021456706       -2.62389149988501
H            8.89655482636111        2.15852546255166       -2.27313397996341
H            8.29330785369368        4.08092210922492       -0.91391592354286
H            6.65264820263896        4.32918549951450       -0.32309087718267
H            7.66347377229770        3.07897235158039        0.39721111823671
H            7.38158634933135        3.76675701824156       -3.28986274950920
H            5.74233620160998        4.01084495284992       -2.69347870768008
H            6.13983434090183        2.54714297146468       -3.58985484424058
H            6.51421671818534       -0.10523493947239       -1.06103999438169
H            5.85813470009580       -5.09258383273452       -1.22527075378123
H            7.53026801728675       -4.56141647574282       -1.09133458429694
H            6.61448940140495       -4.91296512394858        0.36741624526444
H            6.81306948049901       -1.30102782566303        0.57360353181588
H            7.32479893095932       -2.85883563844054        1.18278563471795
H            8.10318129060820       -2.19026545298770       -0.25058457499010
H            5.60028553239845       -3.27177856077471       -2.67919095428291
H            7.14141303121273       -2.45175033415376       -2.43646362564530
H            5.61594078025576       -1.59126191074719       -2.19049993381586
H            4.43501942754047       -4.85001213637247        0.47702407431147
H            2.27194772576527       -4.59092286253611        1.50477194044377
H            1.18705636272074       -2.35446454161662        1.61662524198018

 projected vibrational frequencies (cm⁻¹)
eigval :       -0.00    -0.00    -0.00    -0.00     0.00     0.00
eigval :        5.39     7.35    10.55    13.58    25.26    25.61
eigval :       30.81    31.30    37.32    44.14    45.80    64.06
eigval :       69.35    75.12    75.26    83.69    85.06    88.71
eigval :      101.69   103.86   120.19   120.85   126.00   130.99
eigval :      150.95   160.26   163.02   171.65   175.11   177.97
eigval :      184.28   185.90   201.25   213.23   219.51   221.76
eigval :      222.55   223.74   230.00   233.09   238.86   245.42
eigval :      248.08   269.85   270.54   286.86   296.80   305.71
eigval :      309.82   315.05   320.34   325.60   328.22   329.36
eigval :      334.54   335.55   343.00   345.85   346.76   347.14
eigval :      349.63   363.31   365.63   375.95   381.79   395.22
eigval :      406.72   418.66   420.26   430.19   430.95   436.86
eigval :      440.20   451.32   451.97   453.76   455.51   484.49
eigval :      486.99   496.15   502.34   515.19   521.51   529.23
eigval :      545.51   551.22   553.54   566.82   589.37   596.18
eigval :      601.72   603.40   614.08   615.87   617.19   617.27
eigval :      671.84   678.40   686.69   687.24   689.37   691.83
eigval :      716.12   716.52   732.44   761.84   786.40   791.02
eigval :      793.86   799.28   801.83   803.06   818.14   820.88
eigval :      871.52   872.05   875.92   879.53   882.04   890.84
eigval :      891.83   893.42   906.97   907.32   907.94   911.02
eigval :      923.98   936.53   941.67   951.47   957.31   957.62
eigval :      959.09   959.15   961.45   961.51   962.11   962.34
eigval :      964.58   964.63   979.25   979.28   983.94   988.15
eigval :     1026.65  1027.40  1030.19  1031.37  1033.04  1033.53
eigval :     1033.65  1035.46  1035.48  1038.11  1038.61  1068.97
eigval :     1109.02  1116.25  1121.60  1123.95  1132.89  1136.07
eigval :     1157.11  1158.61  1161.27  1165.34  1185.50  1187.21
eigval :     1210.70  1222.66  1222.76  1223.60  1223.64  1224.59
eigval :     1225.03  1228.54  1229.04  1236.54  1242.74  1244.16
eigval :     1264.02  1264.56  1279.07  1281.78  1284.14  1285.10
eigval :     1294.24  1301.92  1307.19  1333.18  1336.04  1338.65
eigval :     1345.37  1352.50  1353.48  1373.20  1387.74  1393.06
eigval :     1402.43  1402.49  1403.87  1404.04  1404.17  1405.24
eigval :     1405.83  1406.05  1413.44  1415.29  1419.33  1424.08
eigval :     1426.78  1426.84  1429.94  1430.56  1439.70  1444.50
eigval :     1447.21  1448.75  1451.38  1473.84  1477.84  1479.25
eigval :     1480.99  1486.35  1486.55  1489.30  1489.66  1491.69
eigval :     1492.02  1495.41  1495.56  1499.64  1499.83  1502.04
eigval :     1502.34  1509.08  1509.27  1510.27  1510.56  1513.95
eigval :     1514.08  1515.46  1515.51  1518.26  1518.46  1530.30
eigval :     1530.47  1538.09  1539.82  1554.72  1557.19  1569.29
eigval :     1573.54  1574.83  1576.36  3002.86  3015.98  3016.45
eigval :     3018.28  3018.57  3019.73  3020.31  3020.54  3022.18
eigval :     3022.49  3022.80  3022.97  3023.28  3023.73  3025.86
eigval :     3026.01  3026.42  3026.89  3028.44  3029.11  3029.39
eigval :     3029.78  3029.85  3030.50  3031.96  3032.13  3034.22
eigval :     3034.39  3035.85  3036.03  3036.12  3036.69  3037.05
eigval :     3047.23  3049.02  3050.76  3052.71  3060.57  3081.84
eigval :     3082.78  3083.54  3084.48  3088.73  3088.77  3088.95
eigval :     3093.08  3096.03  3099.55  3100.83  3104.94  3131.43
eigval :     3131.76  3176.94  3177.64

   temp. (K)  partition function   enthalpy   heat capacity  entropy
                                   cal/mol     cal/K/mol   cal/K/mol   J/K/mol
 298.15  VIB  0.109E+26            31315.472    188.375    196.954
         ROT  0.114E+09              888.752      2.981     39.855
         INT  0.125E+34            32204.225    191.356    236.809
         TR   0.177E+29             1481.254      4.968     45.476
         TOT                       33685.4788   196.3240   282.2855  1181.0825

       T/K    H(0)-H(T)+PV         H(T)/Eh          T*S/Eh         G(T)/Eh
   ------------------------------------------------------------------------
    298.15    0.536812E-01    0.927986E+00    0.134123E+00    0.793863E+00
   ------------------------------------------------------------------------

         :::::::::::::::::::::::::::::::::::::::::::::::::::::
         ::                  THERMODYNAMIC                  ::
         :::::::::::::::::::::::::::::::::::::::::::::::::::::
         :: total free energy        -140.249850695759 Eh   ::
         ::.................................................::
         :: total energy             -141.043713765894 Eh   ::
         :: zero point energy           0.874304784305 Eh   ::
         :: G(RRHO) w/o ZPVE           -0.080441714170 Eh   ::
         :: G(RRHO) contrib.            0.793863070134 Eh   ::
         :::::::::::::::::::::::::::::::::::::::::::::::::::::

           -------------------------------------------------
          | TOTAL ENERGY             -141.043713765894 Eh   |
          | TOTAL ENTHALPY           -140.115727754240 Eh   |
          | TOTAL FREE ENERGY        -140.249850695759 Eh   |
          | GRADIENT NORM               0.000079424700 Eh/α |
           -------------------------------------------------

 * finished run on 2025/08/25 at 14:15:16.474
