   * xtb version 6.7.1 (edcfbbe) compiled by 'albert@albert-system' on 2024-07-22

   ID    Z sym.   atoms
    1    6 C      1, 3, 5, 7-29, 31-50
    2   16 S      2
    3    7 N      4, 6, 30, 51
    4    1 H      52-105

          program call               : xtb data2507/gas/tCbz-mPYRs/tCbz-mPYRs_gas_S0_crest.xyz --gfn 2 --ohess vtight --parallel 40 --molden --ceasefiles --namespace data2507/gas/tCbz-mPYRs/tCbz-mPYRs_gas_S0_finalOpt
          :  Hamiltonian                  GFN2-xTB          :
 * total energy  :  -141.1399378 Eh     change       -0.1603695E-08 Eh
 * total energy  :  -141.1399387 Eh     change       -0.8592000E-06 Eh
 * total energy  :  -141.1399402 Eh     change       -0.1479279E-05 Eh
 * total energy  :  -141.1399434 Eh     change       -0.3189422E-05 Eh
 * total energy  :  -141.1399465 Eh     change       -0.3134201E-05 Eh
 * total energy  :  -141.1399481 Eh     change       -0.1612185E-05 Eh
 * total energy  :  -141.1399484 Eh     change       -0.2414122E-06 Eh
 * total energy  :  -141.1399492 Eh     change       -0.8773996E-06 Eh
 * total energy  :  -141.1399505 Eh     change       -0.1250039E-05 Eh
 * total energy  :  -141.1399522 Eh     change       -0.1682516E-05 Eh
 * total energy  :  -141.1399558 Eh     change       -0.6053099E-06 Eh
 * total energy  :  -141.1399562 Eh     change       -0.3735660E-06 Eh
 * total energy  :  -141.1399565 Eh     change       -0.3499366E-06 Eh
 * total energy  :  -141.1399569 Eh     change       -0.4037518E-06 Eh
 * total energy  :  -141.1399573 Eh     change       -0.3474369E-06 Eh
 * total energy  :  -141.1399576 Eh     change       -0.3140179E-06 Eh
 * total energy  :  -141.1399579 Eh     change       -0.2920613E-06 Eh
 * total energy  :  -141.1399582 Eh     change       -0.3151039E-06 Eh
 * total energy  :  -141.1399582 Eh     change       -0.2859167E-08 Eh
   *** GEOMETRY OPTIMIZATION CONVERGED AFTER 22 ITERATIONS ***

 final structure:
================
105
 xtb: 6.7.1 (edcfbbe)
C            1.76273240451978        3.71702293427463        3.20974258566317
S           -0.02403881835221        3.46855829960760        2.99539474078689
C           -0.01309490045137        2.02603465356023        2.01983185941671
N           -1.19482669395261        1.53014656153184        1.70052497945253
C           -1.21617442614209        0.46886280479355        0.90310218362230
N           -2.47002612780818       -0.01055090165523        0.56457173643983
C           -3.53568629056631        0.76244811631802        0.14308642902013
C           -3.59626759839311        2.13880357336357        0.01415387853493
C           -4.75913936086879        2.69545921326484       -0.47100342801280
C           -5.85562400091180        1.90845732031663       -0.83752030046723
C           -7.11059966088615        2.59437851307787       -1.36017830293900
C           -8.22668594465013        1.60802209083841       -1.71741511344518
C           -7.64650325970355        3.54476892453626       -0.28012755914028
C           -6.75805568648510        3.38974052366445       -2.62516959111436
C           -5.76956438081250        0.53159229593687       -0.71042999936172
C           -4.61345052609881       -0.07406423061471       -0.21586976527017
C           -4.19579263108329       -1.44095841709975        0.06205876606378
C           -4.77958731424005       -2.72073543517125       -0.01951927503107
C           -6.17624935779281       -2.95223355630327       -0.57613792687348
C           -7.19265847284981       -2.24872529864801        0.33951786569450
C           -6.58384723351883       -4.43175509102995       -0.62033482218693
C           -6.21926952746383       -2.45381945071516       -2.03088450654831
C           -4.02744525191966       -3.79011453189165        0.44645752514763
C           -2.76534167781627       -3.64539538174419        1.00755304778006
C           -2.17068824193807       -2.40640262387797        1.08170531921149
C           -2.87547924633860       -1.33132878577961        0.56619180355594
C           -0.04185534745779       -0.09862217545289        0.37535556614694
C           -0.04737796367284       -1.07296299586724       -0.75943829940841
C            1.14223551869270        0.45722078907721        0.87473623195761
N            2.38811649846524       -0.03377424036438        0.50579470270268
C            3.43328145772263        0.72126103194667        0.01628179252837
C            3.45886782582668        2.08137273804261       -0.23825311314353
C            4.60656885434908        2.62279236094224       -0.77342028815371
C            5.72246107427874        1.83332582322709       -1.07023025691924
C            6.95837486646859        2.50035621805709       -1.65867785398337
C            8.10128254768829        1.51514974408311       -1.92154134894629
C            7.46822603725457        3.56500858249875       -0.67696749859338
C            6.58449366173746        3.15984092709563       -2.99378055817204
C            5.66917534642803        0.47079923480610       -0.82528143879562
C            4.52884746738147       -0.11839979745894       -0.27692142235814
C            4.13589228989064       -1.46697201755622        0.10422661720209
C            4.74197209230141       -2.73918408737335        0.11842983388439
C            6.15131904298646       -2.98241047405365       -0.39976118027413
C            6.59406372725520       -4.44985780184231       -0.31402515815496
C            7.13831363614248       -2.18153753850381        0.46675506224437
C            6.20381217688522       -2.60448571214895       -1.89005151708533
C            3.99999996299482       -3.78743595905123        0.64405301172674
C            2.72574137759327       -3.62833592726130        1.17376183379860
C            2.11265404585594       -2.39642700234328        1.16402003864119
C            2.81151541213484       -1.34452285489276        0.59530134844503
N            1.15652837298945        1.51545015682155        1.68030986690323
H            2.19665073307628        2.81581683351384        3.62890447421967
H            2.21596072080420        3.93654729942855        2.24901614730237
H            1.87807864672115        4.55556478273011        3.88802543165669
H           -2.76116422459441        2.75416250993139        0.30786615516149
H           -4.81166286376072        3.76916558534666       -0.56229094335833
H           -8.53768187444582        1.03501849024630       -0.84690023712760
H           -7.91181691241461        0.92540670074061       -2.50352918794289
H           -9.09170450833473        2.15956867244885       -2.08073271191123
H           -6.92029212121449        4.31321870556553       -0.03132924934414
H           -8.55446674221924        4.03384933959007       -0.62717564949945
H           -7.87782400604756        2.98960945924682        0.62659801416735
H           -7.64611638895864        3.87788734864555       -3.02139573152177
H           -6.01396175809885        4.15382962790011       -2.41905872700031
H           -6.36029353437199        2.72412673618490       -3.38871463841338
H           -6.61140918252608       -0.06705590347778       -0.99794777047874
H           -6.85483319377407       -1.26755187918824        0.65215889525973
H           -8.15558912659624       -2.15302723897765       -0.15873038905584
H           -7.33511927851905       -2.84330184086495        1.24020126971884
H           -7.58172700028328       -4.50361516012726       -1.04935818855233
H           -5.90928438827106       -5.01436369096018       -1.24376699500907
H           -6.61758556355553       -4.87010468670828        0.37433759043356
H           -5.71248721866809       -1.50462290644375       -2.15843438193539
H           -7.24840457567515       -2.35606620150027       -2.37134667877837
H           -5.71843385104479       -3.17729585537015       -2.67216385367916
H           -4.43230568284976       -4.78648143885107        0.40464345628450
H           -2.25306655506273       -4.51410389857071        1.39363762909124
H           -1.21166245060386       -2.26881901560303        1.55514100107936
H           -0.94729409105832       -0.93617950447066       -1.35695083070165
H           -0.02099951522802       -2.11109434263458       -0.43125143688881
H            0.82570909741420       -0.90324750410542       -1.38851083842668
H            2.60044413933700        2.69608837494541       -0.01702418367367
H            4.63064604803089        3.68422355579402       -0.96635247828682
H            8.42404162298750        1.03355546682459       -1.00131894961503
H            7.80745697620847        0.75470596335323       -2.64150262796424
H            8.95267281438299        2.05341163985435       -2.33358222089684
H            8.36343273213400        4.04122526964174       -1.07153623644303
H            6.72265994005224        4.33576567966839       -0.50343462468383
H            7.71345257932847        3.10706399388691        0.27915308816325
H            7.45893492750984        3.63142840723057       -3.43738649648259
H            5.81956046743253        3.91974768090896       -2.86119087844573
H            6.20542052683008        2.41288186017197       -3.68841364107603
H            6.52363542360413       -0.13048235416760       -1.06639273054336
H            5.94736856172415       -5.09856034659463       -0.90050354511419
H            7.60245250806538       -4.53170257714654       -0.71580109311923
H            6.61592968687425       -4.80379537277189        0.71408122233332
H            6.77962252616814       -1.18225619663135        0.68397071897375
H            7.27318310992131       -2.69076358575844        1.41943776279935
H            8.10882102145964       -2.11393002379385       -0.02126843058626
H            5.73635334113922       -3.39375540497355       -2.47644042050196
H            7.23498337374970       -2.50195973076951       -2.22286992491135
H            5.66964214682057       -1.68589379435427       -2.10263864300030
H            4.42087290221983       -4.77756757862517        0.67358891727388
H            2.21907584734824       -4.48007629180876        1.60258519342874
H            1.14251173346683       -2.24493876683552        1.61017097983752

          :  Hamiltonian                  GFN2-xTB          :
         :: gradient norm              0.000042920960 Eh/a0 ::
         :: HOMO-LUMO gap              2.585490846996 eV    ::
         :: SCC energy              -143.462069694128 Eh    ::
         :: -> dispersion             -0.140953472928 Eh    ::
         :: repulsion energy           2.322111477951 Eh    ::

    * Orbital Energies and Occupations

         #    Occupation            Energy/Eh            Energy/eV
      -------------------------------------------------------------
         1        2.0000           -0.7199654             -19.5913
       ...           ...                  ...                  ...
       120        2.0000           -0.4110266             -11.1846
       121        2.0000           -0.4093529             -11.1391
       122        2.0000           -0.4080761             -11.1043
       123        2.0000           -0.4065973             -11.0641
       124        2.0000           -0.4039993             -10.9934
       125        2.0000           -0.3961251             -10.7791
       126        2.0000           -0.3933306             -10.7031
       127        2.0000           -0.3761029             -10.2343
       128        2.0000           -0.3753770             -10.2145
       129        2.0000           -0.3728198             -10.1449
       130        2.0000           -0.3716765             -10.1138
       131        2.0000           -0.3630453              -9.8790
       132        2.0000           -0.3603047              -9.8044 (HOMO)
       133                         -0.2652897              -7.2189 (LUMO)
       134                         -0.2515183              -6.8442
       135                         -0.2414319              -6.5697
       136                         -0.2385125              -6.4903
       137                         -0.2184957              -5.9456
       138                         -0.2156037              -5.8669
       139                         -0.2003571              -5.4520
       140                         -0.1935352              -5.2664
       141                         -0.1865032              -5.0750
       142                         -0.1853032              -5.0424
       143                         -0.1828981              -4.9769
       ...                                ...                  ...
       263                          0.7286873              19.8286
      -------------------------------------------------------------
                  HL-Gap            0.0950150 Eh            2.5855 eV

     #   Z          covCN         q      C6AA      α(0)
     1   6 C        3.745    -0.059    21.704     6.646
     2  16 S        2.080    -0.105   145.432    20.297
     3   6 C        2.957     0.216    23.447     7.942
     4   7 N        1.919    -0.290    28.362     7.896
     5   6 C        2.923     0.161    24.522     8.121
     6   7 N        2.803    -0.042    22.051     6.974
     7   6 C        3.076     0.049    26.823     8.491
     8   6 C        2.909    -0.048    29.183     8.858
     9   6 C        2.931    -0.037    28.917     8.819
    10   6 C        2.971    -0.002    28.075     8.691
    11   6 C        3.903     0.025    20.095     6.372
    12   6 C        3.761    -0.108    22.604     6.777
    13   6 C        3.762    -0.106    22.565     6.771
    14   6 C        3.762    -0.105    22.559     6.771
    15   6 C        2.922    -0.055    29.357     8.885
    16   6 C        3.057    -0.017    28.386     8.737
    17   6 C        3.046    -0.022    28.507     8.757
    18   6 C        2.968     0.006    27.877     8.660
    19   6 C        3.901     0.027    20.058     6.366
    20   6 C        3.762    -0.109    22.620     6.780
    21   6 C        3.765    -0.107    22.594     6.775
    22   6 C        3.762    -0.109    22.624     6.780
    23   6 C        2.926    -0.052    29.296     8.876
    24   6 C        2.924    -0.036    28.893     8.815
    25   6 C        2.912    -0.052    29.288     8.874
    26   6 C        3.084     0.047    26.847     8.494
    27   6 C        2.958    -0.047    29.169     8.859
    28   6 C        3.755    -0.098    22.436     6.754
    29   6 C        2.926     0.159    24.555     8.126
    30   7 N        2.804    -0.046    22.121     6.985
    31   6 C        3.078     0.049    26.824     8.491
    32   6 C        2.909    -0.049    29.217     8.863
    33   6 C        2.930    -0.038    28.955     8.825
    34   6 C        2.971    -0.003    28.095     8.694
    35   6 C        3.903     0.025    20.095     6.372
    36   6 C        3.761    -0.108    22.606     6.778
    37   6 C        3.762    -0.105    22.558     6.770
    38   6 C        3.762    -0.105    22.555     6.770
    39   6 C        2.922    -0.054    29.349     8.884
    40   6 C        3.057    -0.018    28.399     8.739
    41   6 C        3.048    -0.023    28.527     8.760
    42   6 C        2.968     0.006    27.876     8.660
    43   6 C        3.901     0.027    20.059     6.366
    44   6 C        3.765    -0.107    22.596     6.775
    45   6 C        3.762    -0.108    22.619     6.780
    46   6 C        3.762    -0.109    22.620     6.780
    47   6 C        2.925    -0.052    29.300     8.877
    48   6 C        2.924    -0.035    28.882     8.813
    49   6 C        2.911    -0.052    29.303     8.876
    50   6 C        3.086     0.048    26.835     8.492
    51   7 N        1.903    -0.302    28.669     7.938
    52   1 H        0.925     0.074     2.044     2.236
    53   1 H        0.925     0.070     2.086     2.259
    54   1 H        0.925     0.068     2.106     2.269
    55   1 H        0.926     0.040     2.442     2.444
    56   1 H        0.926     0.032     2.563     2.504
    57   1 H        0.925     0.036     2.497     2.471
    58   1 H        0.925     0.035     2.511     2.478
    59   1 H        0.925     0.035     2.516     2.481
    60   1 H        0.925     0.037     2.489     2.467
    61   1 H        0.925     0.036     2.509     2.477
    62   1 H        0.925     0.034     2.532     2.488
    63   1 H        0.925     0.036     2.507     2.476
    64   1 H        0.925     0.036     2.502     2.474
    65   1 H        0.925     0.032     2.557     2.501
    66   1 H        0.926     0.057     2.228     2.334
    67   1 H        0.925     0.047     2.355     2.400
    68   1 H        0.925     0.033     2.540     2.492
    69   1 H        0.925     0.034     2.535     2.490
    70   1 H        0.925     0.038     2.478     2.462
    71   1 H        0.925     0.033     2.540     2.493
    72   1 H        0.925     0.034     2.535     2.490
    73   1 H        0.925     0.046     2.369     2.407
    74   1 H        0.925     0.033     2.544     2.494
    75   1 H        0.925     0.033     2.550     2.497
    76   1 H        0.926     0.038     2.472     2.459
    77   1 H        0.926     0.027     2.623     2.533
    78   1 H        0.926     0.021     2.723     2.580
    79   1 H        0.925     0.046     2.375     2.410
    80   1 H        0.925     0.058     2.220     2.330
    81   1 H        0.925     0.045     2.382     2.413
    82   1 H        0.926     0.029     2.598     2.521
    83   1 H        0.926     0.029     2.602     2.523
    84   1 H        0.925     0.036     2.498     2.471
    85   1 H        0.925     0.036     2.504     2.475
    86   1 H        0.925     0.035     2.513     2.479
    87   1 H        0.925     0.036     2.504     2.475
    88   1 H        0.925     0.036     2.509     2.477
    89   1 H        0.925     0.033     2.541     2.493
    90   1 H        0.925     0.036     2.502     2.474
    91   1 H        0.925     0.036     2.510     2.477
    92   1 H        0.925     0.033     2.550     2.497
    93   1 H        0.926     0.058     2.226     2.333
    94   1 H        0.925     0.034     2.537     2.491
    95   1 H        0.925     0.038     2.477     2.461
    96   1 H        0.925     0.034     2.533     2.489
    97   1 H        0.925     0.046     2.364     2.404
    98   1 H        0.925     0.033     2.538     2.491
    99   1 H        0.925     0.033     2.541     2.493
   100   1 H        0.925     0.033     2.543     2.494
   101   1 H        0.925     0.033     2.543     2.494
   102   1 H        0.925     0.046     2.375     2.410
   103   1 H        0.926     0.038     2.471     2.458
   104   1 H        0.926     0.028     2.617     2.530
   105   1 H        0.926     0.020     2.727     2.582

molecular dipole:
                 x           y           z       tot (Debye)
 q only:        0.472      -0.124      -0.731
   full:        0.694      -0.533      -0.924       3.235

 projected vibrational frequencies (cm⁻¹)
eigval :       -0.00    -0.00    -0.00     0.00     0.00     0.00
eigval :       11.31    11.91    14.62    27.40    30.60    31.96
eigval :       32.31    41.57    46.09    52.34    65.59    72.38
eigval :       76.13    76.52    84.63    88.04    89.82    97.46
eigval :      105.64   109.31   123.30   125.29   138.33   151.48
eigval :      160.00   165.79   172.55   179.64   183.20   189.30
eigval :      191.46   200.43   213.38   216.39   221.04   223.70
eigval :      225.87   226.43   231.00   234.34   241.66   249.11
eigval :      251.49   273.77   275.19   290.41   299.81   309.15
eigval :      313.33   317.41   325.85   326.86   330.11   331.56
eigval :      336.10   339.97   343.86   346.89   347.61   350.96
eigval :      353.19   364.90   369.25   377.88   390.56   411.12
eigval :      425.75   426.39   432.05   433.14   437.59   442.08
eigval :      452.64   453.68   458.18   459.96   486.48   488.38
eigval :      494.64   513.35   516.76   527.81   542.63   552.79
eigval :      555.32   565.85   582.99   604.03   606.97   609.93
eigval :      616.63   620.67   621.39   621.64   635.03   678.23
eigval :      689.53   691.05   691.60   700.35   708.31   720.53
eigval :      722.40   723.39   734.34   777.30   795.62   799.95
eigval :      800.54   803.70   813.25   825.75   827.26   859.12
eigval :      875.08   875.26   879.69   887.87   899.63   900.05
eigval :      901.21   906.54   913.50   914.71   915.56   919.41
eigval :      944.58   944.78   953.87   956.18   960.24   960.31
eigval :      960.36   961.60   962.89   962.99   963.05   965.02
eigval :      965.84   965.87   981.67   981.90  1010.35  1011.89
eigval :     1030.22  1030.35  1034.87  1035.94  1036.06  1036.87
eigval :     1037.14  1037.24  1040.00  1042.65  1047.81  1096.21
eigval :     1121.96  1125.49  1133.55  1135.82  1142.87  1169.55
eigval :     1172.06  1186.77  1190.24  1196.91  1197.07  1223.49
eigval :     1223.76  1224.74  1224.78  1228.04  1228.19  1231.63
eigval :     1231.67  1242.62  1246.89  1249.79  1266.72  1267.15
eigval :     1271.06  1278.52  1283.91  1288.33  1291.64  1309.60
eigval :     1318.94  1327.71  1331.48  1341.74  1342.65  1350.30
eigval :     1353.55  1356.08  1384.25  1387.43  1403.92  1404.40
eigval :     1405.03  1406.18  1406.52  1406.60  1408.76  1408.83
eigval :     1414.71  1419.85  1424.05  1428.45  1429.83  1429.98
eigval :     1430.27  1434.52  1434.82  1436.45  1454.20  1468.75
eigval :     1469.97  1472.55  1475.24  1487.42  1488.40  1489.67
eigval :     1489.71  1492.66  1492.93  1495.17  1495.26  1498.83
eigval :     1498.85  1503.28  1503.34  1505.55  1505.88  1512.51
eigval :     1512.61  1514.10  1514.38  1515.62  1516.96  1517.28
eigval :     1518.77  1518.78  1521.66  1521.72  1530.90  1534.23
eigval :     1534.30  1567.69  1568.86  1576.57  1576.93  1596.13
eigval :     1597.06  1605.30  1607.49  3002.56  3016.13  3016.33
eigval :     3018.52  3018.69  3019.83  3020.09  3020.60  3022.19
eigval :     3022.29  3022.78  3022.89  3023.70  3023.78  3026.08
eigval :     3026.21  3026.96  3027.11  3028.01  3029.12  3029.71
eigval :     3030.36  3030.68  3032.47  3032.81  3034.87  3034.96
eigval :     3036.10  3036.20  3037.41  3037.65  3047.68  3047.79
eigval :     3048.90  3051.38  3052.81  3053.10  3066.75  3080.39
eigval :     3081.59  3085.27  3085.64  3086.90  3087.41  3088.39
eigval :     3091.76  3095.82  3098.33  3099.61  3108.82  3132.54
eigval :     3132.89  3184.14  3184.20

   temp. (K)  partition function   enthalpy   heat capacity  entropy
                                   cal/mol     cal/K/mol   cal/K/mol   J/K/mol
 298.15  VIB  0.769E+23            30616.409    187.128    189.994
         ROT  0.114E+09              888.752      2.981     39.844
         INT  0.875E+31            31505.161    190.109    229.837
         TR   0.177E+29             1481.254      4.968     45.476
         TOT                       32986.4151   195.0770   275.3137  1151.9126

       T/K    H(0)-H(T)+PV         H(T)/Eh          T*S/Eh         G(T)/Eh
   ------------------------------------------------------------------------
    298.15    0.525672E-01    0.932941E+00    0.130810E+00    0.802131E+00
   ------------------------------------------------------------------------

         :::::::::::::::::::::::::::::::::::::::::::::::::::::
         ::                  THERMODYNAMIC                  ::
         :::::::::::::::::::::::::::::::::::::::::::::::::::::
         :: total free energy        -140.337827228352 Eh   ::
         ::.................................................::
         :: total energy             -141.139958216173 Eh   ::
         :: zero point energy           0.880374224771 Eh   ::
         :: G(RRHO) w/o ZPVE           -0.078243236949 Eh   ::
         :: G(RRHO) contrib.            0.802130987822 Eh   ::
         :::::::::::::::::::::::::::::::::::::::::::::::::::::

           -------------------------------------------------
          | TOTAL ENERGY             -141.139958216173 Eh   |
          | TOTAL ENTHALPY           -140.207016792904 Eh   |
          | TOTAL FREE ENERGY        -140.337827228352 Eh   |
          | GRADIENT NORM               0.000042917515 Eh/α |
          | HOMO-LUMO GAP               2.585490997687 eV   |
           -------------------------------------------------

 * finished run on 2025/08/25 at 13:56:08.089
