   * xtb version 6.7.1 (edcfbbe) compiled by 'albert@albert-system' on 2024-07-22

   ID    Z sym.   atoms
    1    6 C      1, 3, 5, 7-29, 31-50
    2   16 S      2
    3    7 N      4, 6, 30, 51
    4    1 H      52-105

          program call               : xtb data2507/gas/tCbz-mPYRs/tCbz-mPYRs.xyz --gfn 2 --ohess vtight --parallel 40 --molden --ceasefiles --namespace data2507/gas/tCbz-mPYRs/tCbz-mPYRs_gas_S0_preOpt
          :  Hamiltonian                  GFN2-xTB          :
 * total energy  :  -141.1026323 Eh     change       -0.2526122E-08 Eh
 * total energy  :  -141.1249401 Eh     change       -0.2230780E-01 Eh
 * total energy  :  -141.1321008 Eh     change       -0.7160689E-02 Eh
 * total energy  :  -141.1342972 Eh     change       -0.2196474E-02 Eh
 * total energy  :  -141.1358885 Eh     change       -0.1591223E-02 Eh
 * total energy  :  -141.1367725 Eh     change       -0.8840450E-03 Eh
 * total energy  :  -141.1373642 Eh     change       -0.5916854E-03 Eh
 * total energy  :  -141.1378563 Eh     change       -0.4920949E-03 Eh
 * total energy  :  -141.1382576 Eh     change       -0.4013050E-03 Eh
 * total energy  :  -141.1386007 Eh     change       -0.3431520E-03 Eh
 * total energy  :  -141.1398520 Eh     change       -0.3026387E-06 Eh
 * total energy  :  -141.1398523 Eh     change       -0.2962235E-06 Eh
 * total energy  :  -141.1398526 Eh     change       -0.2855837E-06 Eh
 * total energy  :  -141.1398528 Eh     change       -0.2279502E-06 Eh
 * total energy  :  -141.1398530 Eh     change       -0.1820549E-06 Eh
 * total energy  :  -141.1398531 Eh     change       -0.1484413E-06 Eh
 * total energy  :  -141.1398533 Eh     change       -0.1218014E-06 Eh
 * total energy  :  -141.1398534 Eh     change       -0.1071743E-06 Eh
 * total energy  :  -141.1398535 Eh     change       -0.8723384E-07 Eh
   *** GEOMETRY OPTIMIZATION CONVERGED AFTER 67 ITERATIONS ***

 final structure:
================
105
 xtb: 6.7.1 (edcfbbe)
C            1.71157385168365        3.49263197061554        3.95849870498692
S           -0.07433938198870        3.26370500528401        3.71665465946487
C           -0.06002977835582        1.92348055154935        2.60479639784034
N           -1.24121512167762        1.46057032495572        2.23695261007073
C           -1.25945229285551        0.47929737845492        1.34319310966713
N           -2.51181177084314        0.03259967292665        0.95623159868188
C           -3.57118672226124        0.83948784598336        0.58712004085776
C           -3.62674970242472        2.22193528113439        0.56721473628758
C           -4.78084779618040        2.81913387356075        0.11023422438080
C           -5.87299646660783        2.06711405941459       -0.33457604017177
C           -7.11599945886149        2.79651206114759       -0.82611463003330
C           -7.67116455030751        3.66188830574902        0.31392640910788
C           -6.73649674785000        3.68667105421522       -2.01811619847994
C           -8.22686415263718        1.84532510355468       -1.28152094880664
C           -5.79324848972360        0.68419251347779       -0.31247472942034
C           -4.64637296624081        0.03726664828822        0.15041535966557
C           -4.23452392661351       -1.34851250116786        0.32378802335939
C           -4.82052464181545       -2.61628557129220        0.13755585679129
C           -6.21574206136686       -2.79877425681124       -0.44041523388986
C           -7.23274857297435       -2.15892016134152        0.52008058510935
C           -6.63117106602066       -4.26874288654414       -0.59405182475289
C           -6.24931091168993       -2.19442139613606       -1.85470325304133
C           -4.07237570189344       -3.72137924610550        0.51890828599428
C           -2.81225913497364       -3.62544032557188        1.09488271936201
C           -2.21665294133724       -2.39769539843847        1.27388172781713
C           -2.91811299122418       -1.28290076703399        0.84548010890229
C           -0.08443512316456       -0.03628122076529        0.76673900013837
C           -0.09247330427703       -0.90210029560896       -0.45277332541576
C            1.09905009332857        0.47275075990055        1.31550581409646
N            2.34575644149046        0.02574690078111        0.89808922298200
C            3.38485269495692        0.83101699693409        0.47921436912463
C            3.40952511462589        2.20890424126469        0.37468015454018
C            4.55104726974796        2.81267030987725       -0.11309352953246
C            5.65847829437888        2.06177917910528       -0.50726853653721
C            6.93128220062171        2.70180258813806       -1.04616094013275
C            7.18596244810495        2.19531437093244       -2.47324576713746
C            8.11018310029110        2.31763485458550       -0.14035125132176
C            6.85071337376201        4.23009352374026       -1.09427845104378
C            5.60535496251116        0.67690441421416       -0.41121174306489
C            4.47646818492430        0.02731304198777        0.08138870136974
C            4.08625236209891       -1.35512824951678        0.31810737007775
C            4.68938680320457       -2.62101978895062        0.18129140805253
C            6.08697806934774       -2.80611691608246       -0.38993465821747
C            6.52514051484541       -4.27458855586275       -0.48121067279048
C            7.09461891264817       -2.10992788260823        0.54087079368482
C            6.10929429939060       -2.26164453638598       -1.82853019749515
C            3.95496837079210       -3.72054745291339        0.60290347690999
C            2.69087342209579       -3.61975958375647        1.16962243550637
C            2.07920950819456       -2.39419180103463        1.30306584055519
C            2.76980119796151       -1.28671483073956        0.83949004364689
N            1.11044504407281        1.44944471601112        2.21850002089516
H            2.16438721971922        3.82047654504889        3.02891065129601
H            1.82387847937474        4.25019277172623        4.72662670720786
H            2.14824470899573        2.55143079879308        4.27403939904413
H           -2.79415397688621        2.80903339249093        0.92017928707669
H           -4.82955725624747        3.89687347201270        0.10280773723152
H           -8.57002826893352        4.18119237692983       -0.01228466635776
H           -6.94767470523009        4.40480132279852        0.63713468359335
H           -7.92324702278503        3.03849218197084        1.16931483984704
H           -6.32431118034618        3.08111967490290       -2.82290445648810
H           -7.61552035099525        4.20691599687197       -2.39307714131409
H           -5.99557880584587        4.43014303645716       -1.73836243429316
H           -9.08251379120903        2.42686940216963       -1.61935565554444
H           -7.89712489485217        1.22391219974457       -2.11110999454858
H           -8.55780087996619        1.20834035514861       -0.46447860846507
H           -6.63233978771369        0.11310245922428       -0.65825442884948
H           -7.37797497938403       -2.81473963176414        1.37673841223172
H           -6.89435984684176       -1.20246777603168        0.90103299270227
H           -8.19444225056908       -2.02715237964772        0.02770907457758
H           -7.62907756524523       -4.30333104478394       -1.02760960806088
H           -5.95940073537929       -4.80757571545685       -1.25850447193357
H           -6.66794531878599       -4.77888258571290        0.36568210023789
H           -7.27626926652095       -2.06240469840495       -2.19013010044797
H           -5.75253202420543       -2.87312229230716       -2.54611966227966
H           -5.73343465842713       -1.24312062293292       -1.91022526145712
H           -4.47883658276548       -4.71022786294467        0.39487789594490
H           -2.30279702762855       -4.52388990043447        1.41016226685664
H           -1.25945786678570       -2.30062552933308        1.76115652536044
H            0.78452332396299       -0.68385956953196       -1.06092152282117
H           -0.98871261741075       -0.70277386804043       -1.03825682054218
H           -0.07765901336115       -1.96610657758916       -0.22067258738029
H            2.55473718171226        2.79525381720584        0.67324927685201
H            4.56435520512376        3.88731428932002       -0.18459102272085
H            6.34083629049645        2.43791536678028       -3.11428759231873
H            8.07669648430541        2.66586958373297       -2.88429776955580
H            7.33114219157433        1.11887417213391       -2.49496146536038
H            8.26924652730483        1.24305737359492       -0.12640223268552
H            9.02390104950163        2.79118931192629       -0.49349177661403
H            7.92277730787075        2.64721730244019        0.87955105438719
H            7.78528582854103        4.62962695035628       -1.48325177966142
H            6.69652423008876        4.64582473288665       -0.10121337259204
H            6.04762940019647        4.56008823239128       -1.74922493150846
H            6.46335679008707        0.11431949157300       -0.72976847587640
H            5.86286939102097       -4.85085320000352       -1.12330457591354
H            7.52424671782340       -4.31244961765036       -0.91174364285934
H            6.56764829133461       -4.74317588938253        0.49925837894179
H            8.05453434367549       -1.98603452441549        0.04269657968767
H            6.74235724284093       -1.14289775928359        0.88060968201500
H            7.25018959444231       -2.72556434504228        1.42505849838949
H            5.58496572373897       -1.31789483892037       -1.92230746721613
H            5.61528964007453       -2.97299263819929       -2.48824460746619
H            7.13371714843503       -2.13622761923962       -2.17457297629180
H            4.37433117396131       -4.70797991015597        0.51649653103382
H            2.19039100019597       -4.51294073715075        1.51282746853170
H            1.11657542901805       -2.29225339934968        1.77856318771410

          :  Hamiltonian                  GFN2-xTB          :
         :: gradient norm              0.000036921807 Eh/a0 ::
         :: HOMO-LUMO gap              2.581568047927 eV    ::
         :: SCC energy              -143.461910345476 Eh    ::
         :: -> dispersion             -0.141042089326 Eh    ::
         :: repulsion energy           2.322056875816 Eh    ::

    * Orbital Energies and Occupations

         #    Occupation            Energy/Eh            Energy/eV
      -------------------------------------------------------------
         1        2.0000           -0.7200015             -19.5922
       ...           ...                  ...                  ...
       120        2.0000           -0.4108059             -11.1786
       121        2.0000           -0.4096634             -11.1475
       122        2.0000           -0.4080239             -11.1029
       123        2.0000           -0.4066366             -11.0651
       124        2.0000           -0.4040013             -10.9934
       125        2.0000           -0.3960643             -10.7775
       126        2.0000           -0.3932919             -10.7020
       127        2.0000           -0.3764904             -10.2448
       128        2.0000           -0.3758211             -10.2266
       129        2.0000           -0.3728164             -10.1448
       130        2.0000           -0.3716985             -10.1144
       131        2.0000           -0.3629626              -9.8767
       132        2.0000           -0.3602085              -9.8018 (HOMO)
       133                         -0.2653377              -7.2202 (LUMO)
       134                         -0.2515330              -6.8446
       135                         -0.2418978              -6.5824
       136                         -0.2385146              -6.4903
       137                         -0.2193321              -5.9683
       138                         -0.2155475              -5.8653
       139                         -0.2003358              -5.4514
       140                         -0.1937831              -5.2731
       141                         -0.1861948              -5.0666
       142                         -0.1854521              -5.0464
       143                         -0.1828617              -4.9759
       ...                                ...                  ...
       263                          0.7293203              19.8458
      -------------------------------------------------------------
                  HL-Gap            0.0948708 Eh            2.5816 eV

     #   Z          covCN         q      C6AA      α(0)
     1   6 C        3.745    -0.059    21.707     6.646
     2  16 S        2.080    -0.104   145.419    20.296
     3   6 C        2.957     0.216    23.447     7.942
     4   7 N        1.919    -0.290    28.358     7.896
     5   6 C        2.924     0.161    24.519     8.120
     6   7 N        2.803    -0.042    22.056     6.975
     7   6 C        3.076     0.049    26.822     8.491
     8   6 C        2.909    -0.048    29.184     8.858
     9   6 C        2.931    -0.037    28.918     8.819
    10   6 C        2.971    -0.002    28.078     8.692
    11   6 C        3.903     0.025    20.095     6.372
    12   6 C        3.762    -0.106    22.565     6.771
    13   6 C        3.762    -0.105    22.559     6.771
    14   6 C        3.761    -0.108    22.603     6.777
    15   6 C        2.922    -0.055    29.357     8.885
    16   6 C        3.057    -0.017    28.388     8.738
    17   6 C        3.047    -0.022    28.509     8.757
    18   6 C        2.968     0.006    27.876     8.660
    19   6 C        3.901     0.027    20.059     6.366
    20   6 C        3.762    -0.109    22.622     6.780
    21   6 C        3.765    -0.107    22.594     6.775
    22   6 C        3.762    -0.109    22.622     6.780
    23   6 C        2.926    -0.052    29.298     8.876
    24   6 C        2.924    -0.036    28.893     8.815
    25   6 C        2.912    -0.052    29.289     8.874
    26   6 C        3.085     0.047    26.845     8.494
    27   6 C        2.958    -0.047    29.169     8.859
    28   6 C        3.755    -0.098    22.436     6.754
    29   6 C        2.925     0.159    24.557     8.127
    30   7 N        2.803    -0.046    22.122     6.986
    31   6 C        3.076     0.049    26.825     8.492
    32   6 C        2.910    -0.050    29.232     8.866
    33   6 C        2.928    -0.043    29.062     8.841
    34   6 C        2.971    -0.003    28.093     8.694
    35   6 C        3.903     0.025    20.094     6.372
    36   6 C        3.761    -0.106    22.565     6.772
    37   6 C        3.762    -0.106    22.568     6.772
    38   6 C        3.761    -0.107    22.588     6.775
    39   6 C        2.925    -0.049    29.228     8.866
    40   6 C        3.056    -0.017    28.385     8.737
    41   6 C        3.047    -0.023    28.525     8.760
    42   6 C        2.968     0.006    27.875     8.660
    43   6 C        3.901     0.027    20.059     6.366
    44   6 C        3.765    -0.107    22.595     6.775
    45   6 C        3.762    -0.108    22.603     6.777
    46   6 C        3.762    -0.108    22.606     6.778
    47   6 C        2.925    -0.052    29.298     8.877
    48   6 C        2.924    -0.035    28.877     8.813
    49   6 C        2.911    -0.052    29.301     8.876
    50   6 C        3.085     0.048    26.829     8.491
    51   7 N        1.903    -0.302    28.669     7.938
    52   1 H        0.925     0.070     2.088     2.260
    53   1 H        0.925     0.068     2.106     2.269
    54   1 H        0.925     0.074     2.041     2.234
    55   1 H        0.926     0.040     2.452     2.449
    56   1 H        0.926     0.032     2.565     2.504
    57   1 H        0.925     0.036     2.510     2.477
    58   1 H        0.925     0.037     2.489     2.467
    59   1 H        0.925     0.034     2.531     2.488
    60   1 H        0.925     0.032     2.557     2.501
    61   1 H        0.925     0.036     2.507     2.476
    62   1 H        0.925     0.036     2.503     2.474
    63   1 H        0.925     0.035     2.517     2.481
    64   1 H        0.925     0.035     2.511     2.478
    65   1 H        0.925     0.036     2.497     2.471
    66   1 H        0.926     0.057     2.229     2.335
    67   1 H        0.925     0.034     2.536     2.490
    68   1 H        0.925     0.047     2.353     2.399
    69   1 H        0.925     0.033     2.541     2.493
    70   1 H        0.925     0.038     2.478     2.462
    71   1 H        0.925     0.033     2.541     2.493
    72   1 H        0.925     0.034     2.534     2.489
    73   1 H        0.925     0.033     2.543     2.494
    74   1 H        0.925     0.033     2.550     2.497
    75   1 H        0.925     0.046     2.371     2.408
    76   1 H        0.926     0.038     2.473     2.459
    77   1 H        0.926     0.027     2.625     2.533
    78   1 H        0.926     0.020     2.728     2.583
    79   1 H        0.925     0.045     2.382     2.414
    80   1 H        0.925     0.046     2.375     2.410
    81   1 H        0.925     0.058     2.220     2.330
    82   1 H        0.926     0.030     2.589     2.516
    83   1 H        0.926     0.036     2.504     2.475
    84   1 H        0.925     0.032     2.552     2.498
    85   1 H        0.925     0.036     2.502     2.474
    86   1 H        0.925     0.037     2.495     2.470
    87   1 H        0.925     0.037     2.492     2.469
    88   1 H        0.925     0.036     2.504     2.474
    89   1 H        0.925     0.033     2.544     2.494
    90   1 H        0.925     0.035     2.514     2.479
    91   1 H        0.925     0.035     2.514     2.480
    92   1 H        0.925     0.035     2.517     2.481
    93   1 H        0.926     0.050     2.316     2.380
    94   1 H        0.925     0.034     2.534     2.489
    95   1 H        0.925     0.038     2.478     2.462
    96   1 H        0.925     0.034     2.531     2.488
    97   1 H        0.925     0.032     2.559     2.502
    98   1 H        0.925     0.046     2.365     2.405
    99   1 H        0.925     0.034     2.535     2.490
   100   1 H        0.925     0.046     2.373     2.409
   101   1 H        0.925     0.033     2.543     2.494
   102   1 H        0.925     0.032     2.560     2.502
   103   1 H        0.926     0.038     2.470     2.457
   104   1 H        0.926     0.028     2.614     2.528
   105   1 H        0.926     0.021     2.720     2.579

molecular dipole:
                 x           y           z       tot (Debye)
 q only:        0.477      -0.054      -0.743
   full:        0.709      -0.460      -0.976       3.283

 projected vibrational frequencies (cm⁻¹)
eigval :       -0.00    -0.00    -0.00     0.00     0.00     0.00
eigval :       11.31    11.78    14.57    27.35    30.28    31.68
eigval :       32.08    41.45    47.72    52.48    65.17    72.37
eigval :       75.36    76.68    85.17    88.40    90.02    96.37
eigval :      105.87   109.09   123.35   125.72   138.70   152.20
eigval :      159.90   165.40   173.33   176.06   183.90   190.34
eigval :      192.31   200.74   213.44   217.25   219.35   221.87
eigval :      225.51   226.77   231.08   233.41   244.54   249.22
eigval :      266.71   270.82   274.89   291.53   299.86   309.98
eigval :      313.62   318.76   321.35   325.22   328.01   331.01
eigval :      334.60   339.00   341.83   343.07   347.21   350.63
eigval :      352.36   366.25   369.08   377.94   390.23   410.94
eigval :      425.91   426.90   431.01   433.15   437.50   441.88
eigval :      453.21   456.57   459.10   460.99   485.99   488.08
eigval :      494.60   513.27   516.57   527.89   542.84   552.83
eigval :      555.30   565.51   582.63   603.79   606.79   609.97
eigval :      616.58   620.61   621.10   621.54   634.73   677.47
eigval :      689.37   691.18   691.51   700.19   707.78   720.38
eigval :      722.47   723.35   734.38   777.40   795.89   800.11
eigval :      800.91   803.79   813.54   820.86   827.09   858.89
eigval :      875.12   875.18   879.95   887.79   899.57   900.69
eigval :      902.59   906.29   914.58   914.73   915.78   919.48
eigval :      944.43   944.78   953.86   956.20   959.89   960.04
eigval :      960.35   961.29   962.65   963.04   963.16   965.21
eigval :      965.61   965.85   981.65   981.83  1010.34  1011.65
eigval :     1030.33  1030.53  1035.51  1036.04  1036.07  1036.77
eigval :     1036.88  1037.19  1039.70  1042.01  1047.78  1096.59
eigval :     1122.14  1125.82  1133.82  1136.62  1143.46  1170.01
eigval :     1172.48  1188.25  1191.22  1196.54  1197.23  1223.53
eigval :     1223.79  1224.71  1224.83  1227.87  1228.18  1231.65
eigval :     1232.56  1242.38  1247.33  1251.10  1264.97  1266.96
eigval :     1270.97  1278.42  1284.01  1288.05  1290.82  1309.49
eigval :     1319.05  1323.47  1328.91  1341.55  1342.89  1350.43
eigval :     1353.59  1362.30  1384.44  1387.57  1403.59  1404.32
eigval :     1405.26  1406.05  1406.52  1406.53  1408.57  1408.79
eigval :     1414.74  1419.85  1424.12  1428.20  1429.45  1430.00
eigval :     1431.08  1434.46  1434.91  1436.71  1454.40  1461.64
eigval :     1468.86  1472.39  1475.38  1487.44  1488.32  1489.67
eigval :     1490.30  1492.68  1493.41  1495.19  1495.28  1498.84
eigval :     1500.76  1501.92  1503.33  1505.57  1507.37  1512.56
eigval :     1513.95  1514.17  1514.81  1515.52  1516.43  1517.16
eigval :     1517.97  1518.78  1520.79  1521.76  1530.74  1534.27
eigval :     1534.61  1567.89  1569.03  1576.71  1579.31  1596.22
eigval :     1597.12  1605.51  1607.92  3002.46  3014.61  3016.13
eigval :     3017.71  3018.51  3020.07  3020.21  3021.13  3022.15
eigval :     3022.30  3022.59  3023.17  3023.34  3023.71  3026.06
eigval :     3026.87  3026.90  3027.05  3027.41  3029.12  3030.08
eigval :     3030.69  3030.94  3032.47  3032.99  3034.87  3035.77
eigval :     3036.15  3036.26  3037.63  3038.16  3046.87  3047.52
eigval :     3048.90  3050.69  3052.75  3053.14  3066.75  3080.15
eigval :     3081.61  3084.84  3085.91  3087.11  3087.92  3091.57
eigval :     3095.10  3095.57  3097.65  3108.03  3120.98  3132.49
eigval :     3132.95  3153.61  3183.99

   temp. (K)  partition function   enthalpy   heat capacity  entropy
                                   cal/mol     cal/K/mol   cal/K/mol   J/K/mol
 298.15  VIB  0.776E+23            30615.171    187.150    189.999
         ROT  0.114E+09              888.752      2.981     39.840
         INT  0.881E+31            31503.923    190.131    229.839
         TR   0.177E+29             1481.254      4.968     45.476
         TOT                       32985.1768   195.0988   275.3157  1151.9208

       T/K    H(0)-H(T)+PV         H(T)/Eh          T*S/Eh         G(T)/Eh
   ------------------------------------------------------------------------
    298.15    0.525652E-01    0.932925E+00    0.130811E+00    0.802113E+00
   ------------------------------------------------------------------------

         :::::::::::::::::::::::::::::::::::::::::::::::::::::
         ::                  THERMODYNAMIC                  ::
         :::::::::::::::::::::::::::::::::::::::::::::::::::::
         :: total free energy        -140.337740328744 Eh   ::
         ::.................................................::
         :: total energy             -141.139853469698 Eh   ::
         :: zero point energy           0.880359283945 Eh   ::
         :: G(RRHO) w/o ZPVE           -0.078246142990 Eh   ::
         :: G(RRHO) contrib.            0.802113140955 Eh   ::
         :::::::::::::::::::::::::::::::::::::::::::::::::::::

           -------------------------------------------------
          | TOTAL ENERGY             -141.139853469698 Eh   |
          | TOTAL ENTHALPY           -140.206928960552 Eh   |
          | TOTAL FREE ENERGY        -140.337740328744 Eh   |
          | GRADIENT NORM               0.000036951820 Eh/α |
          | HOMO-LUMO GAP               2.581565832368 eV   |
           -------------------------------------------------

 * finished run on 2025/08/25 at 13:39:58.233
