   * xtb version 6.7.1 (edcfbbe) compiled by 'albert@albert-system' on 2024-07-22

   ID    Z sym.   atoms
    1    8 O      1, 30
    2   15 P      2, 29
    3    6 C      3-18, 20-28, 31-47
    4    7 N      19
    5    1 H      48-78

          program call               : xtb data2507/gas/PPO21/PPO21_gas_S0_crest.xyz --gfn 2 --ohess vtight --parallel 40 --molden --ceasefiles --namespace data2507/gas/PPO21/PPO21_gas_S0_finalOpt
          :  Hamiltonian                  GFN2-xTB          :
 * total energy  :  -121.9429065 Eh     change       -0.7129302E-09 Eh
 * total energy  :  -121.9429078 Eh     change       -0.1295665E-05 Eh
 * total energy  :  -121.9429090 Eh     change       -0.1234563E-05 Eh
 * total energy  :  -121.9429124 Eh     change       -0.3434291E-05 Eh
 * total energy  :  -121.9429148 Eh     change       -0.2360878E-05 Eh
 * total energy  :  -121.9429170 Eh     change       -0.2171064E-05 Eh
 * total energy  :  -121.9429199 Eh     change       -0.2925735E-05 Eh
 * total energy  :  -121.9429227 Eh     change       -0.2792730E-05 Eh
 * total energy  :  -121.9429246 Eh     change       -0.1870857E-05 Eh
 * total energy  :  -121.9429260 Eh     change       -0.1478986E-05 Eh
 * total energy  :  -121.9429544 Eh     change       -0.3881666E-06 Eh
 * total energy  :  -121.9429548 Eh     change       -0.4108088E-06 Eh
 * total energy  :  -121.9429554 Eh     change       -0.5687645E-06 Eh
 * total energy  :  -121.9429563 Eh     change       -0.9320242E-06 Eh
 * total energy  :  -121.9429577 Eh     change       -0.1336387E-05 Eh
 * total energy  :  -121.9429589 Eh     change       -0.1231737E-05 Eh
 * total energy  :  -121.9429597 Eh     change       -0.7930257E-06 Eh
 * total energy  :  -121.9429602 Eh     change       -0.5545305E-06 Eh
 * total energy  :  -121.9429602 Eh     change       -0.4545868E-08 Eh
   *** GEOMETRY OPTIMIZATION CONVERGED AFTER 44 ITERATIONS ***

 final structure:
================
78
 xtb: 6.7.1 (edcfbbe)
O           -6.64960881165715        1.52129166854814       -0.79116183151218
P           -5.87261315566728        0.36173242366556       -0.34001847872083
C           -6.38520063045094       -0.26429260003160        1.29288271838857
C           -6.19331848664308       -1.57710026646475        1.70215632758068
C           -6.60405292937914       -1.96733793091940        2.96434162521311
C           -7.20548012091003       -1.05318506481196        3.81488859547515
C           -7.40477189677931        0.25469177038681        3.40325543130065
C           -6.99506926634268        0.64827805441191        2.14224461671345
C           -5.98571257116559       -1.06985104504472       -1.46256390980861
C           -7.16253369475858       -1.18730231137902       -2.18911578810823
C           -7.34213141984895       -2.25481677523683       -3.04980706428597
C           -6.34317294207130       -3.20535117018398       -3.18560081725819
C           -5.16462462769490       -3.08473706653071       -2.46673296382542
C           -4.98225254515698       -2.01856356897169       -1.60392062343174
C           -4.09064132075319        0.71250664206224       -0.18481817243380
C           -3.58987194478273        1.73047705422899       -0.98542905919533
C           -2.24757969629314        2.05063650013549       -0.95268835791928
C           -1.39139318037103        1.35379756879038       -0.10279045237305
N           -0.02870733542766        1.67321438578152       -0.05943177192971
C            0.49979436244694        2.94367660505170        0.08454718843202
C           -0.14898524848584        4.15494607099558        0.27472027873647
C            0.63060900806471        5.28643234906995        0.42218472776874
C            2.02188867451522        5.22199695283648        0.39099676799878
C            2.67315024751830        4.01592966222152        0.22733944996369
C            1.91041877018548        2.86519008055546        0.07792396300814
C            2.24105865580623        1.47635999976853       -0.08295303674262
C            3.44278191315534        0.79232373060449       -0.17819611353584
C            3.40468356581943       -0.58115850856229       -0.35398551805570
P            4.90242371711490       -1.60714628963184       -0.46445229659552
O            4.70297300375184       -2.86018009808616       -1.20211181094333
C            6.17056543062700       -0.52629201251250       -1.20462630479491
C            6.37247906365690       -0.65680061926481       -2.57136541308312
C            7.30205734907912        0.14006933846772       -3.21455880187001
C            8.03132201413899        1.06893096702249       -2.48999049706044
C            7.83618336626357        1.19488760310702       -1.12373852325943
C            6.90741815046467        0.39869430482575       -0.47744527860394
C            5.45328697173152       -1.86621299160446        1.25524082373320
C            5.17928171879322       -0.98402053689460        2.29129071767001
C            5.65534623205734       -1.25134096386878        3.56274799473558
C            6.40196756836891       -2.39409365284991        3.80129745259899
C            6.66937815265422       -3.27877541654545        2.76896784730319
C            6.19445906206299       -3.01450863061308        1.49728682314891
C            2.18836360738063       -1.25916699370375       -0.46044146974591
C            0.98191951263686       -0.59680432874853       -0.37112986721189
C            1.01268552595875        0.77582981851740       -0.15946755406664
C           -1.89638193615621        0.34095088639861        0.71051677815826
C           -3.23884019171404        0.02034605905963        0.66618625377281
H           -5.73846881082074       -2.29228418143410        1.03095267623798
H           -6.45837135470386       -2.98871564230012        3.28519170618813
H           -7.52542340901253       -1.36426451693685        4.79853548947329
H           -7.88072141837930        0.96403074828571        4.06425284083592
H           -7.14971549985345        1.65854083285897        1.79117788921774
H           -7.92045131178403       -0.42563042849370       -2.07354448769477
H           -8.25767165919381       -2.34653921697759       -3.61538785124543
H           -6.47971214633523       -4.03990395734189       -3.85751721833368
H           -4.38417587748815       -3.82305857690801       -2.58105139029008
H           -4.05880051330219       -1.91692796056464       -1.05108453458043
H           -4.27296021224256        2.26416370502767       -1.63026662384125
H           -1.85115407350246        2.82571070787300       -1.59136385195040
H           -1.22582228089766        4.21408913217113        0.31849343995691
H            0.14954170529394        6.24204396554891        0.56824837558679
H            2.59468537241820        6.12990336848363        0.50608976269463
H            3.75135156171805        3.96227246221173        0.21788651940804
H            4.38349547058308        1.32140070106197       -0.13452109490624
H            5.79803866823432       -1.39673875206262       -3.11027562196802
H            7.46017797683979        0.03789140732634       -4.27822196596203
H            8.75852196435761        1.69277292820422       -2.98891395712001
H            8.41272759319737        1.91437832075895       -0.56010409052940
H            6.76385313291272        0.48509816097148        0.59074698979233
H            4.58671695689491       -0.09896426131450        2.10541105138690
H            5.44193821994356       -0.56709639191988        4.37147612862491
H            6.77123535682643       -2.59732272186192        4.79593937498664
H            7.24631802903205       -4.17235756424285        2.95729444119943
H            6.37898056461045       -3.69343549566564        0.67696331210455
H            2.21884037190524       -2.32542585098683       -0.63125528814527
H            0.04777136911137       -1.12734843271509       -0.47679413337651
H           -1.23347011218091       -0.17756522598339        1.38744221682019
H           -3.62919903674185       -0.75540747245434        1.30940672618870

          :  Hamiltonian                  GFN2-xTB          :
         :: gradient norm              0.000042093891 Eh/a0 ::
         :: HOMO-LUMO gap              3.027375323262 eV    ::
         :: SCC energy              -124.144726644465 Eh    ::
         :: -> dispersion             -0.111032259178 Eh    ::
         :: repulsion energy           2.201766398855 Eh    ::

    * Orbital Energies and Occupations

         #    Occupation            Energy/Eh            Energy/eV
      -------------------------------------------------------------
         1        2.0000           -0.6950161             -18.9124
       ...           ...                  ...                  ...
       101        2.0000           -0.4185764             -11.3900
       102        2.0000           -0.4179931             -11.3742
       103        2.0000           -0.4175164             -11.3612
       104        2.0000           -0.4163175             -11.3286
       105        2.0000           -0.4137137             -11.2577
       106        2.0000           -0.4133323             -11.2473
       107        2.0000           -0.4114905             -11.1972
       108        2.0000           -0.4055034             -11.0343
       109        2.0000           -0.4036776             -10.9846
       110        2.0000           -0.3982644             -10.8373
       111        2.0000           -0.3978818             -10.8269
       112        2.0000           -0.3886215             -10.5749
       113        2.0000           -0.3734327             -10.1616 (HOMO)
       114                         -0.2621787              -7.1342 (LUMO)
       115                         -0.2542095              -6.9174
       116                         -0.2539263              -6.9097
       117                         -0.2475590              -6.7364
       118                         -0.2456983              -6.6858
       119                         -0.2442345              -6.6460
       120                         -0.2413175              -6.5666
       121                         -0.2372345              -6.4555
       122                         -0.2362422              -6.4285
       123                         -0.2340652              -6.3692
       124                         -0.2322407              -6.3196
       ...                                ...                  ...
       229                          1.1927822              32.4573
      -------------------------------------------------------------
                  HL-Gap            0.1112540 Eh            3.0274 eV

     #   Z          covCN         q      C6AA      α(0)
     1   8 O        0.808    -0.354    20.796     6.113
     2  15 P        4.081     0.063   157.446    22.540
     3   6 C        2.921     0.013    27.726     8.635
     4   6 C        2.971    -0.027    28.665     8.782
     5   6 C        2.920    -0.028    28.696     8.785
     6   6 C        2.920    -0.025    28.620     8.773
     7   6 C        2.919    -0.026    28.660     8.779
     8   6 C        3.031    -0.019    28.462     8.751
     9   6 C        2.921     0.013    27.718     8.634
    10   6 C        3.034    -0.019    28.449     8.749
    11   6 C        2.919    -0.026    28.653     8.778
    12   6 C        2.920    -0.024    28.615     8.772
    13   6 C        2.920    -0.028    28.689     8.783
    14   6 C        2.969    -0.026    28.658     8.781
    15   6 C        2.920     0.009    27.809     8.648
    16   6 C        3.031    -0.019    28.449     8.749
    17   6 C        2.921    -0.041    29.017     8.834
    18   6 C        2.914     0.068    26.481     8.438
    19   7 N        2.803    -0.039    21.997     6.966
    20   6 C        3.075     0.047    26.859     8.497
    21   6 C        2.910    -0.049    29.215     8.863
    22   6 C        2.924    -0.031    28.778     8.797
    23   6 C        2.920    -0.039    28.961     8.825
    24   6 C        2.912    -0.031    28.783     8.797
    25   6 C        3.067    -0.016    28.330     8.728
    26   6 C        3.069    -0.016    28.336     8.728
    27   6 C        2.969    -0.030    28.757     8.796
    28   6 C        2.921     0.003    27.949     8.670
    29  15 P        4.087     0.054   157.834    22.568
    30   8 O        0.808    -0.355    20.826     6.117
    31   6 C        2.921     0.014    27.694     8.630
    32   6 C        3.031    -0.019    28.456     8.750
    33   6 C        2.919    -0.027    28.669     8.780
    34   6 C        2.920    -0.025    28.638     8.776
    35   6 C        2.920    -0.028    28.708     8.786
    36   6 C        2.970    -0.026    28.659     8.781
    37   6 C        2.921     0.014    27.693     8.630
    38   6 C        2.969    -0.027    28.666     8.782
    39   6 C        2.920    -0.028    28.711     8.787
    40   6 C        2.920    -0.026    28.643     8.776
    41   6 C        2.919    -0.027    28.673     8.781
    42   6 C        3.032    -0.019    28.458     8.750
    43   6 C        3.038    -0.025    28.588     8.770
    44   6 C        2.909    -0.049    29.228     8.865
    45   6 C        3.073     0.050    26.809     8.490
    46   6 C        2.922    -0.042    29.053     8.839
    47   6 C        2.968    -0.026    28.648     8.779
    48   1 H        0.926     0.038     2.474     2.460
    49   1 H        0.926     0.037     2.495     2.470
    50   1 H        0.926     0.038     2.470     2.458
    51   1 H        0.926     0.040     2.445     2.445
    52   1 H        0.926     0.061     2.184     2.311
    53   1 H        0.926     0.061     2.193     2.316
    54   1 H        0.926     0.041     2.442     2.444
    55   1 H        0.926     0.039     2.462     2.454
    56   1 H        0.926     0.037     2.483     2.464
    57   1 H        0.926     0.036     2.502     2.473
    58   1 H        0.926     0.068     2.113     2.273
    59   1 H        0.926     0.049     2.327     2.386
    60   1 H        0.926     0.032     2.558     2.501
    61   1 H        0.926     0.034     2.528     2.487
    62   1 H        0.926     0.032     2.556     2.500
    63   1 H        0.926     0.033     2.547     2.496
    64   1 H        0.926     0.040     2.447     2.446
    65   1 H        0.926     0.060     2.197     2.318
    66   1 H        0.926     0.039     2.467     2.456
    67   1 H        0.926     0.037     2.495     2.470
    68   1 H        0.926     0.034     2.524     2.484
    69   1 H        0.925     0.037     2.491     2.468
    70   1 H        0.926     0.038     2.482     2.463
    71   1 H        0.926     0.034     2.526     2.486
    72   1 H        0.926     0.036     2.500     2.472
    73   1 H        0.926     0.038     2.470     2.458
    74   1 H        0.926     0.060     2.203     2.321
    75   1 H        0.926     0.061     2.182     2.310
    76   1 H        0.926     0.034     2.529     2.487
    77   1 H        0.926     0.045     2.381     2.413
    78   1 H        0.926     0.045     2.387     2.416

molecular dipole:
                 x           y           z       tot (Debye)
 q only:        0.203       0.159       1.062
   full:        0.344       0.143       1.300       3.437

 projected vibrational frequencies (cm⁻¹)
eigval :       -0.00    -0.00    -0.00     0.00     0.00     0.00
eigval :        6.33     8.05    12.58    19.27    22.76    24.27
eigval :       26.44    31.77    38.08    40.77    42.46    46.59
eigval :       52.92    62.24    74.20    93.27   105.45   119.22
eigval :      137.31   141.29   150.07   158.03   158.46   172.70
eigval :      191.44   206.36   216.96   221.39   226.36   229.10
eigval :      253.79   269.22   281.02   283.21   283.74   314.78
eigval :      320.18   352.30   362.70   362.77   364.05   364.11
eigval :      373.67   377.32   389.75   399.60   404.71   420.18
eigval :      427.16   441.16   442.74   445.06   458.89   481.83
eigval :      500.70   515.75   520.42   535.07   537.14   562.87
eigval :      568.92   585.68   585.82   586.45   586.46   595.52
eigval :      600.30   626.27   657.98   658.34   658.63   658.96
eigval :      669.24   675.07   679.71   687.29   706.48   709.92
eigval :      715.08   716.39   739.76   741.63   743.11   745.03
eigval :      753.55   776.51   808.63   814.26   818.89   871.00
eigval :      877.33   879.00   879.61   880.35   882.46   884.53
eigval :      902.99   903.13   904.47   905.23   906.48   908.35
eigval :      909.76   921.22   926.37   927.56   927.60   929.24
eigval :      929.82   933.08   933.27   933.95   934.34   934.89
eigval :      935.66   972.40   972.63   975.46   975.49  1011.44
eigval :     1021.55  1072.11  1078.15  1078.33  1078.63  1078.67
eigval :     1100.42  1113.21  1113.24  1115.32  1115.36  1121.09
eigval :     1123.81  1125.73  1127.34  1127.66  1129.81  1130.97
eigval :     1150.63  1177.05  1179.23  1180.53  1180.67  1180.75
eigval :     1180.86  1191.24  1191.43  1193.36  1194.00  1198.88
eigval :     1225.84  1243.19  1256.96  1260.63  1263.81  1269.36
eigval :     1269.78  1272.34  1273.96  1275.86  1302.43  1320.52
eigval :     1321.42  1321.73  1321.77  1321.87  1354.74  1359.73
eigval :     1363.49  1396.10  1416.14  1424.12  1424.48  1424.93
eigval :     1425.33  1427.25  1453.45  1453.85  1454.17  1454.86
eigval :     1463.97  1479.91  1483.06  1560.44  1567.73  1581.85
eigval :     1583.69  1583.89  1583.97  1584.09  1584.89  1586.70
eigval :     1587.22  1587.53  1588.01  1591.52  1610.80  3065.70
eigval :     3066.14  3067.19  3067.74  3073.82  3073.92  3074.22
eigval :     3075.48  3075.55  3076.83  3077.20  3078.54  3078.85
eigval :     3079.19  3080.70  3081.53  3081.94  3083.53  3083.62
eigval :     3085.09  3085.21  3085.40  3090.06  3090.99  3091.44
eigval :     3091.62  3092.08  3092.82  3093.49  3094.36  3099.16

   temp. (K)  partition function   enthalpy   heat capacity  entropy
                                   cal/mol     cal/K/mol   cal/K/mol   J/K/mol
 298.15  VIB  0.477E+21            23787.457    142.598    151.116
         ROT  0.107E+09              888.752      2.981     39.728
         INT  0.512E+29            24676.210    145.579    190.843
         TR   0.158E+29             1481.254      4.968     45.248
         TOT                       26157.4636   150.5468   236.0911   987.8054

       T/K    H(0)-H(T)+PV         H(T)/Eh          T*S/Eh         G(T)/Eh
   ------------------------------------------------------------------------
    298.15    0.416846E-01    0.634163E+00    0.112175E+00    0.521988E+00
   ------------------------------------------------------------------------

         :::::::::::::::::::::::::::::::::::::::::::::::::::::
         ::                  THERMODYNAMIC                  ::
         :::::::::::::::::::::::::::::::::::::::::::::::::::::
         :: total free energy        -121.420971960573 Eh   ::
         ::.................................................::
         :: total energy             -121.942960245610 Eh   ::
         :: zero point energy           0.592478234890 Eh   ::
         :: G(RRHO) w/o ZPVE           -0.070489949853 Eh   ::
         :: G(RRHO) contrib.            0.521988285038 Eh   ::
         :::::::::::::::::::::::::::::::::::::::::::::::::::::

           -------------------------------------------------
          | TOTAL ENERGY             -121.942960245610 Eh   |
          | TOTAL ENTHALPY           -121.308797439098 Eh   |
          | TOTAL FREE ENERGY        -121.420971960573 Eh   |
          | GRADIENT NORM               0.000042089429 Eh/α |
          | HOMO-LUMO GAP               3.027375217238 eV   |
           -------------------------------------------------

 * finished run on 2025/09/13 at 09:52:31.368
