   * xtb version 6.7.1 (edcfbbe) compiled by 'albert@albert-system' on 2024-07-22

   ID    Z sym.   atoms
    1    8 O      1, 30
    2   15 P      2, 29
    3    6 C      3-18, 20-28, 31-47
    4    7 N      19
    5    1 H      48-78

          program call               : xtb data2507/gas/PPO21/PPO21_gas_S0_finalOpt.xtbopt.xyz --gfn 2 --spinpol --tblite --uhf 2 --ohess vtight --parallel 40 --molden --ceasefiles --namespace data2507/gas/PPO21/PPO21_gas_T1_preOpt
 * total energy  :  -121.8274748 Eh     change       -0.4128722E-08 Eh
 * total energy  :  -121.8304426 Eh     change       -0.2967824E-02 Eh
 * total energy  :  -121.8314069 Eh     change       -0.9642479E-03 Eh
 * total energy  :  -121.8316629 Eh     change       -0.2559869E-03 Eh
 * total energy  :  -121.8319118 Eh     change       -0.2489770E-03 Eh
 * total energy  :  -121.8320415 Eh     change       -0.1296539E-03 Eh
 * total energy  :  -121.8321512 Eh     change       -0.1096641E-03 Eh
 * total energy  :  -121.8322159 Eh     change       -0.6470244E-04 Eh
 * total energy  :  -121.8322553 Eh     change       -0.3939930E-04 Eh
 * total energy  :  -121.8322814 Eh     change       -0.2617328E-04 Eh
 * total energy  :  -121.8329305 Eh     change       -0.2729348E-05 Eh
 * total energy  :  -121.8329335 Eh     change       -0.2959775E-05 Eh
 * total energy  :  -121.8329358 Eh     change       -0.2331146E-05 Eh
 * total energy  :  -121.8329377 Eh     change       -0.1882671E-05 Eh
 * total energy  :  -121.8329392 Eh     change       -0.1570379E-05 Eh
 * total energy  :  -121.8329406 Eh     change       -0.1354264E-05 Eh
 * total energy  :  -121.8329419 Eh     change       -0.1310830E-05 Eh
 * total energy  :  -121.8329432 Eh     change       -0.1302676E-05 Eh
 * total energy  :  -121.8329432 Eh     change       -0.2604450E-07 Eh
   *** GEOMETRY OPTIMIZATION CONVERGED AFTER 122 ITERATIONS ***

 final structure:
================
78
 xtb: 6.7.1 (edcfbbe)
O           -6.55450534426436        1.34056075922564       -1.37248778296354
P           -5.81837800073660        0.28335865976298       -0.66705436724632
C           -6.41994246883900       -0.00326996504205        1.03094869204375
C           -6.21073029843868       -1.19212688280874        1.71969372192087
C           -6.64489694698624       -1.31022321402045        3.02694793703458
C           -7.27930066865808       -0.24687248699633        3.65037987023257
C           -7.48634187509235        0.93991038685850        2.96317317205333
C           -7.05130078702792        1.06345585836426        1.65737560407558
C           -5.97427491816722       -1.35244532390671       -1.47105387415321
C           -7.22290643686798       -1.95651312158727       -1.42348648680572
C           -7.43455001433389       -3.15827431735445       -2.07310889006609
C           -6.39709502399814       -3.75489079021346       -2.77299863257753
C           -5.15453339788251       -3.14605054727170       -2.82992587830514
C           -4.94092937410900       -1.94104325716552       -2.18211892946939
C           -4.06806589977192        0.62153279488210       -0.48049771542596
C           -3.57615064786191        1.85685930323685       -0.96442861010027
C           -2.27007225116997        2.20040997830462       -0.81703175935618
C           -1.35608584087363        1.30223718291730       -0.17422222159419
N           -0.03246210449764        1.62309071371027       -0.04782872005309
C            0.47101367880225        2.87917697339420        0.26969320218270
C           -0.20514765461803        4.03521542263772        0.61762013383714
C            0.54568616222439        5.16642943094170        0.92258902018914
C            1.93873953903390        5.13091429130932        0.89409582666616
C            2.62561034773113        3.96660218513281        0.59234455212098
C            1.89572079907813        2.81961762872181        0.29393251515145
C            2.25620899036332        1.47208038329796       -0.00013617733500
C            3.47162023796285        0.81199759542132       -0.12139049860519
C            3.46492760375748       -0.52874716958500       -0.47889192329916
P            4.98899011232891       -1.50538951305138       -0.65536635831568
O            4.85586867315188       -2.64071633838330       -1.57476102481855
C            6.27256489598192       -0.31272877363124       -1.15821609451748
C            6.56685061709988       -0.25625893292187       -2.51330237104139
C            7.51904771920470        0.63206024998369       -2.97906489754535
C            8.17797465611614        1.46475347204600       -2.08884335891469
C            7.89042046621088        1.40334945268914       -0.73449063218996
C            6.93911424475542        0.51530337987226       -0.26484885137113
C            5.44470357877477       -2.00129134293596        1.04057904100166
C            5.09787231115244       -1.27902675628919        2.17405727110685
C            5.50872587322002       -1.72141200597478        3.41913995284263
C            6.26250783626505       -2.87847729108635        3.53405283452400
C            6.60271823520710       -3.60295792226744        2.40299255843651
C            6.19277175267074       -3.16437447395026        1.15708751655920
C            2.26768542489602       -1.20659735335281       -0.74862749553243
C            1.04257633609368       -0.56774674527119       -0.62933210954833
C            1.03451914761955        0.75533894082280       -0.21757852776111
C           -1.85931935910569        0.06413701238739        0.32493023899947
C           -3.17421557433471       -0.25191841778875        0.19764776052343
H           -5.73469623728585       -2.02753886865838        1.22511630783382
H           -6.49196221585540       -2.23654149614416        3.56209830685668
H           -7.61615655150739       -0.34527479060366        4.67191425810445
H           -7.98732442417640        1.76546930777684        3.44747411107349
H           -7.20847245644520        1.97324027937689        1.09552320803173
H           -8.01883743276321       -1.47008635072263       -0.87437040179402
H           -8.40544746133662       -3.63055887475030       -2.03674677076585
H           -6.55983636957930       -4.69485457063814       -3.27978055082502
H           -4.35008590261996       -3.60947443106866       -3.38267735101335
H           -3.97601778634936       -1.45466357194897       -2.22747575533366
H           -4.27112501287288        2.49766556797477       -1.48726456673774
H           -1.87707384620314        3.09901841974880       -1.26761326679125
H           -1.28172743593307        4.06343692206268        0.67944369952187
H            0.03979744945999        6.07928480049881        1.19366758041335
H            2.49187539542306        6.02787044326560        1.13006039132490
H            3.70444657420509        3.94278938709185        0.59249090181523
H            4.40115663570316        1.33826804930751        0.03783736721734
H            6.04630466737557       -0.92473868760698       -3.18408191142127
H            7.74958182897096        0.67552271709431       -4.03337280222246
H            8.92264814093327        2.15926282944806       -2.44920381527448
H            8.41281334461952        2.04745421625391       -0.04176287703887
H            6.72493221121009        0.45423330355446        0.79320540949753
H            4.50010628129995       -0.38262463662868        2.08346156685909
H            5.23844259649076       -1.16277459397223        4.30372018428275
H            6.58038906751881       -3.21844603115332        4.50880062496366
H            7.18524286355045       -4.50791488450213        2.49411037159164
H            6.43415495256553       -3.71668131134380        0.26008735850079
H            2.32576634065627       -2.23351685551900       -1.07385705532626
H            0.13015202519502       -1.08801864535379       -0.87610525990112
H           -1.19153607569601       -0.57350048474698        0.88507915148653
H           -3.55908969205444       -1.16789506687396        0.61969978264309

 projected vibrational frequencies (cm⁻¹)
eigval :       -0.00    -0.00     0.00     0.00     0.00     0.00
eigval :        6.10     8.10    11.30    18.18    23.34    24.05
eigval :       26.62    32.14    38.21    43.60    45.43    52.50
eigval :       54.70    59.96    79.81    93.97   104.03   117.77
eigval :      133.46   136.88   146.23   156.21   158.13   169.84
eigval :      182.83   202.46   210.43   217.37   227.27   235.80
eigval :      249.42   260.60   269.58   278.32   281.92   288.42
eigval :      306.60   332.44   361.50   362.71   364.10   365.27
eigval :      367.28   371.30   374.63   382.63   400.71   405.30
eigval :      413.05   420.63   435.79   440.32   455.40   458.86
eigval :      487.31   491.98   508.37   513.62   538.02   549.72
eigval :      560.09   571.18   581.48   583.62   585.35   585.59
eigval :      586.81   607.97   626.53   650.42   651.74   653.84
eigval :      657.52   658.05   660.40   680.57   684.83   694.97
eigval :      706.55   713.05   727.28   738.41   739.19   741.00
eigval :      744.35   752.93   777.65   788.64   789.77   806.92
eigval :      845.88   852.46   862.77   872.91   875.53   877.18
eigval :      878.63   881.02   884.99   896.93   897.28   900.13
eigval :      901.32   902.87   904.24   906.55   909.73   925.00
eigval :      925.39   927.41   928.16   929.32   933.02   933.72
eigval :      934.45   950.78   967.20   971.31   972.83   974.49
eigval :     1000.47  1021.79  1039.57  1064.69  1075.05  1077.02
eigval :     1077.86  1078.27  1084.95  1109.88  1110.56  1111.83
eigval :     1112.69  1113.20  1115.63  1121.99  1122.21  1125.07
eigval :     1126.34  1164.08  1169.98  1179.08  1179.82  1180.38
eigval :     1180.40  1180.50  1188.30  1188.90  1190.23  1190.81
eigval :     1193.49  1200.50  1226.18  1233.92  1253.21  1257.78
eigval :     1262.62  1268.24  1269.09  1270.04  1273.42  1285.92
eigval :     1294.11  1314.06  1319.68  1321.34  1321.87  1322.35
eigval :     1324.29  1358.44  1379.88  1384.04  1422.33  1422.51
eigval :     1423.97  1424.82  1425.55  1440.65  1447.37  1448.91
eigval :     1453.13  1453.75  1454.57  1469.40  1475.07  1478.97
eigval :     1529.05  1544.28  1564.23  1569.82  1577.66  1582.10
eigval :     1583.33  1584.38  1584.80  1585.81  1585.94  3054.40
eigval :     3061.44  3062.53  3065.49  3066.10  3072.51  3074.85
eigval :     3074.92  3075.16  3075.63  3077.52  3077.90  3078.05
eigval :     3079.52  3080.56  3081.30  3082.27  3083.29  3084.48
eigval :     3084.82  3089.27  3090.38  3090.45  3091.09  3091.94
eigval :     3092.29  3092.80  3094.19  3097.00  3102.42  3108.11

   temp. (K)  partition function   enthalpy   heat capacity  entropy
                                   cal/mol     cal/K/mol   cal/K/mol   J/K/mol
 298.15  VIB  0.712E+21            24189.020    145.565    153.627
         ROT  0.107E+09              888.752      2.981     39.725
         INT  0.763E+29            25077.772    148.546    193.352
         TR   0.158E+29             1481.254      4.968     45.248
         TOT                       26559.0263   153.5139   238.5994   998.2999

       T/K    H(0)-H(T)+PV         H(T)/Eh          T*S/Eh         G(T)/Eh
   ------------------------------------------------------------------------
    298.15    0.423245E-01    0.628870E+00    0.113366E+00    0.515504E+00
   ------------------------------------------------------------------------

         :::::::::::::::::::::::::::::::::::::::::::::::::::::
         ::                  THERMODYNAMIC                  ::
         :::::::::::::::::::::::::::::::::::::::::::::::::::::
         :: total free energy        -121.317439324495 Eh   ::
         ::.................................................::
         :: total energy             -121.832943237361 Eh   ::
         :: zero point energy           0.586545689916 Eh   ::
         :: G(RRHO) w/o ZPVE           -0.071041777049 Eh   ::
         :: G(RRHO) contrib.            0.515503912866 Eh   ::
         :::::::::::::::::::::::::::::::::::::::::::::::::::::

           -------------------------------------------------
          | TOTAL ENERGY             -121.832943237361 Eh   |
          | TOTAL ENTHALPY           -121.204073044916 Eh   |
          | TOTAL FREE ENERGY        -121.317439324495 Eh   |
          | GRADIENT NORM               0.000069770597 Eh/α |
           -------------------------------------------------

 * finished run on 2025/09/13 at 09:52:50.113
