   * xtb version 6.7.1 (edcfbbe) compiled by 'albert@albert-system' on 2024-07-22

   ID    Z sym.   atoms
    1    8 O      1, 30
    2   15 P      2, 29
    3    6 C      3-18, 20-28, 31-47
    4    7 N      19
    5    1 H      48-78

          program call               : xtb data2507/gas/PPO21/PPO21.xyz --gfn 2 --ohess vtight --parallel 40 --molden --ceasefiles --namespace data2507/gas/PPO21/PPO21_gas_S0_preOpt
          :  Hamiltonian                  GFN2-xTB          :
 * total energy  :  -121.9203614 Eh     change       -0.7430714E-09 Eh
 * total energy  :  -121.9358564 Eh     change       -0.1549507E-01 Eh
 * total energy  :  -121.9401788 Eh     change       -0.4322395E-02 Eh
 * total energy  :  -121.9408116 Eh     change       -0.6327553E-03 Eh
 * total energy  :  -121.9413468 Eh     change       -0.5351742E-03 Eh
 * total energy  :  -121.9415337 Eh     change       -0.1869144E-03 Eh
 * total energy  :  -121.9417034 Eh     change       -0.1696821E-03 Eh
 * total energy  :  -121.9418528 Eh     change       -0.1494598E-03 Eh
 * total energy  :  -121.9419936 Eh     change       -0.1407942E-03 Eh
 * total energy  :  -121.9421061 Eh     change       -0.1125120E-03 Eh
 * total energy  :  -121.9428456 Eh     change       -0.2878303E-06 Eh
 * total energy  :  -121.9428459 Eh     change       -0.2209783E-06 Eh
 * total energy  :  -121.9428460 Eh     change       -0.1869497E-06 Eh
 * total energy  :  -121.9428462 Eh     change       -0.1641495E-06 Eh
 * total energy  :  -121.9428464 Eh     change       -0.2105976E-06 Eh
 * total energy  :  -121.9428467 Eh     change       -0.2778527E-06 Eh
 * total energy  :  -121.9428470 Eh     change       -0.2975336E-06 Eh
 * total energy  :  -121.9428472 Eh     change       -0.1922289E-06 Eh
 * total energy  :  -121.9428473 Eh     change       -0.8903515E-07 Eh
   *** GEOMETRY OPTIMIZATION CONVERGED AFTER 85 ITERATIONS ***

 final structure:
================
78
 xtb: 6.7.1 (edcfbbe)
O           -6.08484186657352        0.87675886977128        2.43854283630994
P           -5.72449021741570        0.65130116195825        1.03457087479971
C           -6.73333942181099       -0.63298737895972        0.22488067969664
C           -8.02258507837223       -0.79692850536558        0.71231505986678
C           -8.86523353249816       -1.73402086685469        0.14271741671710
C           -8.41786912085377       -2.50934989461875       -0.91492074894969
C           -7.12812540427086       -2.35227649248452       -1.39686134604336
C           -6.28271538983684       -1.41514161947543       -0.82976535597531
C           -5.89911282640941        2.13448016912557       -0.00949900505953
C           -5.77747003351892        3.35956605365134        0.63132260723864
C           -5.87936653818033        4.53338169811115       -0.09302861360669
C           -6.10460927307128        4.48204200409722       -1.45919910319466
C           -6.23492168389688        3.25927187674562       -2.09844045186416
C           -6.13316677851372        2.08308998195600       -1.37705395866855
C           -3.99499870542553        0.11821832914049        0.81770664265694
C           -3.40735576595449       -0.52932028936450        1.89631176156181
C           -2.10226523056474       -0.97195264161947        1.82016365585567
C           -1.37239878254704       -0.77470913858846        0.64978158983521
N           -0.04934938968570       -1.22476118635358        0.56174144073552
C            0.39437042601336       -2.49475864307414        0.88402262231710
C           -0.32586739156387       -3.60319047718600        1.30474212628017
C            0.37026873166125       -4.77519578033552        1.53198969246919
C            1.74762428270687       -4.85381288611354        1.33860763511014
C            2.46576613185019       -3.76106733101753        0.89617027205659
C            1.78754590204771       -2.57223669649225        0.66183597764601
C            2.19776173129009       -1.27892696172617        0.18976602529613
C            3.42607819452251       -0.74773878659842       -0.17270516522451
C            3.47556980261077        0.57628140420882       -0.57436167842676
P            5.01537060418919        1.41821882312346       -1.05588029579944
O            4.82101368956907        2.46494382202173       -2.06627068266567
C            5.72678222586666        2.04365438592436        0.50216976320582
C            6.52784193305224        3.17307299359788        0.41017600417900
C            7.11846204490416        3.69838039482771        1.54507519562665
C            6.90690141896664        3.09405791514384        2.77382343650281
C            6.10070094305905        1.97080762320942        2.86804724998950
C            5.50861678784478        1.44292221930289        1.73450678258769
C            6.14905778368134        0.09623542749701       -1.59469397418578
C            6.27183201218640       -0.09584297264641       -2.96352448567076
C            7.10128932298202       -1.08847329332285       -3.45328922737699
C            7.81004669366894       -1.88988769306676       -2.57304057280606
C            7.69441259476689       -1.69405193739393       -1.20585917765517
C            6.86595965386091       -0.70171383765223       -0.71301563451888
C            2.32177765116469        1.36347862161417       -0.60220939687603
C            1.09094947495347        0.85516974692492       -0.24360314204309
C            1.03067602370289       -0.47894849344278        0.13953066901068
C           -1.96130926617312       -0.12249418990585       -0.43188257951621
C           -3.26424982394018        0.32682514793584       -0.34474054689986
H           -8.34213392324589       -0.18742645595564        1.54556671237907
H           -9.86852455182364       -1.86177700981815        0.52166200884227
H           -9.07320398791126       -3.24222995239674       -1.36223938569780
H           -6.77957116193538       -2.96391072084985       -2.21654302314072
H           -5.27251831029637       -1.29956888092014       -1.19712791328682
H           -5.61395091553683        3.37098913159192        1.69950314655233
H           -5.78520557877806        5.48716340269602        0.40493985505679
H           -6.18518739900526        5.39682652208123       -2.02777487493817
H           -6.41910405303357        3.22301020691878       -3.16244757886928
H           -6.24864931834077        1.12821033199884       -1.87086168221345
H           -3.98684532035372       -0.65931350645714        2.79889002977026
H           -1.63448549632405       -1.45362696246049        2.66577405136358
H           -1.39587870999604       -3.55903350128715        1.44029663593311
H           -0.16716060371873       -5.65122200453323        1.86338786990197
H            2.25457564412090       -5.78774733981717        1.52942176791227
H            3.53023496819865       -3.82530094664750        0.72812725570012
H            4.31868863291959       -1.35548379383625       -0.14788983521426
H            6.66670019370380        3.63120467420807       -0.55872652359589
H            7.74162684918333        4.57784414227757        1.47426280638415
H            7.36622553027845        3.50211893455850        3.66232915992719
H            5.93119453923123        1.50678108508085        3.82909457381764
H            4.86836476186691        0.57441931137405        1.80610295734277
H            5.71631604098958        0.55075121832986       -3.62770618172364
H            7.19780331880864       -1.23742795393169       -4.51882038651798
H            8.45956391980408       -2.66547978949099       -2.95192294535456
H            8.25500717178398       -2.31535031917538       -0.52213107761344
H            6.78502468438562       -0.53776304974681        0.35251918960513
H            2.41859618508417        2.39073347983002       -0.92269493620107
H            0.20955171620501        1.47836585477117       -0.25005175791272
H           -1.39543945658147        0.01713309902883       -1.34108338609450
H           -3.71265290972566        0.84473711632785       -1.18052840663952

          :  Hamiltonian                  GFN2-xTB          :
         :: gradient norm              0.000064990479 Eh/a0 ::
         :: HOMO-LUMO gap              3.028609564436 eV    ::
         :: SCC energy              -124.144482198329 Eh    ::
         :: -> dispersion             -0.110933670236 Eh    ::
         :: repulsion energy           2.201634921263 Eh    ::

    * Orbital Energies and Occupations

         #    Occupation            Energy/Eh            Energy/eV
      -------------------------------------------------------------
         1        2.0000           -0.6950367             -18.9129
       ...           ...                  ...                  ...
       101        2.0000           -0.4182391             -11.3809
       102        2.0000           -0.4180334             -11.3753
       103        2.0000           -0.4176971             -11.3661
       104        2.0000           -0.4162424             -11.3265
       105        2.0000           -0.4133217             -11.2471
       106        2.0000           -0.4128400             -11.2339
       107        2.0000           -0.4113135             -11.1924
       108        2.0000           -0.4055033             -11.0343
       109        2.0000           -0.4035503             -10.9812
       110        2.0000           -0.3980512             -10.8315
       111        2.0000           -0.3971825             -10.8079
       112        2.0000           -0.3884524             -10.5703
       113        2.0000           -0.3734083             -10.1610 (HOMO)
       114                         -0.2621089              -7.1323 (LUMO)
       115                         -0.2540446              -6.9129
       116                         -0.2539701              -6.9109
       117                         -0.2477040              -6.7404
       118                         -0.2447782              -6.6608
       119                         -0.2438167              -6.6346
       120                         -0.2413846              -6.5684
       121                         -0.2371819              -6.4540
       122                         -0.2364944              -6.4353
       123                         -0.2338853              -6.3643
       124                         -0.2319089              -6.3106
       ...                                ...                  ...
       229                          1.1920304              32.4368
      -------------------------------------------------------------
                  HL-Gap            0.1112993 Eh            3.0286 eV

     #   Z          covCN         q      C6AA      α(0)
     1   8 O        0.808    -0.353    20.791     6.112
     2  15 P        4.081     0.063   157.454    22.541
     3   6 C        2.921     0.013    27.715     8.633
     4   6 C        3.034    -0.019    28.448     8.749
     5   6 C        2.919    -0.026    28.655     8.778
     6   6 C        2.920    -0.025    28.621     8.773
     7   6 C        2.920    -0.028    28.696     8.785
     8   6 C        2.969    -0.027    28.666     8.782
     9   6 C        2.921     0.013    27.725     8.635
    10   6 C        3.032    -0.019    28.458     8.750
    11   6 C        2.919    -0.026    28.653     8.778
    12   6 C        2.920    -0.024    28.613     8.772
    13   6 C        2.920    -0.028    28.692     8.784
    14   6 C        2.971    -0.027    28.666     8.782
    15   6 C        2.920     0.009    27.813     8.648
    16   6 C        3.031    -0.019    28.457     8.750
    17   6 C        2.921    -0.041    29.020     8.834
    18   6 C        2.914     0.068    26.484     8.439
    19   7 N        2.803    -0.039    21.997     6.966
    20   6 C        3.075     0.047    26.861     8.497
    21   6 C        2.910    -0.049    29.219     8.864
    22   6 C        2.924    -0.031    28.785     8.798
    23   6 C        2.920    -0.039    28.963     8.825
    24   6 C        2.912    -0.031    28.781     8.797
    25   6 C        3.067    -0.015    28.326     8.727
    26   6 C        3.069    -0.016    28.334     8.728
    27   6 C        2.966    -0.031    28.759     8.796
    28   6 C        2.921     0.004    27.940     8.668
    29  15 P        4.088     0.055   157.809    22.566
    30   8 O        0.808    -0.355    20.822     6.117
    31   6 C        2.921     0.014    27.702     8.631
    32   6 C        3.029    -0.019    28.462     8.751
    33   6 C        2.919    -0.027    28.672     8.781
    34   6 C        2.921    -0.025    28.638     8.776
    35   6 C        2.920    -0.028    28.705     8.786
    36   6 C        2.971    -0.026    28.654     8.780
    37   6 C        2.921     0.015    27.689     8.629
    38   6 C        3.030    -0.019    28.458     8.750
    39   6 C        2.919    -0.027    28.672     8.781
    40   6 C        2.920    -0.025    28.639     8.776
    41   6 C        2.920    -0.028    28.711     8.787
    42   6 C        2.971    -0.027    28.661     8.782
    43   6 C        3.041    -0.024    28.566     8.766
    44   6 C        2.909    -0.049    29.221     8.864
    45   6 C        3.073     0.050    26.808     8.489
    46   6 C        2.922    -0.043    29.058     8.840
    47   6 C        2.969    -0.026    28.645     8.779
    48   1 H        0.926     0.061     2.187     2.313
    49   1 H        0.926     0.040     2.442     2.444
    50   1 H        0.926     0.038     2.470     2.457
    51   1 H        0.926     0.036     2.500     2.472
    52   1 H        0.926     0.037     2.495     2.470
    53   1 H        0.926     0.061     2.188     2.313
    54   1 H        0.926     0.041     2.439     2.442
    55   1 H        0.926     0.039     2.462     2.453
    56   1 H        0.926     0.037     2.493     2.469
    57   1 H        0.926     0.038     2.482     2.463
    58   1 H        0.926     0.067     2.115     2.274
    59   1 H        0.926     0.049     2.333     2.388
    60   1 H        0.926     0.030     2.582     2.513
    61   1 H        0.926     0.033     2.540     2.492
    62   1 H        0.926     0.032     2.558     2.501
    63   1 H        0.926     0.033     2.544     2.494
    64   1 H        0.926     0.040     2.452     2.449
    65   1 H        0.926     0.060     2.203     2.321
    66   1 H        0.926     0.039     2.468     2.457
    67   1 H        0.926     0.037     2.495     2.470
    68   1 H        0.926     0.035     2.520     2.483
    69   1 H        0.925     0.037     2.490     2.468
    70   1 H        0.926     0.061     2.190     2.314
    71   1 H        0.926     0.038     2.470     2.457
    72   1 H        0.926     0.036     2.497     2.471
    73   1 H        0.926     0.034     2.524     2.484
    74   1 H        0.926     0.038     2.478     2.462
    75   1 H        0.926     0.060     2.204     2.322
    76   1 H        0.926     0.035     2.510     2.477
    77   1 H        0.926     0.046     2.365     2.405
    78   1 H        0.926     0.045     2.384     2.414

molecular dipole:
                 x           y           z       tot (Debye)
 q only:       -0.147      -1.130      -0.282
   full:       -0.093      -1.344      -0.362       3.547

 projected vibrational frequencies (cm⁻¹)
eigval :       -0.00    -0.00    -0.00     0.00     0.00     0.00
eigval :        4.66     7.52    12.20    20.31    23.58    24.55
eigval :       25.31    32.37    35.94    41.52    43.24    44.77
eigval :       53.76    62.52    72.61    96.03   104.25   119.02
eigval :      139.90   141.56   147.63   158.09   158.31   172.51
eigval :      191.80   198.14   218.71   224.79   228.50   230.04
eigval :      246.76   271.78   281.63   283.17   284.07   314.88
eigval :      322.01   352.47   362.60   362.95   364.00   364.26
eigval :      364.63   376.63   391.51   395.58   414.04   418.45
eigval :      427.77   439.65   444.02   446.14   459.48   480.81
eigval :      499.23   516.04   520.76   533.75   536.61   563.80
eigval :      570.64   585.71   585.78   586.41   586.54   595.63
eigval :      600.49   625.65   658.01   658.28   658.54   659.02
eigval :      668.78   675.43   680.40   688.35   705.42   709.86
eigval :      715.35   716.41   739.70   741.54   743.30   745.20
eigval :      753.57   776.40   807.54   816.25   818.41   870.87
eigval :      877.04   879.16   879.80   880.56   882.57   884.37
eigval :      903.13   903.23   904.46   905.71   906.26   907.70
eigval :      910.06   921.38   926.73   927.63   927.63   929.37
eigval :      929.83   933.05   933.52   933.97   934.35   934.88
eigval :      935.82   972.38   972.77   975.47   975.54  1011.47
eigval :     1021.65  1072.11  1078.02  1078.17  1078.57  1078.60
eigval :     1100.43  1112.77  1113.31  1115.27  1115.34  1121.13
eigval :     1124.01  1125.93  1127.50  1127.58  1129.80  1131.10
eigval :     1151.23  1177.04  1179.30  1180.52  1180.64  1180.74
eigval :     1180.87  1190.99  1191.28  1193.48  1193.93  1199.00
eigval :     1226.49  1243.36  1256.92  1260.31  1263.88  1269.30
eigval :     1269.46  1272.60  1273.98  1275.69  1302.61  1320.55
eigval :     1321.59  1321.68  1321.79  1321.88  1354.42  1359.22
eigval :     1363.62  1396.08  1416.06  1424.08  1424.49  1424.90
eigval :     1425.49  1427.40  1453.71  1453.96  1454.33  1454.59
eigval :     1464.80  1479.82  1483.11  1560.38  1567.59  1581.96
eigval :     1583.61  1583.79  1583.88  1584.26  1584.91  1586.64
eigval :     1587.14  1587.49  1588.01  1591.48  1610.72  3064.57
eigval :     3066.87  3067.29  3067.43  3073.82  3074.10  3074.78
eigval :     3075.46  3075.75  3076.99  3077.57  3078.19  3078.74
eigval :     3079.31  3080.35  3080.42  3081.38  3083.64  3083.87
eigval :     3084.48  3085.03  3085.35  3090.46  3091.01  3091.25
eigval :     3091.56  3092.29  3092.86  3093.42  3093.78  3098.59

   temp. (K)  partition function   enthalpy   heat capacity  entropy
                                   cal/mol     cal/K/mol   cal/K/mol   J/K/mol
 298.15  VIB  0.698E+21            23794.774    142.575    151.494
         ROT  0.107E+09              888.752      2.981     39.724
         INT  0.748E+29            24683.526    145.556    191.218
         TR   0.158E+29             1481.254      4.968     45.248
         TOT                       26164.7804   150.5242   236.4658   989.3731

       T/K    H(0)-H(T)+PV         H(T)/Eh          T*S/Eh         G(T)/Eh
   ------------------------------------------------------------------------
    298.15    0.416962E-01    0.634161E+00    0.112353E+00    0.521808E+00
   ------------------------------------------------------------------------

         :::::::::::::::::::::::::::::::::::::::::::::::::::::
         ::                  THERMODYNAMIC                  ::
         :::::::::::::::::::::::::::::::::::::::::::::::::::::
         :: total free energy        -121.421038879982 Eh   ::
         ::.................................................::
         :: total energy             -121.942847277070 Eh   ::
         :: zero point energy           0.592464713924 Eh   ::
         :: G(RRHO) w/o ZPVE           -0.070656316836 Eh   ::
         :: G(RRHO) contrib.            0.521808397088 Eh   ::
         :::::::::::::::::::::::::::::::::::::::::::::::::::::

           -------------------------------------------------
          | TOTAL ENERGY             -121.942847277070 Eh   |
          | TOTAL ENTHALPY           -121.308686331487 Eh   |
          | TOTAL FREE ENERGY        -121.421038879982 Eh   |
          | GRADIENT NORM               0.000065005950 Eh/α |
          | HOMO-LUMO GAP               3.028608787849 eV   |
           -------------------------------------------------

 * finished run on 2025/09/13 at 09:39:39.601
