   * xtb version 6.7.1 (edcfbbe) compiled by 'albert@albert-system' on 2024-07-22

   ID    Z sym.   atoms
    1    8 O      1, 30
    2   15 P      2, 29
    3    6 C      3-18, 20-28, 31-47
    4    7 N      19
    5    1 H      48-78

          program call               : xtb data2507/gas/PPO21/PPO21_gas_T1_crest.xyz --gfn 2 --spinpol --tblite --uhf 2 --ohess vtight --parallel 40 --molden --ceasefiles --namespace data2507/gas/PPO21/PPO21_gas_T1_finalOpt
 * total energy  :  -121.8331457 Eh     change       -0.3099430E-07 Eh
 * total energy  :  -121.8331699 Eh     change       -0.2421650E-04 Eh
 * total energy  :  -121.8331870 Eh     change       -0.1705751E-04 Eh
 * total energy  :  -121.8331907 Eh     change       -0.3721625E-05 Eh
 * total energy  :  -121.8331931 Eh     change       -0.2351882E-05 Eh
 * total energy  :  -121.8331947 Eh     change       -0.1636184E-05 Eh
 * total energy  :  -121.8331980 Eh     change       -0.3307284E-05 Eh
 * total energy  :  -121.8332008 Eh     change       -0.2760990E-05 Eh
 * total energy  :  -121.8332030 Eh     change       -0.2183609E-05 Eh
 * total energy  :  -121.8332052 Eh     change       -0.2236965E-05 Eh
 * total energy  :  -121.8332651 Eh     change       -0.2100952E-06 Eh
 * total energy  :  -121.8332654 Eh     change       -0.2494676E-06 Eh
 * total energy  :  -121.8332655 Eh     change       -0.1793574E-06 Eh
 * total energy  :  -121.8332658 Eh     change       -0.2427663E-06 Eh
 * total energy  :  -121.8332660 Eh     change       -0.2580917E-06 Eh
 * total energy  :  -121.8332661 Eh     change       -0.2599897E-07 Eh
 * total energy  :  -121.8332662 Eh     change       -0.1124539E-06 Eh
 * total energy  :  -121.8332663 Eh     change       -0.1630565E-06 Eh
 * total energy  :  -121.8332664 Eh     change       -0.5402073E-07 Eh
   *** GEOMETRY OPTIMIZATION CONVERGED AFTER 57 ITERATIONS ***

 final structure:
================
78
 xtb: 6.7.1 (edcfbbe)
O           -6.31056705235017        0.38899029052186       -1.88000346814704
P           -5.52703296549961       -0.27158768063578       -0.82790759831759
C           -6.25191942689750       -0.08259100383665        0.83463674562091
C           -5.96073425774362       -0.93537045726587        1.89291786691889
C           -6.50046974191951       -0.68539357645429        3.14076991752700
C           -7.32099241118400        0.41445116676225        3.33891061997687
C           -7.60864296631753        1.26716017229587        2.28359045396474
C           -7.06950198100445        1.02235093994493        1.03508332858374
C           -5.40717147873005       -2.08185438078189       -1.05992810234173
C           -6.56169564155410       -2.82201747767046       -0.84706376203545
C           -6.56303605338153       -4.18424069914574       -1.08280029538146
C           -5.40955756778690       -4.80622651317161       -1.53502638433346
C           -4.26113327201398       -4.06540350611001       -1.75935991328524
C           -4.25840218264078       -2.70054421928611       -1.52635752795009
C           -3.85638001460754        0.35894499514129       -0.66629693537171
C           -3.49497875056366        1.48078142447106       -1.44802806721781
C           -2.27039878906544        2.05768109664481       -1.32757712694362
C           -1.30946286126564        1.52354695039844       -0.40908203014734
N           -0.06521139353714        2.08057386039560       -0.29598440274195
C            0.21337293123900        3.44570854609605       -0.29182603222197
C           -0.65909221632614        4.51836914077330       -0.31183077351839
C           -0.11895684581252        5.80183224696719       -0.26536878977952
C            1.25583614260734        5.99737393173845       -0.18298575313522
C            2.13532059591720        4.92672233534412       -0.11599293069910
C            1.61670229916745        3.63703258998196       -0.15270610453528
C            2.20164183331836        2.33917962660541       -0.05061174363214
C            3.49914013214592        1.87805099761417        0.09836063449867
C            3.73042852436967        0.51091234430182        0.09614328125183
P            5.45356671357955       -0.01681728861938        0.29024701134644
O            6.38263151225117        1.09680530915456        0.51933190833873
C            5.42258679959743       -1.22455304680787        1.65484756424180
C            5.77835866150609       -0.75361334976676        2.91083038323395
C            5.75718216256403       -1.60413939600264        4.00117667331858
C            5.37561812815419       -2.92602343663116        3.83579308659424
C            5.02232005604804       -3.39758963812739        2.58117492085319
C            5.04301460435754       -2.54980056857922        1.48860990245801
C            5.87270888291588       -1.00333729155153       -1.18766122648594
C            7.05679639600650       -1.72648624234207       -1.12983227313496
C            7.48397213460879       -2.44363198420889       -2.23157412353923
C            6.72902971471977       -2.43375983346832       -3.39437799410511
C            5.55445881603289       -1.70268656876367       -3.45586787350429
C            5.12425366034356       -0.98287131409470       -2.35375513973814
C            2.67629993848562       -0.41173939024811       -0.05490517881966
C            1.37161849246160        0.02718563980666       -0.18814755617759
C            1.12598665541372        1.39347191429617       -0.15465569364353
C           -1.68014500322892        0.39639708166205        0.38188619496804
C           -2.92046889475728       -0.14825481121991        0.27478527358153
H           -5.33641831155780       -1.80337772243344        1.73226648014815
H           -6.28395490167297       -1.35223083697218        3.96315905047321
H           -7.73918077264580        0.60466990637730        4.31644838918252
H           -8.25324708998082        2.12033780807958        2.43732721021840
H           -7.28509565225206        1.66485026321636        0.19318286007749
H           -7.45186414778318       -2.31464757226400       -0.49809835085885
H           -7.46045112365033       -4.76224570293505       -0.91677309401729
H           -5.40810827883804       -5.87082716603525       -1.71822790887864
H           -3.36607529942696       -4.55174171655457       -2.11995763663922
H           -3.36893700612261       -2.11205644070345       -1.70650076377661
H           -4.21696399957759        1.83871252116483       -2.16748507111011
H           -1.96502285575989        2.85699104912165       -1.98554343206029
H           -1.72845148110415        4.37826928299493       -0.33519642229266
H           -0.78097787597952        6.65292968340971       -0.28349891187493
H            1.64345839201399        7.00472013049166       -0.15307926697737
H            3.19871959021478        5.08474074903710       -0.02966676556062
H            4.33648872414685        2.55249538344531        0.20008808205507
H            6.08328040939833        0.27862374488858        3.00897472563314
H            6.03880850731181       -1.23980667743996        4.97826311199110
H            5.35841653623442       -3.59315793279988        4.68515942044418
H            4.73341554778311       -4.43102515499886        2.45451470184954
H            4.78528899813181       -2.91939837932758        0.50576228172118
H            7.63288526817374       -1.71398178167660       -0.21366985923624
H            8.40373100878263       -3.00832678256118       -2.18753205283967
H            7.06060357435668       -2.99353356934107       -4.25658131884895
H            4.97227741587271       -1.69054951307031       -4.36589601535316
H            4.21024081329296       -0.40685035384775       -2.39718256166728
H            2.89672675989362       -1.46684572144084       -0.08110680799480
H            0.57259717434993       -0.68208579019599       -0.34129809179134
H           -0.98720382813827        0.04518369154794        1.13216201233338
H           -3.21257850718742       -0.96999745861913        0.91113089315899

 projected vibrational frequencies (cm⁻¹)
eigval :       -0.00    -0.00    -0.00     0.00     0.00     0.00
eigval :        4.88     9.11    11.02    14.47    20.78    24.26
eigval :       25.14    33.98    40.34    46.22    50.34    53.45
eigval :       56.79    62.31    77.80    93.74   103.56   118.68
eigval :      128.03   137.63   145.85   153.70   156.73   166.57
eigval :      177.25   189.67   207.11   230.79   236.32   238.03
eigval :      248.68   260.68   267.24   272.05   279.23   295.85
eigval :      306.75   333.45   352.19   361.47   361.84   365.29
eigval :      365.58   373.69   380.17   383.61   398.17   404.52
eigval :      408.07   423.50   435.55   446.92   459.53   464.59
eigval :      484.02   492.63   494.01   515.10   537.84   552.25
eigval :      558.11   569.84   583.63   583.84   585.27   585.66
eigval :      588.25   607.79   627.83   646.91   650.70   651.94
eigval :      657.14   659.75   661.28   681.80   685.78   693.33
eigval :      707.39   714.09   726.72   738.46   739.06   740.16
eigval :      741.27   755.68   773.26   782.31   790.17   809.01
eigval :      848.74   853.70   863.76   872.08   875.05   877.49
eigval :      877.88   878.90   885.99   896.22   896.97   900.25
eigval :      901.02   903.24   904.13   905.47   910.46   924.73
eigval :      925.56   926.34   927.74   927.95   933.06   933.11
eigval :      933.72   951.46   967.40   971.04   973.33   975.12
eigval :      998.88  1010.43  1055.92  1068.74  1075.04  1076.88
eigval :     1077.11  1077.89  1080.01  1109.66  1110.10  1111.91
eigval :     1112.72  1113.49  1113.92  1120.67  1122.76  1126.71
eigval :     1127.12  1164.03  1170.44  1179.12  1180.19  1180.47
eigval :     1180.52  1186.98  1188.03  1188.59  1189.20  1190.45
eigval :     1192.90  1200.29  1223.05  1236.49  1246.50  1256.26
eigval :     1258.07  1268.34  1269.96  1270.21  1271.38  1294.54
eigval :     1300.40  1319.34  1319.65  1322.83  1322.98  1324.26
eigval :     1327.28  1354.94  1383.22  1389.24  1417.20  1422.46
eigval :     1423.65  1425.64  1425.87  1435.60  1446.54  1447.57
eigval :     1452.20  1454.93  1455.39  1461.05  1472.51  1483.08
eigval :     1528.41  1548.16  1560.62  1569.15  1574.73  1580.77
eigval :     1582.97  1585.00  1585.09  1586.56  1586.99  3054.63
eigval :     3056.27  3060.79  3061.65  3063.65  3066.61  3072.57
eigval :     3073.86  3074.22  3075.49  3076.45  3076.73  3077.15
eigval :     3079.26  3080.44  3082.29  3083.03  3084.06  3085.54
eigval :     3086.42  3087.41  3088.81  3089.94  3090.32  3090.70
eigval :     3091.80  3092.42  3095.21  3102.56  3103.83  3108.04

   temp. (K)  partition function   enthalpy   heat capacity  entropy
                                   cal/mol     cal/K/mol   cal/K/mol   J/K/mol
 298.15  VIB  0.946E+21            24202.740    145.859    154.260
         ROT  0.108E+09              888.752      2.981     39.743
         INT  0.102E+30            25091.492    148.840    194.003
         TR   0.158E+29             1481.254      4.968     45.248
         TOT                       26572.7459   153.8082   239.2506  1001.0243

       T/K    H(0)-H(T)+PV         H(T)/Eh          T*S/Eh         G(T)/Eh
   ------------------------------------------------------------------------
    298.15    0.423464E-01    0.628796E+00    0.113676E+00    0.515121E+00
   ------------------------------------------------------------------------

         :::::::::::::::::::::::::::::::::::::::::::::::::::::
         ::                  THERMODYNAMIC                  ::
         :::::::::::::::::::::::::::::::::::::::::::::::::::::
         :: total free energy        -121.318145851827 Eh   ::
         ::.................................................::
         :: total energy             -121.833266440786 Eh   ::
         :: zero point energy           0.586449883720 Eh   ::
         :: G(RRHO) w/o ZPVE           -0.071329294761 Eh   ::
         :: G(RRHO) contrib.            0.515120588959 Eh   ::
         :::::::::::::::::::::::::::::::::::::::::::::::::::::

           -------------------------------------------------
          | TOTAL ENERGY             -121.833266440786 Eh   |
          | TOTAL ENTHALPY           -121.204470190977 Eh   |
          | TOTAL FREE ENERGY        -121.318145851827 Eh   |
          | GRADIENT NORM               0.000149507671 Eh/α |
           -------------------------------------------------

 * finished run on 2025/09/13 at 10:07:06.494
