   * xtb version 6.7.1 (edcfbbe) compiled by 'albert@albert-system' on 2024-07-22

   ID    Z sym.   atoms
    1    6 C      1-12, 14, 16-18, 20-25, 27-36, 38-43, 45-54
    2    7 N      13, 19, 37
    3    8 O      15, 26, 44, 55
    4    1 H      56-92

          program call               : xtb data2507/gas/2PN/2PN.xyz --gfn 2 --ohess vtight --parallel 40 --molden --ceasefiles --namespace data2507/gas/2PN/2PN_gas_S0_preOpt
          :  Hamiltonian                  GFN2-xTB          :
 * total energy  :  -146.7971539 Eh     change       -0.4036309E-08 Eh
 * total energy  :  -146.8129314 Eh     change       -0.1577752E-01 Eh
 * total energy  :  -146.8183322 Eh     change       -0.5400802E-02 Eh
 * total energy  :  -146.8199268 Eh     change       -0.1594561E-02 Eh
 * total energy  :  -146.8211007 Eh     change       -0.1173901E-02 Eh
 * total energy  :  -146.8216193 Eh     change       -0.5186149E-03 Eh
 * total energy  :  -146.8218512 Eh     change       -0.2319044E-03 Eh
 * total energy  :  -146.8219825 Eh     change       -0.1313223E-03 Eh
 * total energy  :  -146.8220848 Eh     change       -0.1022361E-03 Eh
 * total energy  :  -146.8221697 Eh     change       -0.8489415E-04 Eh
 * total energy  :  -146.8256941 Eh     change       -0.1378428E-06 Eh
 * total energy  :  -146.8256942 Eh     change       -0.1162342E-06 Eh
 * total energy  :  -146.8256943 Eh     change       -0.1216912E-06 Eh
 * total energy  :  -146.8256944 Eh     change       -0.1307220E-06 Eh
 * total energy  :  -146.8256946 Eh     change       -0.1586597E-06 Eh
 * total energy  :  -146.8256948 Eh     change       -0.1922971E-06 Eh
 * total energy  :  -146.8256950 Eh     change       -0.1920458E-06 Eh
 * total energy  :  -146.8256951 Eh     change       -0.1577354E-06 Eh
 * total energy  :  -146.8256951 Eh     change       -0.1916675E-08 Eh
   *** GEOMETRY OPTIMIZATION CONVERGED AFTER 94 ITERATIONS ***

 final structure:
================
92
 xtb: 6.7.1 (edcfbbe)
C           -2.06800835717001       -3.73879269861354       -3.22573673864808
C           -0.57095719874565       -3.96377478980216       -2.97963969103964
C            0.21092645870363       -2.66387277242927       -3.17556565729526
C           -0.39756831726865       -4.66573753777825       -1.64864871982706
C           -0.44845564231147       -6.05664474390761       -1.67095881404449
C           -0.36029805892906       -6.80276664280263       -0.51384424153649
C           -0.22441029899911       -6.16793669211453        0.70451553324604
C           -0.17285849272844       -4.78353416010053        0.77843875102415
C           -0.01911275218324       -4.11147672848901        2.12327324643440
C           -1.16272042973716       -4.50494942391479        3.06037047092655
C            1.34626654537447       -4.45310912214534        2.72416102672951
C           -0.25736101095212       -4.04972194752231       -0.40653621346912
N           -0.16869403502196       -2.61586289310778       -0.30594243967223
C           -1.35802332713355       -1.92084983096721       -0.17898310482348
O           -2.42416582350585       -2.49941652236556       -0.17615497705193
C           -1.23954839868775       -0.45608077260430       -0.05293310219594
C           -2.37821626285107        0.31470253416166        0.01226674228822
C           -2.28520672499300        1.71302862598068        0.13264572162570
N           -3.46066172680150        2.48082215800875        0.18887144190887
C           -3.72658233187624        3.46206229169905       -0.77366278379099
C           -2.88045271866522        3.70305622122111       -1.84877029923875
C           -3.17952693597813        4.67989928621265       -2.78609291592367
C           -4.33432748119321        5.42674645062247       -2.67162245929680
C           -5.20689352014811        5.17596360828107       -1.62397065225863
C           -4.91508811289006        4.19957995029820       -0.68880263845216
O           -5.84721332484934        3.98773909430083        0.29387846901825
C           -5.57832363890485        3.01672543944670        1.22480407603583
C           -6.52329124394467        2.82140193404302        2.21532986500719
C           -6.30764930002139        1.88324251588618        3.21315301186640
C           -5.13196680648425        1.16049552465087        3.22392005586025
C           -4.18166454094340        1.35281269373910        2.23296133189018
C           -4.39946216554858        2.26060935778535        1.20422728149912
C           -1.04689455350848        2.31893314135240        0.18377706574282
C            0.13475287536933        1.55775105891062        0.10503510097356
C            1.41390816293261        2.14296024906555        0.16227841663316
C            2.55221023454452        1.36698601477801        0.08970095311965
N            3.82604217707608        1.95858680968162        0.12688456880403
C            4.74199266238815        1.59831203147596        1.12287725847384
C            4.41450999040322        0.72508139831785        2.15253007619337
C            5.34554882939568        0.39079692995339        3.12383040362184
C            6.61311440485353        0.93580048052274        3.09257279111277
C            6.94335840549488        1.83939240164230        2.09421179416122
C            6.01804792670393        2.17585217270890        1.12318190533485
O            6.40698737060884        3.10390102137080        0.19090849076980
C            5.49844053001621        3.45163595316124       -0.77505919483008
C            5.91213246904412        4.37874263739262       -1.71439635799615
C            5.06705796712672        4.75631932685385       -2.74643113752509
C            3.81479628237523        4.18420312580889       -2.84146728581973
C            3.39386716503179        3.25772161029583       -1.89984325736959
C            4.21457907400833        2.89384697356482       -0.83971645006102
C            2.44283011649609       -0.02985183080651       -0.03323422009466
C            1.20531417604604       -0.63063010916707       -0.07746823715165
C            0.03286502202891        0.14776807261889       -0.00898939589558
C            1.11256352377054       -2.09596970475951       -0.20787705220494
O            2.08457683347837       -2.82031840136051       -0.23091761017526
H           -2.59364535560217       -4.69052973019178       -3.25092557465657
H           -2.22055179140288       -3.23053279957197       -4.17556749917842
H           -2.50253025490076       -3.13793379518265       -2.43130320930907
H           -0.21032238686833       -4.66554039809165       -3.74142759550019
H            1.22569327741927       -2.76073436001842       -2.79656105707648
H            0.26784892754731       -2.43933132643869       -4.23945217521977
H           -0.27477934389240       -1.82068958503005       -2.68943078494221
H           -0.55662218195864       -6.55946841942364       -2.62126272577480
H           -0.39659944264859       -7.88105364266865       -0.56203415635490
H           -0.15448129050486       -6.75531983171360        1.60679044656860
H           -0.06266743433089       -3.02438789393522        1.99768210926297
H           -1.13857873579129       -5.56742251498564        3.28648874106418
H           -2.11964476277126       -4.27151069741159        2.59835232841368
H           -1.08399697745514       -3.95447917870991        3.99577131337714
H            1.48660990543171       -3.92430878386194        3.66484925278121
H            1.43073727536144       -5.52030545541447        2.91188624550449
H            2.13624286142792       -4.16050816472054        2.03572332966584
H           -3.34308022388246       -0.16667853899690       -0.04679771151179
H           -1.98345629917441        3.11536683212800       -1.96579257310609
H           -2.49994749763611        4.84654661367737       -3.60755108125842
H           -4.56864197030073        6.19234424991226       -3.39397949592826
H           -6.12879584417758        5.72443735807374       -1.51603254437402
H           -7.42020816989928        3.41911811813002        2.18902303395346
H           -7.05194357798858        1.73430934636809        3.97913572800712
H           -4.93914034668801        0.44188714452590        4.00520151476774
H           -3.26050678232246        0.79266486876433        2.26780620709045
H           -0.97592940088801        3.39177792454855        0.28797032975508
H            1.49798269540352        3.21478465220179        0.26720676005987
H            3.42274949093236        0.30401549085088        2.20362035787412
H            5.06553185617128       -0.29743873296028        3.90607583389881
H            7.34239215671002        0.67566632790865        3.84314575654171
H            7.91670000264392        2.30120934963166        2.05246271096881
H            6.90532428199635        4.78794506304299       -1.62217830528074
H            5.39703775144290        5.48245984275670       -3.47215846245915
H            3.15258934480236        4.44971304042365       -3.65101735727449
H            2.41983516677108        2.80551770484584       -2.00188055650748
H            3.32770940670441       -0.64376984944092       -0.11117933650942

          :  Hamiltonian                  GFN2-xTB          :
         :: gradient norm              0.000032007248 Eh/a0 ::
         :: HOMO-LUMO gap              0.871542183218 eV    ::
         :: SCC energy              -149.240809880897 Eh    ::
         :: -> dispersion             -0.132282268635 Eh    ::
         :: repulsion energy           2.415114750168 Eh    ::

    * Orbital Energies and Occupations

         #    Occupation            Energy/Eh            Energy/eV
      -------------------------------------------------------------
         1        2.0000           -0.7332308             -19.9522
       ...           ...                  ...                  ...
       122        2.0000           -0.4209217             -11.4539
       123        2.0000           -0.4186077             -11.3909
       124        2.0000           -0.4181085             -11.3773
       125        2.0000           -0.4133387             -11.2475
       126        2.0000           -0.4124772             -11.2241
       127        2.0000           -0.4104229             -11.1682
       128        2.0000           -0.4083389             -11.1115
       129        2.0000           -0.3985552             -10.8452
       130        2.0000           -0.3955134             -10.7625
       131        2.0000           -0.3954031             -10.7595
       132        2.0000           -0.3904362             -10.6243
       133        2.0000           -0.3503371              -9.5332
       134        2.0000           -0.3499727              -9.5232 (HOMO)
       135        0.0000           -0.3179441              -8.6517 (LUMO)
       136                         -0.2631389              -7.1604
       137                         -0.2558257              -6.9614
       138                         -0.2436365              -6.6297
       139                         -0.2436191              -6.6292
       140                         -0.2390639              -6.5053
       141                         -0.2349020              -6.3920
       142                         -0.2348505              -6.3906
       143                         -0.2226800              -6.0594
       144                         -0.2210185              -6.0142
       145                         -0.2196050              -5.9758
       ...                                ...                  ...
       257                          0.7259413              19.7539
      -------------------------------------------------------------
                  HL-Gap            0.0320286 Eh            0.8715 eV

     #   Z          covCN         q      C6AA      α(0)
     1   6 C        3.757    -0.104    22.530     6.767
     2   6 C        3.855    -0.010    20.717     6.473
     3   6 C        3.753    -0.097    22.402     6.749
     4   6 C        2.967     0.011    27.775     8.645
     5   6 C        2.933    -0.039    28.972     8.827
     6   6 C        2.915    -0.031    28.779     8.797
     7   6 C        2.928    -0.035    28.864     8.811
     8   6 C        2.974     0.012    27.746     8.640
     9   6 C        3.855    -0.003    20.604     6.456
    10   6 C        3.755    -0.103    22.519     6.766
    11   6 C        3.756    -0.103    22.530     6.768
    12   6 C        2.944     0.070    26.435     8.433
    13   7 N        2.746    -0.091    23.006     7.124
    14   6 C        2.775     0.277    22.314     7.737
    15   8 O        0.859    -0.404    21.770     6.256
    16   6 C        2.975    -0.026    28.648     8.780
    17   6 C        2.924    -0.027    28.669     8.781
    18   6 C        2.915     0.070    26.426     8.430
    19   7 N        2.751    -0.068    22.551     7.053
    20   6 C        2.920     0.041    27.071     8.532
    21   6 C        2.924    -0.060    29.486     8.905
    22   6 C        2.919    -0.038    28.951     8.823
    23   6 C        2.919    -0.039    28.964     8.825
    24   6 C        2.920    -0.055    29.372     8.887
    25   6 C        2.885     0.126    25.228     8.235
    26   8 O        1.709    -0.251    18.163     5.754
    27   6 C        2.885     0.126    25.236     8.236
    28   6 C        2.920    -0.055    29.366     8.887
    29   6 C        2.919    -0.038    28.944     8.822
    30   6 C        2.919    -0.037    28.918     8.818
    31   6 C        2.924    -0.057    29.424     8.896
    32   6 C        2.922     0.042    27.062     8.531
    33   6 C        2.922    -0.046    29.139     8.852
    34   6 C        2.982     0.016    27.648     8.625
    35   6 C        2.922    -0.046    29.140     8.852
    36   6 C        2.915     0.071    26.422     8.429
    37   7 N        2.751    -0.067    22.547     7.052
    38   6 C        2.922     0.042    27.063     8.531
    39   6 C        2.924    -0.057    29.426     8.896
    40   6 C        2.919    -0.037    28.919     8.819
    41   6 C        2.919    -0.038    28.944     8.822
    42   6 C        2.920    -0.055    29.367     8.887
    43   6 C        2.885     0.126    25.235     8.236
    44   8 O        1.709    -0.251    18.162     5.754
    45   6 C        2.885     0.126    25.228     8.235
    46   6 C        2.920    -0.055    29.371     8.887
    47   6 C        2.919    -0.039    28.963     8.825
    48   6 C        2.919    -0.038    28.950     8.823
    49   6 C        2.924    -0.060    29.485     8.905
    50   6 C        2.920     0.041    27.071     8.532
    51   6 C        2.924    -0.026    28.662     8.780
    52   6 C        2.975    -0.025    28.624     8.776
    53   6 C        2.996     0.000    28.007     8.681
    54   6 C        2.778     0.278    22.291     7.733
    55   8 O        0.859    -0.403    21.750     6.253
    56   1 H        0.925     0.037     2.490     2.468
    57   1 H        0.925     0.035     2.512     2.479
    58   1 H        0.925     0.050     2.322     2.383
    59   1 H        0.924     0.038     2.481     2.463
    60   1 H        0.925     0.038     2.480     2.463
    61   1 H        0.925     0.034     2.537     2.491
    62   1 H        0.925     0.021     2.715     2.577
    63   1 H        0.926     0.036     2.498     2.472
    64   1 H        0.926     0.037     2.485     2.465
    65   1 H        0.926     0.041     2.434     2.440
    66   1 H        0.924     0.015     2.808     2.620
    67   1 H        0.925     0.039     2.458     2.452
    68   1 H        0.925     0.040     2.444     2.445
    69   1 H        0.925     0.034     2.524     2.485
    70   1 H        0.925     0.033     2.540     2.492
    71   1 H        0.925     0.039     2.465     2.455
    72   1 H        0.925     0.047     2.354     2.399
    73   1 H        0.926     0.075     2.036     2.231
    74   1 H        0.926     0.033     2.542     2.493
    75   1 H        0.926     0.038     2.482     2.464
    76   1 H        0.926     0.041     2.441     2.443
    77   1 H        0.926     0.053     2.283     2.363
    78   1 H        0.926     0.053     2.284     2.363
    79   1 H        0.926     0.041     2.432     2.438
    80   1 H        0.926     0.040     2.450     2.448
    81   1 H        0.926     0.036     2.503     2.474
    82   1 H        0.926     0.052     2.292     2.367
    83   1 H        0.926     0.052     2.290     2.367
    84   1 H        0.926     0.036     2.502     2.473
    85   1 H        0.926     0.040     2.451     2.448
    86   1 H        0.926     0.041     2.431     2.438
    87   1 H        0.926     0.053     2.284     2.363
    88   1 H        0.926     0.053     2.282     2.362
    89   1 H        0.926     0.041     2.440     2.443
    90   1 H        0.926     0.038     2.481     2.463
    91   1 H        0.926     0.033     2.539     2.492
    92   1 H        0.926     0.075     2.033     2.230

molecular dipole:
                 x           y           z       tot (Debye)
 q only:        0.071       0.964       0.163
   full:        0.077       1.110       0.138       2.851

 projected vibrational frequencies (cm⁻¹)
eigval :       -0.00    -0.00    -0.00    -0.00    -0.00     0.00
eigval :       12.12    13.84    15.17    17.29    18.45    23.64
eigval :       37.34    37.76    38.89    43.83    45.54    48.66
eigval :       62.31    75.71    92.51   106.15   112.75   113.45
eigval :      117.82   122.86   133.98   143.86   150.34   163.39
eigval :      175.41   182.58   198.30   205.33   209.15   219.04
eigval :      226.79   235.17   246.17   248.20   249.55   252.04
eigval :      267.20   279.66   280.90   284.06   292.54   294.60
eigval :      304.66   307.38   311.82   323.35   328.33   378.07
eigval :      384.58   389.51   393.53   409.42   417.20   421.43
eigval :      426.33   430.19   430.95   440.27   441.30   452.96
eigval :      456.35   461.51   478.27   479.00   503.88   508.02
eigval :      509.56   509.69   519.25   521.12   522.50   524.88
eigval :      532.44   557.96   564.65   575.21   583.17   588.66
eigval :      612.11   614.99   617.92   626.80   637.16   643.67
eigval :      657.58   660.24   661.98   662.06   662.85   672.29
eigval :      690.40   693.26   702.92   716.20   729.52   746.70
eigval :      771.76   778.07   778.78   779.02   779.41   797.10
eigval :      809.06   829.75   835.44   841.14   854.88   856.23
eigval :      856.39   858.31   859.40   864.25   864.78   871.01
eigval :      878.77   895.52   896.09   899.27   900.47   901.42
eigval :      908.93   911.15   915.72   916.02   917.16   917.88
eigval :      919.64   920.51   927.03   937.35   948.67   951.35
eigval :      971.76   976.90   989.62   992.43  1001.47  1048.95
eigval :     1066.95  1079.40  1089.99  1091.03  1091.68  1092.03
eigval :     1092.84  1109.58  1109.76  1115.45  1125.53  1126.51
eigval :     1139.26  1141.76  1150.98  1158.77  1159.58  1170.39
eigval :     1175.32  1175.66  1181.21  1182.05  1183.21  1185.40
eigval :     1196.64  1199.17  1203.14  1203.59  1208.84  1227.36
eigval :     1232.81  1240.59  1244.32  1244.73  1252.91  1261.41
eigval :     1262.19  1262.45  1281.66  1295.45  1297.46  1306.14
eigval :     1309.00  1310.33  1310.93  1314.85  1333.79  1335.04
eigval :     1343.75  1348.29  1349.78  1362.70  1371.01  1382.04
eigval :     1387.82  1404.51  1408.84  1418.33  1419.37  1419.46
eigval :     1423.24  1431.87  1433.29  1444.29  1445.17  1450.70
eigval :     1464.17  1485.40  1486.95  1492.48  1494.00  1494.81
eigval :     1495.74  1500.96  1501.46  1501.58  1503.05  1505.26
eigval :     1512.78  1522.09  1534.24  1568.58  1568.66  1576.75
eigval :     1577.15  1580.49  1580.80  1588.18  1590.78  1590.95
eigval :     1592.41  1601.89  1602.17  1689.86  1704.10  2917.11
eigval :     2935.14  3018.50  3023.78  3027.15  3028.67  3034.56
eigval :     3035.79  3039.02  3039.52  3042.36  3044.32  3048.03
eigval :     3060.81  3073.04  3084.28  3087.09  3089.82  3089.92
eigval :     3090.68  3091.94  3091.99  3097.26  3098.87  3099.40
eigval :     3099.42  3099.65  3100.16  3100.50  3105.73  3106.05
eigval :     3107.10  3107.14  3114.66  3114.69  3115.18  3115.29

   temp. (K)  partition function   enthalpy   heat capacity  entropy
                                   cal/mol     cal/K/mol   cal/K/mol   J/K/mol
 298.15  VIB  0.272E+22            27277.946    168.774    169.064
         ROT  0.117E+09              888.752      2.981     39.896
         INT  0.317E+30            28166.699    171.755    208.960
         TR   0.187E+29             1481.254      4.968     45.581
         TOT                       29647.9527   176.7235   254.5405  1064.9973

       T/K    H(0)-H(T)+PV         H(T)/Eh          T*S/Eh         G(T)/Eh
   ------------------------------------------------------------------------
    298.15    0.472470E-01    0.760485E+00    0.120940E+00    0.639545E+00
   ------------------------------------------------------------------------

         :::::::::::::::::::::::::::::::::::::::::::::::::::::
         ::                  THERMODYNAMIC                  ::
         :::::::::::::::::::::::::::::::::::::::::::::::::::::
         :: total free energy        -146.186150494168 Eh   ::
         ::.................................................::
         :: total energy             -146.825695130729 Eh   ::
         :: zero point energy           0.713238007371 Eh   ::
         :: G(RRHO) w/o ZPVE           -0.073693370810 Eh   ::
         :: G(RRHO) contrib.            0.639544636561 Eh   ::
         :::::::::::::::::::::::::::::::::::::::::::::::::::::

           -------------------------------------------------
          | TOTAL ENERGY             -146.825695130729 Eh   |
          | TOTAL ENTHALPY           -146.065210103275 Eh   |
          | TOTAL FREE ENERGY        -146.186150494168 Eh   |
          | GRADIENT NORM               0.000032012412 Eh/α |
          | HOMO-LUMO GAP               0.871542323446 eV   |
           -------------------------------------------------

 * finished run on 2025/08/24 at 15:54:30.401
