   * xtb version 6.7.1 (edcfbbe) compiled by 'albert@albert-system' on 2024-07-22

   ID    Z sym.   atoms
    1    6 C      1-12, 14, 16-18, 20-25, 27-36, 38-43, 45-54
    2    7 N      13, 19, 37
    3    8 O      15, 26, 44, 55
    4    1 H      56-92

          program call               : xtb data2507/gas/2PN/2PN_gas_S0_crest.xyz --gfn 2 --ohess vtight --parallel 40 --molden --ceasefiles --namespace data2507/gas/2PN/2PN_gas_S0_finalOpt
          :  Hamiltonian                  GFN2-xTB          :
 * total energy  :  -146.8289220 Eh     change       -0.3262045E-08 Eh
 * total energy  :  -146.8289230 Eh     change       -0.9466130E-06 Eh
 * total energy  :  -146.8289250 Eh     change       -0.2022797E-05 Eh
 * total energy  :  -146.8289285 Eh     change       -0.3571478E-05 Eh
 * total energy  :  -146.8289309 Eh     change       -0.2374162E-05 Eh
 * total energy  :  -146.8289323 Eh     change       -0.1431287E-05 Eh
 * total energy  :  -146.8289335 Eh     change       -0.1182300E-05 Eh
 * total energy  :  -146.8289345 Eh     change       -0.9427198E-06 Eh
 * total energy  :  -146.8289353 Eh     change       -0.7949544E-06 Eh
 * total energy  :  -146.8289359 Eh     change       -0.6746702E-06 Eh
 * total energy  :  -146.8289385 Eh     change       -0.8089988E-06 Eh
 * total energy  :  -146.8289394 Eh     change       -0.8268078E-06 Eh
 * total energy  :  -146.8289400 Eh     change       -0.6661329E-06 Eh
 * total energy  :  -146.8289406 Eh     change       -0.5396313E-06 Eh
 * total energy  :  -146.8289411 Eh     change       -0.5257609E-06 Eh
 * total energy  :  -146.8289416 Eh     change       -0.5073596E-06 Eh
 * total energy  :  -146.8289420 Eh     change       -0.3729720E-06 Eh
 * total energy  :  -146.8289422 Eh     change       -0.2564412E-06 Eh
 * total energy  :  -146.8289422 Eh     change       -0.6017586E-08 Eh
   *** GEOMETRY OPTIMIZATION CONVERGED AFTER 22 ITERATIONS ***

 final structure:
================
92
 xtb: 6.7.1 (edcfbbe)
C            1.86111641007757       -4.84776569611798       -2.33371351538444
C            0.42099834107158       -4.60717261463868       -1.87447112494723
C           -0.58825893365398       -5.20184753295130       -2.85795718442914
C            0.22967958348295       -5.17172640807328       -0.48684608562667
C            0.25378136585000       -6.54379794722761       -0.27616790248590
C            0.08306622929827       -7.06815018964819        0.99018603024158
C           -0.10631055946604       -6.22924982887581        2.07089628977651
C           -0.11950351650152       -4.85051118857103        1.90736283205741
C           -0.33057645368841       -3.94113159560793        3.09418837645811
C           -1.76219386481807       -4.09632751127328        3.61274341986976
C            0.69734234955427       -4.21813909574416        4.19237693819306
C            0.04622605863815       -4.34582505569375        0.61988608476526
N            0.02881109495858       -2.91924932845439        0.42372393080974
C           -1.21853939847866       -2.32887642869049        0.30216561222157
O           -2.23110056685114       -2.99265913566822        0.36183723070043
C           -1.22017776144881       -0.86948755626586        0.09015529113882
C           -2.41819849591331       -0.20194542943628       -0.02838399908061
C           -2.44062215780459        1.18866249533053       -0.23763682821631
N           -3.67559092276213        1.85044721609869       -0.34662576484551
C           -4.58153548748623        1.49187297258424       -1.35212694316222
C           -4.27647000618244        0.54718826319572       -2.32387202380528
C           -5.19608449968005        0.21745695365040       -3.30758573323419
C           -6.42858137988292        0.83723753142113       -3.34678042457617
C           -6.73396739611632        1.80997645655516       -2.40716478514150
C           -5.81999919750472        2.14217655225673       -1.42406349629226
O           -6.18056911458764        3.13864721973220       -0.55295474064678
C           -5.27933511995244        3.48762632942894        0.41942621316974
C           -5.66220989265149        4.48932394523507        1.29289488928472
C           -4.82417485934389        4.87581484830294        2.32740510373256
C           -3.61084380101936        4.23910474550829        2.49135971537213
C           -3.22055772100154        3.23751312761165        1.61568585172428
C           -4.03313633012410        2.86098486226674        0.55373761973664
C           -1.25656914304770        1.89116581155368       -0.32384839538736
C           -0.01647980275712        1.23799513480486       -0.19089586415314
C            1.20953724742869        1.92446152859266       -0.27959435912653
C            2.40830258101231        1.25508149614796       -0.14490519553456
N            3.62852114835879        1.94803171011869       -0.21363234048638
C            4.58722150437566        1.59384099358301       -1.17099442075785
C            4.34837607336254        0.62636943094342       -2.13899678996323
C            5.31992832940384        0.30013622351046       -3.07262490399615
C            6.53941709993048        0.94632643870712       -3.06587800092852
C            6.77886340895604        1.94258057160309       -2.13191475772896
C            5.81276645607506        2.27144584717736       -1.19871032165641
O            6.10991415713271        3.29234982002766       -0.33219631045089
C            5.15885804466871        3.63521000445982        0.59369958379590
C            5.47955383707069        4.66031394661615        1.46512536968217
C            4.58887747898722        5.04265765155832        2.45618241044416
C            3.38590227316312        4.37781740059435        2.58005750317272
C            3.05792293733198        3.35278482093484        1.70602549163708
C            3.92337870716616        2.98029934997944        0.68517135703737
C            2.41487649523122       -0.13426252632424        0.07438099950245
C            1.23201409398580       -0.83435346441382        0.14617012877987
C           -0.00154155666459       -0.16551316683098        0.01392305060670
C            1.26240203237381       -2.29113722868701        0.37178241975322
O            2.28945973542239       -2.92208894335274        0.50067466600414
H            2.55562222679731       -4.40811524659677       -1.62103116076239
H            2.02664381567377       -4.39651279633581       -3.30997929160697
H            2.06875579661288       -5.91249356353145       -2.40433563637305
H            0.25349466378078       -3.52479203819230       -1.84853449881079
H           -0.49588237145914       -4.71379690865768       -3.82614600887233
H           -0.42236796574471       -6.26661096956686       -2.99688145871920
H           -1.60119228322433       -5.05467034421748       -2.48939908574078
H            0.40571618095354       -7.21008552885858       -1.11113658699829
H            0.09776424489089       -8.13836729251006        1.13583604976297
H           -0.24324540177956       -6.65191392897589        3.05414892008296
H           -0.19941501364053       -2.90058212642592        2.77774945391576
H           -1.93373200353067       -5.10834232268890        3.97074672956497
H           -2.46988956158729       -3.88901449825505        2.81294481603412
H           -1.94454183198852       -3.40309132429484        4.43136975721446
H            0.56920665569698       -5.21312659576815        4.60973133412366
H            1.70505855337072       -4.13873554022801        3.79024009552145
H            0.58591504863005       -3.49420968215004        4.99706340553011
H           -3.33991109676272       -0.75802587613355        0.05682427707523
H           -3.31104334779364        0.06607129563449       -2.31944223175493
H           -4.93463928568633       -0.52648592654574       -4.04391771967842
H           -7.14898798489676        0.58141697921909       -4.10734769107831
H           -7.67854292740767        2.32958953504025       -2.42148018502566
H           -6.62649805870699        4.94933395540257        1.14822049936697
H           -5.12990824450283        5.65998658477326        3.00154098350988
H           -2.95579196256358        4.51214749928834        3.30423080856848
H           -2.27773226054859        2.73697526753534        1.77127314044268
H           -1.27398627550041        2.95740162627912       -0.49636947190074
H            1.20399630878122        2.98987332442945       -0.45774889607486
H            3.39426488959243        0.12425032226693       -2.17146068356426
H            5.10932143431955       -0.46221718161937       -3.80641792390584
H            7.30026930637210        0.69295930843570       -3.78684007195617
H            7.71133844214670        2.48343295153796       -2.11224326023060
H            6.43782213325165        5.14162937680341        1.35357173829190
H            4.84606628356700        5.84541156759659        3.12870009412418
H            2.69043601536351        4.64702124490045        3.35995801462999
H            2.12232278423454        2.83073233971459        1.83129803529136
H            3.34687560690902       -0.66408400424989        0.20367707938216

          :  Hamiltonian                  GFN2-xTB          :
         :: gradient norm              0.000055712343 Eh/a0 ::
         :: HOMO-LUMO gap              0.872422683854 eV    ::
         :: SCC energy              -149.246094913550 Eh    ::
         :: -> dispersion             -0.130463696383 Eh    ::
         :: repulsion energy           2.417152668773 Eh    ::

    * Orbital Energies and Occupations

         #    Occupation            Energy/Eh            Energy/eV
      -------------------------------------------------------------
         1        2.0000           -0.7333489             -19.9554
       ...           ...                  ...                  ...
       122        2.0000           -0.4208037             -11.4507
       123        2.0000           -0.4186110             -11.3910
       124        2.0000           -0.4180403             -11.3755
       125        2.0000           -0.4130441             -11.2395
       126        2.0000           -0.4124474             -11.2233
       127        2.0000           -0.4097984             -11.1512
       128        2.0000           -0.4082055             -11.1078
       129        2.0000           -0.3980409             -10.8312
       130        2.0000           -0.3955503             -10.7635
       131        2.0000           -0.3953276             -10.7574
       132        2.0000           -0.3906230             -10.6294
       133        2.0000           -0.3503487              -9.5335
       134        2.0000           -0.3499080              -9.5215 (HOMO)
       135        0.0000           -0.3178471              -8.6491 (LUMO)
       136                         -0.2630339              -7.1575
       137                         -0.2555978              -6.9552
       138                         -0.2437370              -6.6324
       139                         -0.2434982              -6.6259
       140                         -0.2389112              -6.5011
       141                         -0.2349722              -6.3939
       142                         -0.2347516              -6.3879
       143                         -0.2219636              -6.0399
       144                         -0.2203190              -5.9952
       145                         -0.2195931              -5.9754
       ...                                ...                  ...
       257                          0.7265731              19.7711
      -------------------------------------------------------------
                  HL-Gap            0.0320610 Eh            0.8724 eV

     #   Z          covCN         q      C6AA      α(0)
     1   6 C        3.756    -0.103    22.529     6.768
     2   6 C        3.855    -0.004    20.616     6.458
     3   6 C        3.755    -0.103    22.521     6.767
     4   6 C        2.973     0.012    27.753     8.641
     5   6 C        2.928    -0.035    28.880     8.813
     6   6 C        2.916    -0.032    28.797     8.800
     7   6 C        2.928    -0.035    28.877     8.813
     8   6 C        2.973     0.012    27.742     8.640
     9   6 C        3.855    -0.004    20.619     6.458
    10   6 C        3.756    -0.104    22.532     6.768
    11   6 C        3.755    -0.103    22.522     6.767
    12   6 C        2.947     0.067    26.507     8.444
    13   7 N        2.747    -0.097    23.142     7.145
    14   6 C        2.775     0.277    22.325     7.739
    15   8 O        0.859    -0.402    21.719     6.248
    16   6 C        2.975    -0.025    28.633     8.777
    17   6 C        2.924    -0.026    28.662     8.780
    18   6 C        2.915     0.071    26.422     8.429
    19   7 N        2.752    -0.068    22.551     7.053
    20   6 C        2.922     0.042    27.061     8.531
    21   6 C        2.924    -0.057    29.426     8.896
    22   6 C        2.919    -0.037    28.919     8.819
    23   6 C        2.919    -0.038    28.944     8.822
    24   6 C        2.920    -0.055    29.367     8.887
    25   6 C        2.885     0.126    25.236     8.236
    26   8 O        1.709    -0.251    18.163     5.754
    27   6 C        2.885     0.126    25.228     8.235
    28   6 C        2.920    -0.055    29.372     8.887
    29   6 C        2.919    -0.039    28.965     8.826
    30   6 C        2.919    -0.038    28.950     8.823
    31   6 C        2.924    -0.060    29.486     8.905
    32   6 C        2.920     0.041    27.070     8.532
    33   6 C        2.922    -0.046    29.137     8.852
    34   6 C        2.982     0.016    27.645     8.625
    35   6 C        2.922    -0.046    29.144     8.853
    36   6 C        2.915     0.070    26.424     8.429
    37   7 N        2.751    -0.067    22.543     7.052
    38   6 C        2.922     0.042    27.063     8.531
    39   6 C        2.924    -0.057    29.425     8.896
    40   6 C        2.919    -0.037    28.919     8.819
    41   6 C        2.919    -0.038    28.943     8.822
    42   6 C        2.920    -0.055    29.366     8.887
    43   6 C        2.885     0.126    25.234     8.235
    44   8 O        1.709    -0.251    18.161     5.754
    45   6 C        2.885     0.126    25.228     8.234
    46   6 C        2.920    -0.055    29.371     8.887
    47   6 C        2.919    -0.039    28.962     8.825
    48   6 C        2.919    -0.038    28.949     8.823
    49   6 C        2.924    -0.060    29.485     8.905
    50   6 C        2.920     0.041    27.071     8.532
    51   6 C        2.924    -0.026    28.662     8.780
    52   6 C        2.975    -0.025    28.634     8.778
    53   6 C        2.995     0.001    28.004     8.681
    54   6 C        2.776     0.277    22.324     7.739
    55   8 O        0.859    -0.402    21.724     6.249
    56   1 H        0.925     0.048     2.347     2.395
    57   1 H        0.925     0.034     2.536     2.490
    58   1 H        0.925     0.039     2.464     2.455
    59   1 H        0.924     0.017     2.779     2.607
    60   1 H        0.925     0.035     2.521     2.483
    61   1 H        0.925     0.040     2.455     2.450
    62   1 H        0.925     0.039     2.465     2.455
    63   1 H        0.926     0.041     2.437     2.441
    64   1 H        0.926     0.037     2.492     2.469
    65   1 H        0.926     0.041     2.436     2.441
    66   1 H        0.924     0.018     2.767     2.601
    67   1 H        0.925     0.039     2.466     2.456
    68   1 H        0.925     0.048     2.347     2.396
    69   1 H        0.925     0.034     2.530     2.487
    70   1 H        0.925     0.039     2.456     2.451
    71   1 H        0.925     0.039     2.464     2.455
    72   1 H        0.925     0.035     2.517     2.481
    73   1 H        0.926     0.075     2.031     2.228
    74   1 H        0.926     0.036     2.507     2.476
    75   1 H        0.926     0.040     2.452     2.449
    76   1 H        0.926     0.041     2.432     2.439
    77   1 H        0.926     0.053     2.284     2.363
    78   1 H        0.926     0.053     2.283     2.363
    79   1 H        0.926     0.041     2.441     2.443
    80   1 H        0.926     0.037     2.483     2.464
    81   1 H        0.926     0.033     2.542     2.493
    82   1 H        0.926     0.052     2.290     2.367
    83   1 H        0.926     0.052     2.290     2.366
    84   1 H        0.926     0.036     2.504     2.474
    85   1 H        0.926     0.040     2.452     2.449
    86   1 H        0.926     0.041     2.431     2.438
    87   1 H        0.926     0.053     2.283     2.363
    88   1 H        0.926     0.053     2.282     2.362
    89   1 H        0.926     0.041     2.440     2.443
    90   1 H        0.926     0.038     2.481     2.463
    91   1 H        0.926     0.033     2.537     2.491
    92   1 H        0.926     0.075     2.030     2.228

molecular dipole:
                 x           y           z       tot (Debye)
 q only:        0.008       0.919      -0.245
   full:        0.006       1.081      -0.241       2.816

 projected vibrational frequencies (cm⁻¹)
eigval :       -0.00    -0.00    -0.00     0.00     0.00     0.00
eigval :       10.43    13.72    15.14    16.59    18.48    23.38
eigval :       33.26    37.44    40.88    41.99    43.77    46.03
eigval :       51.84    67.29    78.66    95.87   108.83   111.85
eigval :      112.77   119.87   121.44   141.61   147.51   161.59
eigval :      174.37   181.85   194.59   203.34   209.81   224.28
eigval :      227.61   230.30   242.32   246.43   248.16   249.54
eigval :      252.09   265.96   269.66   280.19   280.66   292.42
eigval :      299.68   303.73   306.23   307.54   322.00   377.87
eigval :      384.57   389.56   393.60   415.45   417.14   421.36
eigval :      422.43   430.26   430.91   439.82   441.97   445.79
eigval :      450.30   459.15   477.43   490.70   503.67   506.49
eigval :      509.58   509.79   517.03   521.09   525.16   527.78
eigval :      534.71   557.86   573.11   575.17   583.05   588.42
eigval :      614.42   614.96   616.25   626.60   639.76   643.73
eigval :      657.59   660.57   661.96   662.10   662.86   676.53
eigval :      690.27   692.69   703.52   717.98   729.32   746.48
eigval :      771.25   778.05   778.77   779.01   779.42   797.11
eigval :      809.55   829.72   836.00   841.25   853.71   856.24
eigval :      856.36   856.67   858.39   864.24   864.78   871.01
eigval :      878.80   895.54   896.11   898.34   900.44   901.44
eigval :      908.88   911.15   915.69   916.00   917.13   917.90
eigval :      919.58   920.67   926.68   938.18   948.37   948.68
eigval :      975.03   977.07   989.30   989.42  1001.33  1048.83
eigval :     1066.88  1077.37  1086.21  1090.82  1091.05  1092.02
eigval :     1092.88  1099.61  1109.54  1109.79  1116.15  1125.55
eigval :     1140.56  1141.48  1151.71  1158.64  1165.73  1173.84
eigval :     1175.30  1175.65  1181.12  1182.44  1183.02  1184.86
eigval :     1196.62  1197.35  1201.57  1203.12  1203.71  1224.99
eigval :     1240.92  1244.09  1244.85  1250.09  1253.37  1262.21
eigval :     1262.46  1262.59  1293.94  1297.89  1298.27  1305.76
eigval :     1310.38  1310.93  1311.02  1313.83  1333.63  1334.47
eigval :     1335.05  1348.24  1349.77  1359.28  1362.22  1381.62
eigval :     1387.80  1404.17  1404.58  1418.61  1418.81  1419.36
eigval :     1423.20  1431.66  1432.78  1444.28  1445.13  1455.42
eigval :     1464.10  1485.38  1486.96  1493.58  1494.05  1494.47
eigval :     1494.57  1495.19  1501.31  1501.57  1503.64  1503.90
eigval :     1505.39  1505.72  1533.98  1568.58  1568.67  1576.71
eigval :     1576.92  1580.46  1580.77  1590.77  1590.95  1591.08
eigval :     1593.69  1601.89  1602.17  1692.70  1705.82  2931.03
eigval :     2932.48  3024.19  3025.00  3028.98  3030.15  3035.52
eigval :     3035.64  3039.12  3039.35  3043.34  3043.43  3047.49
eigval :     3047.84  3077.72  3087.00  3089.79  3089.93  3090.62
eigval :     3091.88  3091.92  3093.09  3098.64  3099.21  3099.36
eigval :     3099.43  3099.76  3100.28  3100.47  3105.74  3106.09
eigval :     3107.03  3107.09  3114.61  3114.68  3115.14  3115.24

   temp. (K)  partition function   enthalpy   heat capacity  entropy
                                   cal/mol     cal/K/mol   cal/K/mol   J/K/mol
 298.15  VIB  0.943E+22            27471.690    168.498    171.114
         ROT  0.119E+09              888.752      2.981     39.941
         INT  0.113E+31            28360.443    171.479    211.056
         TR   0.187E+29             1481.254      4.968     45.581
         TOT                       29841.6968   176.4471   256.6366  1073.7674

       T/K    H(0)-H(T)+PV         H(T)/Eh          T*S/Eh         G(T)/Eh
   ------------------------------------------------------------------------
    298.15    0.475558E-01    0.760325E+00    0.121936E+00    0.638389E+00
   ------------------------------------------------------------------------

         :::::::::::::::::::::::::::::::::::::::::::::::::::::
         ::                  THERMODYNAMIC                  ::
         :::::::::::::::::::::::::::::::::::::::::::::::::::::
         :: total free energy        -146.190553721254 Eh   ::
         ::.................................................::
         :: total energy             -146.828942244777 Eh   ::
         :: zero point energy           0.712769070186 Eh   ::
         :: G(RRHO) w/o ZPVE           -0.074380546664 Eh   ::
         :: G(RRHO) contrib.            0.638388523523 Eh   ::
         :::::::::::::::::::::::::::::::::::::::::::::::::::::

           -------------------------------------------------
          | TOTAL ENERGY             -146.828942244777 Eh   |
          | TOTAL ENTHALPY           -146.068617403734 Eh   |
          | TOTAL FREE ENERGY        -146.190553721254 Eh   |
          | GRADIENT NORM               0.000055715267 Eh/α |
          | HOMO-LUMO GAP               0.872423155440 eV   |
           -------------------------------------------------

 * finished run on 2025/08/24 at 16:02:01.256
