   * xtb version 6.7.1 (edcfbbe) compiled by 'albert@albert-system' on 2024-07-22

   ID    Z sym.   atoms
    1    6 C      1-12, 14, 16-18, 20-25, 27-36, 38-43, 45-54
    2    7 N      13, 19, 37
    3    8 O      15, 26, 44, 55
    4    1 H      56-92

          program call               : xtb data2507/gas/2PN/2PN_gas_T1_crest.xyz --gfn 2 --spinpol --tblite --uhf 2 --ohess vtight --parallel 40 --molden --ceasefiles --namespace data2507/gas/2PN/2PN_gas_T1_finalOpt
 * total energy  :  -146.7784146 Eh     change        0.2832596E-07 Eh
 * total energy  :  -146.7784234 Eh     change       -0.8809812E-05 Eh
 * total energy  :  -146.7784277 Eh     change       -0.4298055E-05 Eh
 * total energy  :  -146.7784289 Eh     change       -0.1216136E-05 Eh
 * total energy  :  -146.7784309 Eh     change       -0.2010751E-05 Eh
 * total energy  :  -146.7784323 Eh     change       -0.1372564E-05 Eh
 * total energy  :  -146.7784339 Eh     change       -0.1621393E-05 Eh
 * total energy  :  -146.7784358 Eh     change       -0.1867513E-05 Eh
 * total energy  :  -146.7784375 Eh     change       -0.1697028E-05 Eh
 * total energy  :  -146.7784387 Eh     change       -0.1237546E-05 Eh
 * total energy  :  -146.7784417 Eh     change       -0.8375615E-06 Eh
 * total energy  :  -146.7784427 Eh     change       -0.1018088E-05 Eh
 * total energy  :  -146.7784435 Eh     change       -0.8313017E-06 Eh
 * total energy  :  -146.7784442 Eh     change       -0.6587645E-06 Eh
 * total energy  :  -146.7784449 Eh     change       -0.6619402E-06 Eh
 * total energy  :  -146.7784453 Eh     change       -0.4102407E-06 Eh
 * total energy  :  -146.7784455 Eh     change       -0.2503766E-06 Eh
 * total energy  :  -146.7784458 Eh     change       -0.2788813E-06 Eh
 * total energy  :  -146.7784458 Eh     change       -0.7789509E-08 Eh
   *** GEOMETRY OPTIMIZATION CONVERGED AFTER 22 ITERATIONS ***

 final structure:
================
92
 xtb: 6.7.1 (edcfbbe)
C            1.80484512321543       -4.16243436939168       -3.48302259433038
C            0.34964659355529       -4.02958953648402       -3.02797401640206
C           -0.62569591932953       -4.35339952909442       -4.16032683687711
C            0.11644719052084       -4.91444697099481       -1.82687281744608
C            0.10132842467761       -6.29598400125002       -1.96092561979744
C           -0.10578171624643       -7.11108529482334       -0.86526118123986
C           -0.29030110688560       -6.55742098519899        0.38654349236224
C           -0.26075216174287       -5.18137486688240        0.56657555175534
C           -0.46706187237218       -4.58333317052435        1.93786074731430
C           -1.92251317219913       -4.78069444891627        2.36779662777392
C            0.50673862494144       -5.17554894618833        2.95746594293195
C           -0.06144459174418       -4.37665975807977       -0.55370454678337
N           -0.04034714433699       -2.95167018605579       -0.38952676318717
C           -1.27347569197976       -2.31530455103407       -0.35214644135299
O           -2.30983247294482       -2.96025797610434       -0.46687334402342
C           -1.23456648996544       -0.87865577678455       -0.16091780395104
C           -2.43952192325144       -0.16007802000757       -0.10097737662730
C           -2.41399222099530        1.20656374899641        0.07779654152869
N           -3.62850736412287        1.93658839217260        0.15563295668752
C           -3.93898952721592        2.87185801170021       -0.81644374181151
C           -3.12835394275455        3.07809407384854       -1.93221758318274
C           -3.46371970874354        4.02809338406220       -2.87847329464218
C           -4.61676562868298        4.78340366365455       -2.73958730972115
C           -5.44991040857433        4.57328707759389       -1.65402085191342
C           -5.12229784403511        3.62309126750628       -0.70089478276279
O           -5.99389413207387        3.44719355651525        0.33480649027681
C           -5.69576301552125        2.48938496671149        1.26268648753687
C           -6.60157762879326        2.30392553887776        2.29420299949797
C           -6.34660693903817        1.36827078212207        3.28167641211228
C           -5.17591799567740        0.62797919746820        3.24157132254674
C           -4.26727881713234        0.80527910054529        2.21573614609935
C           -4.51609517860628        1.72622400772681        1.19906132536990
C           -1.20504752989380        1.89928312127729        0.20553114300863
C            0.01531465404713        1.20552593677872        0.14983993686328
C            1.25392309505223        1.85951798566178        0.25819441406178
C            2.44420979583943        1.12765793831487        0.18510714142035
N            3.67706219510798        1.81983206183198        0.30884932455080
C            4.05739778437833        2.73560728462068       -0.65697740906191
C            3.30039570453358        2.95755460400316       -1.80690825330499
C            3.70480969680375        3.88781851445547       -2.74576854587331
C            4.87495295196250        4.60714582232424       -2.56517202346714
C            5.65559796095218        4.38029187272259       -1.44451837980754
C            5.25862204468857        3.44969398399511       -0.49843025188974
O            6.08080631781490        3.25554389256301        0.57375663125790
C            5.71242390904456        2.31856059988250        1.49768164379364
C            6.56696415614506        2.11583319217974        2.56891714479719
C            6.23951061703930        1.20050526772913        3.55408517008335
C            5.04791822900821        0.49804182769790        3.47138821650557
C            4.19020700946341        0.69252378578440        2.40559122394198
C            4.51220770317529        1.59312715782488        1.39130234806277
C            2.43330539778423       -0.24033588803951        0.01533710688942
C            1.20944674502079       -0.91971750521762       -0.09774664415105
C           -0.00339635537874       -0.20713631091030       -0.03582108291342
C            1.20949125242188       -2.35862911885143       -0.27631730616804
O            2.22755368904519       -3.04069533693131       -0.31668343368691
H            2.46931489583280       -3.91673561282688       -2.65757364635959
H            2.00686452454838       -3.48633470274406       -4.31184918654793
H            2.01494141831053       -5.17989762635948       -3.80466784984368
H            0.18134104639419       -2.98731597597594       -2.73761484837318
H           -0.50413897675354       -3.63825899231035       -4.97190585281687
H           -0.45325151842732       -5.35026469086227       -4.55769636254915
H           -1.64967741191721       -4.29695494508678       -3.79753763907599
H            0.25037123737201       -6.74112126164320       -2.93296417706554
H           -0.12336614927651       -8.18472303140701       -0.98775207133279
H           -0.45691394673010       -7.20492493149642        1.23408336385046
H           -0.27442958176721       -3.50656460167035        1.88727202802726
H           -2.15682327601593       -5.83900333377769        2.45585819258264
H           -2.58493170790057       -4.34072733615384        1.62556855642281
H           -2.10260108180654       -4.30326198907948        3.32944625660024
H            0.31606508916243       -6.23352980081240        3.11754860400505
H            1.52978040736563       -5.05701058676948        2.60714816407935
H            0.40383221833692       -4.66300556475561        3.91232525056880
H           -3.36736251255579       -0.69946933956489       -0.20857206099564
H           -2.23814844296969        2.48222345210433       -2.05260681570932
H           -2.82104523454125        4.17299083482239       -3.73273417634301
H           -4.87639883165131        5.52525599176637       -3.47782640015573
H           -6.36328158894827        5.13168995731333       -1.52711389386690
H           -7.49620550337899        2.90546077338394        2.30332383139158
H           -7.05700973173864        1.22510221002741        4.08011423892636
H           -4.96497040919651       -0.09471952554716        4.01394314233976
H           -3.35653985628757        0.22927370820370        2.19407830932294
H           -1.21018651191503        2.96703601828475        0.36631974514818
H            1.28683306043030        2.92715935567162        0.41643608416672
H            2.39698537168228        2.38955362070877       -1.95935554837671
H            3.10267662436351        4.04556565883749       -3.62687298427623
H            5.18841670588385        5.33376024994992       -3.29765436422724
H            6.58050850075294        4.91040280230286       -1.28423585773306
H            7.47969699237190        2.68810586295095        2.61027669446339
H            6.91016250667568        1.04376991526635        4.38374544042374
H            4.78058408343078       -0.20829449971857        4.24143164627807
H            3.26289391395717        0.14594259312847        2.35039172563130
H            3.34704773410624       -0.81017293514147       -0.04607967803234

 projected vibrational frequencies (cm⁻¹)
eigval :       -0.00    -0.00    -0.00    -0.00     0.00     0.00
eigval :       11.98    12.40    14.58    15.11    20.80    26.96
eigval :       36.51    36.96    41.87    43.62    47.25    50.54
eigval :       57.17    72.78    80.09   103.56   108.62   109.71
eigval :      113.25   120.79   125.87   143.37   145.68   157.65
eigval :      164.60   182.26   195.87   200.04   205.77   224.39
eigval :      232.35   236.47   243.95   244.72   245.01   251.62
eigval :      254.10   268.68   270.81   272.09   279.33   285.36
eigval :      300.54   301.39   303.24   320.07   338.58   381.53
eigval :      384.95   392.23   395.94   414.55   415.78   421.67
eigval :      424.99   431.20   431.90   442.07   442.50   445.39
eigval :      452.21   469.06   479.65   482.69   498.48   499.47
eigval :      499.59   506.19   514.69   516.95   526.20   530.92
eigval :      536.02   561.90   570.29   573.29   577.11   586.79
eigval :      606.32   609.59   615.71   620.95   622.85   636.54
eigval :      654.93   667.65   667.98   670.18   671.68   673.07
eigval :      673.52   676.24   689.04   717.38   721.61   729.89
eigval :      764.81   770.89   776.81   777.13   778.37   778.71
eigval :      792.14   795.51   807.77   830.80   834.72   845.33
eigval :      849.33   851.26   855.66   857.21   857.42   865.91
eigval :      866.84   871.13   872.17   895.63   901.03   901.31
eigval :      903.75   903.91   915.33   915.80   917.42   917.63
eigval :      919.07   919.16   923.75   938.09   948.35   949.08
eigval :      975.67   980.78   989.59   989.71   993.96  1046.10
eigval :     1070.00  1077.47  1084.54  1084.57  1085.32  1085.71
eigval :     1086.48  1100.56  1114.44  1114.96  1115.89  1122.06
eigval :     1141.47  1142.36  1149.02  1149.77  1163.19  1165.38
eigval :     1173.40  1173.69  1173.95  1176.97  1180.29  1181.85
eigval :     1182.69  1197.98  1199.37  1207.01  1209.96  1210.29
eigval :     1224.63  1238.38  1238.47  1248.99  1251.47  1253.08
eigval :     1254.22  1258.62  1287.83  1296.56  1296.88  1310.39
eigval :     1312.10  1313.70  1315.39  1318.52  1319.11  1321.20
eigval :     1334.41  1343.89  1346.18  1357.88  1365.37  1369.32
eigval :     1373.73  1390.09  1401.50  1401.98  1405.83  1415.33
eigval :     1415.81  1418.38  1418.89  1441.20  1441.61  1442.29
eigval :     1442.76  1448.03  1456.54  1464.75  1474.63  1479.60
eigval :     1482.80  1494.56  1494.91  1495.05  1495.30  1498.22
eigval :     1504.84  1505.26  1506.04  1506.42  1538.99  1556.44
eigval :     1556.59  1564.70  1564.81  1573.28  1575.58  1586.25
eigval :     1587.17  1590.58  1591.58  1614.98  1639.29  2939.70
eigval :     2940.64  3016.76  3018.27  3022.06  3023.42  3032.58
eigval :     3033.10  3037.32  3037.46  3041.57  3042.09  3043.68
eigval :     3043.77  3069.07  3080.11  3084.95  3085.47  3091.52
eigval :     3096.09  3096.26  3098.46  3098.52  3105.03  3105.29
eigval :     3105.89  3106.12  3106.38  3106.53  3114.10  3114.70
eigval :     3115.41  3115.52  3115.59  3116.94  3117.21  3118.11

   temp. (K)  partition function   enthalpy   heat capacity  entropy
                                   cal/mol     cal/K/mol   cal/K/mol   J/K/mol
 298.15  VIB  0.514E+22            27508.111    169.849    171.082
         ROT  0.119E+09              888.752      2.981     39.937
         INT  0.612E+30            28396.863    172.830    211.019
         TR   0.187E+29             1481.254      4.968     45.581
         TOT                       29878.1172   177.7981   256.5999  1073.6139

       T/K    H(0)-H(T)+PV         H(T)/Eh          T*S/Eh         G(T)/Eh
   ------------------------------------------------------------------------
    298.15    0.476138E-01    0.757683E+00    0.121919E+00    0.635764E+00
   ------------------------------------------------------------------------

         :::::::::::::::::::::::::::::::::::::::::::::::::::::
         ::                  THERMODYNAMIC                  ::
         :::::::::::::::::::::::::::::::::::::::::::::::::::::
         :: total free energy        -146.142681737330 Eh   ::
         ::.................................................::
         :: total energy             -146.778445813663 Eh   ::
         :: zero point energy           0.710069153401 Eh   ::
         :: G(RRHO) w/o ZPVE           -0.074305077068 Eh   ::
         :: G(RRHO) contrib.            0.635764076333 Eh   ::
         :::::::::::::::::::::::::::::::::::::::::::::::::::::

           -------------------------------------------------
          | TOTAL ENERGY             -146.778445813663 Eh   |
          | TOTAL ENTHALPY           -146.020762849820 Eh   |
          | TOTAL FREE ENERGY        -146.142681737330 Eh   |
          | GRADIENT NORM               0.000063950374 Eh/α |
           -------------------------------------------------

 * finished run on 2025/08/24 at 16:12:13.114
