   * xtb version 6.7.1 (edcfbbe) compiled by 'albert@albert-system' on 2024-07-22

   ID    Z sym.   atoms
    1    6 C      1-12, 14, 16-18, 20-25, 27-36, 38-43, 45-54
    2    7 N      13, 19, 37
    3    8 O      15, 26, 44, 55
    4    1 H      56-92

          program call               : xtb data2507/gas/2PN/2PN_gas_S0_finalOpt.xtbopt.xyz --gfn 2 --spinpol --tblite --uhf 2 --ohess vtight --parallel 40 --molden --ceasefiles --namespace data2507/gas/2PN/2PN_gas_T1_preOpt
 * total energy  :  -146.7731889 Eh     change        0.2223146E-08 Eh
 * total energy  :  -146.7768568 Eh     change       -0.3667925E-02 Eh
 * total energy  :  -146.7778784 Eh     change       -0.1021632E-02 Eh
 * total energy  :  -146.7779625 Eh     change       -0.8405879E-04 Eh
 * total energy  :  -146.7780338 Eh     change       -0.7131039E-04 Eh
 * total energy  :  -146.7780609 Eh     change       -0.2714845E-04 Eh
 * total energy  :  -146.7780977 Eh     change       -0.3671029E-04 Eh
 * total energy  :  -146.7781314 Eh     change       -0.3375562E-04 Eh
 * total energy  :  -146.7781722 Eh     change       -0.4074631E-04 Eh
 * total energy  :  -146.7781968 Eh     change       -0.2461768E-04 Eh
 * total energy  :  -146.7784451 Eh     change       -0.1760864E-06 Eh
 * total energy  :  -146.7784453 Eh     change       -0.2656273E-06 Eh
 * total energy  :  -146.7784453 Eh     change        0.7989104E-07 Eh
 * total energy  :  -146.7784456 Eh     change       -0.2988409E-06 Eh
 * total energy  :  -146.7784459 Eh     change       -0.3465368E-06 Eh
 * total energy  :  -146.7784462 Eh     change       -0.2691002E-06 Eh
 * total energy  :  -146.7784465 Eh     change       -0.3612454E-06 Eh
 * total energy  :  -146.7784468 Eh     change       -0.2183766E-06 Eh
 * total energy  :  -146.7784468 Eh     change       -0.3965945E-07 Eh
   *** GEOMETRY OPTIMIZATION CONVERGED AFTER 54 ITERATIONS ***

 final structure:
================
92
 xtb: 6.7.1 (edcfbbe)
C            1.85959049515167       -4.83110849968393       -2.25275458257367
C            0.40913657037595       -4.62471872646826       -1.81014147073136
C           -0.57581242855915       -5.24311091269357       -2.80311972138234
C            0.22125643461334       -5.18824007584911       -0.42164274887191
C            0.24617117721022       -6.55949770637018       -0.20787438385864
C            0.07969418668136       -7.08063746443220        1.06037413355650
C           -0.10426312378307       -6.23736297108172        2.13870489911807
C           -0.11419074345481       -4.85950792857619        1.97039403257462
C           -0.32232395507857       -3.94315935581976        3.15225539270568
C           -1.76932238686429       -4.05847536392070        3.63714643731035
C            0.67308485763233       -4.24145127054871        4.27406217603405
C            0.04526008010513       -4.35484149016881        0.68149228680502
N            0.02877851201648       -2.93446478956873        0.48103477165687
C           -1.21956468467701       -2.33947781694779        0.36190193873347
O           -2.24011131202352       -3.01484561279358        0.43631980473295
C           -1.21470302204533       -0.90765163967090        0.13338804067313
C           -2.43645346904869       -0.22776435553497        0.00227823949172
C           -2.44302889149886        1.13299550047735       -0.21823240859425
N           -3.67366801187356        1.82487337052273       -0.36241239341687
C           -4.51842179145386        1.55610063633335       -1.42787091674112
C           -4.20920733803709        0.61100926461626       -2.40499891177034
C           -5.07685883356283        0.37470948976095       -3.45418657401535
C           -6.26581848132172        1.07885385302770       -3.55753709757387
C           -6.58034315442941        2.03797787665265       -2.61058808686134
C           -5.71585513306100        2.28258265830164       -1.55620371345266
O           -6.07200922964066        3.26104750686754       -0.67128889107385
C           -5.24212579138457        3.49474714937180        0.38695811966423
C           -5.62854164311096        4.46555287766247        1.29629817060903
C           -4.84008696677564        4.73386449476534        2.40221738040016
C           -3.67290484294517        4.01584105993828        2.60558581126277
C           -3.27898947514839        3.04570370602066        1.70332464634960
C           -4.04366721248423        2.78129855479082        0.56752657243410
C           -1.25007964146299        1.85690296732184       -0.32319395842474
C           -0.01350441020600        1.20250062200162       -0.19540934564252
C            1.20927046387908        1.88917629975550       -0.27918458883918
C            2.41627195564282        1.19716641576664       -0.12899224120310
N            3.63302013250884        1.91991753239555       -0.23241702705762
C            4.52469711069786        1.66413337163174       -1.26238970966058
C            4.27799534020597        0.70288712080244       -2.24161376108339
C            5.19150761208496        0.47999628154723       -3.25414976822065
C            6.36507372342463        1.21396115529698       -3.31859266769104
C            6.61768643810353        2.18941721972310       -2.36982535024464
C            5.70700453626909        2.42059271796959       -1.35190626037344
O            6.00334987328953        3.41594261895128       -0.46381654722957
C            5.12887805244956        3.63548243070220        0.56101564591044
C            5.45606217577799        4.62249481644988        1.47613542816106
C            4.62057523045273        4.87778969416457        2.55012769046777
C            3.46582930627653        4.13065978045507        2.71625822022592
C            3.13086337454033        3.14423057033252        1.80788323808995
C            3.94344088334876        2.89219315440457        0.70294039751752
C            2.43708204161761       -0.16264875411782        0.09650493378721
C            1.22973151478180       -0.87438729639008        0.18295844586213
C            0.00057964229999       -0.20274859537230        0.04005338923875
C            1.26409340286121       -2.30469916598303        0.41748552132111
O            2.29852510993953       -2.95046040851283        0.54438937917365
H            2.53077520457308       -4.37209491519013       -1.53018052856912
H            2.02719835167217       -4.37802525500468       -3.22834995262142
H            2.09405106610827       -5.89112495538774       -2.31678451597516
H            0.21538913809869       -3.54725740625676       -1.78403367531138
H           -0.48836877790902       -4.75075141021981       -3.77007222253731
H           -0.38235097197074       -6.30339931423289       -2.94334579414296
H           -1.59450887639152       -5.12147743731036       -2.44141174808962
H            0.39489635163136       -7.22891931001930       -1.04158318119104
H            0.09334428823725       -8.15098590859152        1.20929882723124
H           -0.23921909656339       -6.65729198461713        3.12393770033402
H           -0.15598524873704       -2.90939545114642        2.83195941601290
H           -1.97725381414848       -5.06652711491762        3.98844145223534
H           -2.44798360946910       -3.83101559811195        2.81802156336619
H           -1.95355553988984       -3.36070660708629        4.45203550855702
H            0.50671914493019       -5.22826833202407        4.69821047977028
H            1.69023029578259       -4.19545283005495        3.89111938989554
H            0.56745790330146       -3.50683160045408        5.07032768583932
H           -3.35197261543969       -0.79134447044826        0.08963223464769
H           -3.28400794148079        0.06268312159827       -2.33417579768706
H           -4.81936905257696       -0.36583260333924       -4.19488678002745
H           -6.94430634239571        0.88949038050347       -4.37391406367997
H           -7.49049776976498        2.61283092383290       -2.66933704836295
H           -6.55161028696771        4.99367284674502        1.11966368413646
H           -5.14533446136973        5.49160867387814        3.10606232882075
H           -3.06489409329133        4.20589656747360        3.47621310896471
H           -2.37792179589410        2.47921559659389        1.87411862498832
H           -1.27947249720902        2.91808765052648       -0.52067115582158
H            1.21777569629805        2.95045474885907       -0.47814992697975
H            3.36511150227346        0.13131992539527       -2.20149092177563
H            4.98212614143244       -0.27363119499851       -3.99681030557018
H            7.07941742241589        1.03506747435973       -4.10623411888313
H            7.51421852976884        2.78746345877737       -2.39916955547599
H            6.37104250451411        5.17334493466417        1.32936218397968
H            4.87978533325955        5.64822590726782        3.25863785162009
H            2.82144266185198        4.31061278043893        3.56252773342777
H            2.23932846139318        2.55524463265069        1.95022235476501
H            3.36305022617030       -0.70157847163778        0.22129317236763

 projected vibrational frequencies (cm⁻¹)
eigval :       -0.00    -0.00    -0.00     0.00     0.00     0.00
eigval :       12.13    12.45    14.82    14.99    20.38    26.95
eigval :       35.86    36.59    41.93    43.50    45.98    50.59
eigval :       57.04    72.22    79.75   103.18   108.19   109.68
eigval :      113.06   120.72   125.90   143.60   144.83   157.59
eigval :      164.87   182.14   195.93   200.96   205.75   224.17
eigval :      231.93   236.14   243.56   244.61   244.91   251.59
eigval :      253.96   268.66   270.80   272.52   279.57   285.71
eigval :      300.49   301.53   303.01   320.02   338.70   381.66
eigval :      384.91   392.86   396.04   414.68   415.75   421.82
eigval :      425.00   431.30   432.04   442.17   442.25   445.32
eigval :      451.97   469.60   479.72   482.80   498.55   499.47
eigval :      499.53   506.17   514.76   517.00   526.25   530.82
eigval :      535.85   561.78   570.22   573.37   577.17   586.73
eigval :      606.16   609.51   615.68   620.86   622.85   636.56
eigval :      654.79   667.64   667.94   670.12   671.74   673.10
eigval :      673.57   676.38   688.90   717.45   721.58   729.96
eigval :      764.42   770.98   776.67   777.04   778.22   778.52
eigval :      792.09   795.48   807.57   830.67   834.82   845.46
eigval :      849.36   851.49   855.71   857.39   857.62   865.79
eigval :      866.70   871.40   872.44   895.40   900.83   901.17
eigval :      903.69   903.84   915.32   915.78   917.17   917.38
eigval :      918.96   919.06   923.57   937.79   947.89   948.78
eigval :      975.52   981.03   989.33   989.40   993.60  1045.98
eigval :     1069.97  1077.23  1084.44  1084.57  1084.82  1085.79
eigval :     1086.20  1100.62  1114.56  1114.93  1116.01  1122.70
eigval :     1141.32  1142.22  1149.39  1150.78  1163.65  1165.29
eigval :     1173.10  1173.39  1173.73  1177.06  1180.12  1182.06
eigval :     1182.65  1197.81  1200.09  1206.37  1209.91  1210.26
eigval :     1224.59  1238.04  1238.16  1247.37  1251.30  1254.19
eigval :     1254.68  1258.71  1287.40  1296.49  1297.26  1310.19
eigval :     1311.72  1313.46  1315.08  1318.39  1319.11  1320.92
eigval :     1334.36  1343.56  1346.57  1357.69  1365.46  1369.50
eigval :     1373.18  1390.12  1401.00  1401.40  1406.07  1414.59
eigval :     1414.96  1418.21  1418.81  1441.05  1441.43  1442.17
eigval :     1442.75  1447.76  1456.69  1464.69  1475.07  1478.42
eigval :     1482.70  1493.26  1493.71  1494.45  1494.86  1497.42
eigval :     1503.64  1504.29  1505.61  1505.96  1539.17  1556.42
eigval :     1556.56  1564.69  1564.77  1572.63  1575.87  1586.71
eigval :     1587.11  1590.65  1591.68  1615.34  1639.66  2938.53
eigval :     2940.00  3015.46  3017.34  3021.12  3022.83  3031.52
eigval :     3031.92  3036.09  3036.19  3040.04  3040.60  3042.50
eigval :     3042.58  3068.92  3080.31  3085.19  3085.58  3091.53
eigval :     3095.66  3095.85  3098.16  3098.28  3104.67  3104.94
eigval :     3105.85  3106.00  3106.30  3106.56  3114.00  3114.44
eigval :     3115.14  3115.27  3115.91  3116.75  3117.03  3117.86

   temp. (K)  partition function   enthalpy   heat capacity  entropy
                                   cal/mol     cal/K/mol   cal/K/mol   J/K/mol
 298.15  VIB  0.550E+22            27514.379    169.800    171.121
         ROT  0.119E+09              888.752      2.981     39.936
         INT  0.655E+30            28403.132    172.781    211.057
         TR   0.187E+29             1481.254      4.968     45.581
         TOT                       29884.3858   177.7492   256.6383  1073.7747

       T/K    H(0)-H(T)+PV         H(T)/Eh          T*S/Eh         G(T)/Eh
   ------------------------------------------------------------------------
    298.15    0.476238E-01    0.757603E+00    0.121937E+00    0.635666E+00
   ------------------------------------------------------------------------

         :::::::::::::::::::::::::::::::::::::::::::::::::::::
         ::                  THERMODYNAMIC                  ::
         :::::::::::::::::::::::::::::::::::::::::::::::::::::
         :: total free energy        -146.142781135827 Eh   ::
         ::.................................................::
         :: total energy             -146.778446868438 Eh   ::
         :: zero point energy           0.709979078491 Eh   ::
         :: G(RRHO) w/o ZPVE           -0.074313345879 Eh   ::
         :: G(RRHO) contrib.            0.635665732611 Eh   ::
         :::::::::::::::::::::::::::::::::::::::::::::::::::::

           -------------------------------------------------
          | TOTAL ENERGY             -146.778446868438 Eh   |
          | TOTAL ENTHALPY           -146.020843989860 Eh   |
          | TOTAL FREE ENERGY        -146.142781135827 Eh   |
          | GRADIENT NORM               0.000074507931 Eh/α |
           -------------------------------------------------

 * finished run on 2025/08/24 at 16:02:16.288
