   * xtb version 6.7.1 (edcfbbe) compiled by 'albert@albert-system' on 2024-07-22

   ID    Z sym.   atoms
    1    6 C      1-12, 14-25, 27, 28, 30, 32-40, 42-57
    2    7 N      13, 26, 29, 31, 41, 58
    3    1 H      59-90

          program call               : xtb data2507/toluene/CZ9CZPZ/CZ9CZPZ_toluene_S0_crest.xyz --gfn 2 --gbsa toluene --ohess vtight --parallel 40 --molden --ceasefiles --namespace data2507/toluene/CZ9CZPZ/CZ9CZPZ_toluene_S0_finalOpt
      * Solvation model:               GBSA
        Solvent                        toluene
        Solvent mass                       9.2140E+01 g/mol
          :  Hamiltonian                  GFN2-xTB          :
 * total energy  :  -145.4232942 Eh     change       -0.1056520E-08 Eh
 * total energy  :  -145.4233235 Eh     change       -0.2925016E-04 Eh
 * total energy  :  -145.4233360 Eh     change       -0.1255608E-04 Eh
 * total energy  :  -145.4233411 Eh     change       -0.5069868E-05 Eh
 * total energy  :  -145.4233458 Eh     change       -0.4733473E-05 Eh
 * total energy  :  -145.4233479 Eh     change       -0.2073419E-05 Eh
 * total energy  :  -145.4233502 Eh     change       -0.2323997E-05 Eh
 * total energy  :  -145.4233526 Eh     change       -0.2327696E-05 Eh
 * total energy  :  -145.4233547 Eh     change       -0.2182068E-05 Eh
 * total energy  :  -145.4233563 Eh     change       -0.1578837E-05 Eh
 * total energy  :  -145.4233591 Eh     change       -0.7615909E-06 Eh
 * total energy  :  -145.4233598 Eh     change       -0.6851484E-06 Eh
 * total energy  :  -145.4233603 Eh     change       -0.4675547E-06 Eh
 * total energy  :  -145.4233607 Eh     change       -0.3898380E-06 Eh
 * total energy  :  -145.4233610 Eh     change       -0.3144746E-06 Eh
 * total energy  :  -145.4233612 Eh     change       -0.2605628E-06 Eh
 * total energy  :  -145.4233615 Eh     change       -0.2676928E-06 Eh
 * total energy  :  -145.4233618 Eh     change       -0.3309827E-06 Eh
 * total energy  :  -145.4233618 Eh     change       -0.4835528E-08 Eh
   *** GEOMETRY OPTIMIZATION CONVERGED AFTER 22 ITERATIONS ***

 final structure:
================
90
 xtb: 6.7.1 (edcfbbe)
C          -11.16884370040036       -0.11928653184294       -0.76719203943347
C          -10.15602330528435        0.74260451578509       -1.18423521223584
C           -8.84205936753092        0.55062872101487       -0.80199839367243
C           -8.55754165098908       -0.52877818784124        0.02315290158110
C           -9.57532358678773       -1.42115672189549        0.43377321676081
C          -10.88913241488295       -1.20700310212066        0.03596134888729
C           -8.93533310809651       -2.43041272840502        1.23052990039449
C           -9.39974980943806       -3.54851229035210        1.91198312532497
C           -8.49533425637479       -4.31634957231981        2.61836499148729
C           -7.14509848735570       -3.97352738356345        2.66265417920580
C           -6.65909818414339       -2.86685246642199        1.99291852380914
C           -7.55923663921804       -2.10442288252735        1.26116377259213
N           -7.34537847881710       -0.95470833020653        0.52812459384567
C           -6.10507996197162       -0.32696304512716        0.32624491618458
C           -5.02097175956397       -1.07663970406064       -0.14466695450562
C           -3.78286506658679       -0.50171187517584       -0.35456532790909
C           -3.64254177391538        0.85384447502776       -0.10154215792493
C           -4.73006145658557        1.62050720230704        0.36848688598194
C           -5.96352922717246        1.02829071235407        0.59153184692443
C           -4.25117523181438        2.96766977741743        0.52715359177036
C           -4.86957326375908        4.15042691234717        0.90915977149520
C           -4.12719294153067        5.31520684573540        0.90582859915523
C           -2.79458769431490        5.30828572335719        0.50420777893421
C           -2.15871924522913        4.13970355260640        0.12304817917837
C           -2.88646494692871        2.95931132878033        0.16252076651209
N           -2.51732115524283        1.66628492259701       -0.19486612677145
C           -1.24884106181381        1.24106818568071       -0.53727481551377
C           -0.09138062201773        1.77412919035765        0.04556257211721
N            1.11040958179941        1.40192998208242       -0.33929686117816
C            1.21345771490402        0.47285040709812       -1.29455542778039
N            2.48166017124510        0.12626808561303       -1.71801180380031
C            2.84168214992674       -0.28518756695631       -2.99737515700767
C            2.09601214107406       -0.32562744632828       -4.16647828919156
C            2.72498863123420       -0.74859854528486       -5.32434665713277
C            4.06785585295911       -1.11437142580059       -5.33229020575245
C            4.82688942834543       -1.03882296307650       -4.18073858575536
C            4.21552477343525       -0.61396852983420       -3.00898218987708
C            4.70882825964701       -0.37737415310202       -1.67869954824417
C            5.96036575198957       -0.52194697925417       -1.10007294420956
C            6.10905468201598       -0.20668886381727        0.24362842005707
N            7.36266859028006       -0.35021575302505        0.86111600550598
C            8.01909919516558        0.61684603709498        1.59533082772829
C            7.64400381505435        1.92469739871751        1.87080172573950
C            8.50662416786705        2.69886285358756        2.62307889391776
C            9.72039427745643        2.19483403761260        3.08716316381883
C           10.10947679891661        0.90219452610820        2.79729922937511
C            9.25880158885595        0.10353907414521        2.04322935471051
C            9.34344916469351       -1.24359571946481        1.55242383447019
C           10.29597190033269       -2.24782915811346        1.67250769001040
C           10.04841353699097       -3.46988903998049        1.07943170271955
C            8.86194007216412       -3.70250486540356        0.38594577516575
C            7.90000463731140       -2.71959360292297        0.25192210744242
C            8.15275868096164       -1.48155440083869        0.82682400268825
C            5.01780236208802        0.24852446487227        0.99243497457849
C            3.77012852146084        0.41258577034332        0.42315616102207
C            3.61952077656653        0.09896201389481       -0.91855655583318
C            0.05748805937349       -0.15356480552246       -1.77852828836642
N           -1.14481912689244        0.23658028355268       -1.41258770737876
H          -12.18440092881105        0.06596527885048       -1.08548373342028
H          -10.40339566174373        1.57760159372925       -1.82374441538571
H           -8.06239113305484        1.21515494840578       -1.14277430332994
H          -11.67208764031845       -1.88250418150390        0.34725237101177
H          -10.44834983607009       -3.80575175212625        1.89042793339556
H           -8.83558737749448       -5.19121717509985        3.15297510910980
H           -6.46379032591185       -4.58496165823933        3.23657204648407
H           -5.61405705638978       -2.60071108271566        2.04538110970884
H           -5.16634149016368       -2.12459261409921       -0.35840342003304
H           -2.95549565321587       -1.08580913525561       -0.72241478171480
H           -6.79351941151468        1.60195050729589        0.97316818426164
H           -5.91086496175587        4.15481620305983        1.19209961876356
H           -4.58607404707726        6.24676086755529        1.20069613131806
H           -2.24264139220518        6.23600793602094        0.48224612276378
H           -1.13416477412040        4.16497782042417       -0.21458236260582
H           -0.13059342638075        2.48084025342584        0.86207277342584
H            1.06240557677933       -0.01706005644822       -4.19256747075591
H            2.15918612104181       -0.78837542840059       -6.24307639202763
H            4.52106888686223       -1.44356965525101       -6.25508223144102
H            5.87542942706055       -1.29353098608537       -4.18746791916660
H            6.80351093935035       -0.86317425092171       -1.67986756351525
H            6.71309603204408        2.32880545302181        1.50245251765115
H            8.23585800359056        3.71902923715358        2.85394160452186
H           10.36637645101880        2.83103820224028        3.67448075784743
H           11.05656446984945        0.51690029756370        3.14486293732444
H           11.20862801252187       -2.07310288238978        2.22270195154607
H           10.77731021420818       -4.26316195590904        1.15959451021878
H            8.68967414538452       -4.67386315958113       -0.05470061486188
H            6.97729162083891       -2.91400315056014       -0.27402291108425
H            5.15960037206050        0.46618423960688        2.04004786157215
H            2.93849821044337        0.77343609410449        1.00553428876489
H            0.09822337872005       -1.00799670057589       -2.43878954236442

          :  Hamiltonian                  GFN2-xTB          :
         :: gradient norm              0.000053037676 Eh/a0 ::
         :: HOMO-LUMO gap              1.865066782293 eV    ::
         :: SCC energy              -148.097710734222 Eh    ::
         :: -> dispersion             -0.130186244108 Eh    ::
         :: -> Gsolv                  -0.058967778361 Eh    ::
         :: repulsion energy           2.674348888947 Eh    ::

    * Orbital Energies and Occupations

         #    Occupation            Energy/Eh            Energy/eV
      -------------------------------------------------------------
         1        2.0000           -0.7065359             -19.2258
       ...           ...                  ...                  ...
       123        2.0000           -0.4165564             -11.3351
       124        2.0000           -0.4165049             -11.3337
       125        2.0000           -0.4044454             -11.0055
       126        2.0000           -0.4043129             -11.0019
       127        2.0000           -0.3965835             -10.7916
       128        2.0000           -0.3933942             -10.7048
       129        2.0000           -0.3932494             -10.7009
       130        2.0000           -0.3785371             -10.3005
       131        2.0000           -0.3777731             -10.2797
       132        2.0000           -0.3776523             -10.2764
       133        2.0000           -0.3769965             -10.2586
       134        2.0000           -0.3607102              -9.8154
       135        2.0000           -0.3590994              -9.7716 (HOMO)
       136                         -0.2905594              -7.9065 (LUMO)
       137                         -0.2711725              -7.3790
       138                         -0.2590908              -7.0502
       139                         -0.2550107              -6.9392
       140                         -0.2451381              -6.6705
       141                         -0.2448808              -6.6635
       142                         -0.2365033              -6.4356
       143                         -0.2364162              -6.4332
       144                         -0.2211719              -6.0184
       145                         -0.2210462              -6.0150
       146                         -0.2178175              -5.9271
       ...                                ...                  ...
       264                          0.7453963              20.2833
      -------------------------------------------------------------
                  HL-Gap            0.0685399 Eh            1.8651 eV

     #   Z          covCN         q      C6AA      α(0)
     1   6 C        2.919    -0.043    29.067     8.841
     2   6 C        2.924    -0.035    28.874     8.812
     3   6 C        2.909    -0.052    29.296     8.875
     4   6 C        3.076     0.047    26.878     8.500
     5   6 C        3.067    -0.019    28.406     8.739
     6   6 C        2.912    -0.035    28.869     8.810
     7   6 C        3.067    -0.019    28.406     8.739
     8   6 C        2.912    -0.035    28.869     8.811
     9   6 C        2.919    -0.043    29.068     8.841
    10   6 C        2.924    -0.035    28.878     8.813
    11   6 C        2.909    -0.052    29.303     8.876
    12   6 C        3.076     0.046    26.882     8.501
    13   7 N        2.802    -0.045    22.100     6.982
    14   6 C        2.912     0.057    26.724     8.477
    15   6 C        2.927    -0.045    29.110     8.848
    16   6 C        2.910    -0.046    29.142     8.852
    17   6 C        3.062     0.049    26.847     8.497
    18   6 C        3.064    -0.012    28.256     8.717
    19   6 C        2.916    -0.047    29.157     8.855
    20   6 C        3.065    -0.012    28.243     8.715
    21   6 C        2.913    -0.031    28.775     8.796
    22   6 C        2.920    -0.037    28.919     8.819
    23   6 C        2.924    -0.031    28.775     8.797
    24   6 C        2.910    -0.051    29.269     8.871
    25   6 C        3.060     0.044    26.951     8.513
    26   7 N        2.801    -0.046    22.121     6.985
    27   6 C        2.890     0.137    25.002     8.198
    28   6 C        2.898     0.037    27.169     8.546
    29   7 N        1.847    -0.242    27.162     7.724
    30   6 C        2.890     0.137    25.002     8.198
    31   7 N        2.801    -0.046    22.123     6.986
    32   6 C        3.060     0.044    26.950     8.513
    33   6 C        2.910    -0.051    29.272     8.872
    34   6 C        2.923    -0.031    28.775     8.797
    35   6 C        2.920    -0.037    28.920     8.819
    36   6 C        2.913    -0.031    28.776     8.796
    37   6 C        3.065    -0.012    28.245     8.715
    38   6 C        3.064    -0.012    28.257     8.717
    39   6 C        2.916    -0.047    29.157     8.855
    40   6 C        2.912     0.057    26.724     8.477
    41   7 N        2.802    -0.045    22.104     6.983
    42   6 C        3.076     0.046    26.881     8.501
    43   6 C        2.909    -0.052    29.302     8.876
    44   6 C        2.924    -0.035    28.876     8.812
    45   6 C        2.919    -0.043    29.069     8.841
    46   6 C        2.912    -0.035    28.871     8.811
    47   6 C        3.067    -0.019    28.409     8.740
    48   6 C        3.067    -0.019    28.408     8.740
    49   6 C        2.912    -0.035    28.870     8.811
    50   6 C        2.919    -0.043    29.069     8.841
    51   6 C        2.924    -0.035    28.878     8.813
    52   6 C        2.909    -0.052    29.302     8.876
    53   6 C        3.076     0.046    26.882     8.501
    54   6 C        2.927    -0.045    29.113     8.848
    55   6 C        2.910    -0.046    29.136     8.851
    56   6 C        3.062     0.049    26.844     8.496
    57   6 C        2.898     0.037    27.170     8.546
    58   7 N        1.847    -0.242    27.166     7.725
    59   1 H        0.926     0.028     2.619     2.531
    60   1 H        0.926     0.030     2.586     2.515
    61   1 H        0.926     0.030     2.590     2.517
    62   1 H        0.926     0.030     2.585     2.514
    63   1 H        0.926     0.030     2.582     2.513
    64   1 H        0.926     0.028     2.620     2.531
    65   1 H        0.926     0.029     2.594     2.518
    66   1 H        0.926     0.029     2.606     2.525
    67   1 H        0.926     0.049     2.334     2.389
    68   1 H        0.926     0.054     2.276     2.359
    69   1 H        0.926     0.050     2.320     2.382
    70   1 H        0.926     0.044     2.391     2.418
    71   1 H        0.926     0.042     2.424     2.435
    72   1 H        0.926     0.042     2.423     2.434
    73   1 H        0.926     0.031     2.577     2.510
    74   1 H        0.926     0.051     2.306     2.375
    75   1 H        0.926     0.031     2.578     2.511
    76   1 H        0.926     0.042     2.424     2.435
    77   1 H        0.926     0.042     2.425     2.435
    78   1 H        0.926     0.044     2.392     2.419
    79   1 H        0.926     0.050     2.321     2.382
    80   1 H        0.926     0.030     2.587     2.515
    81   1 H        0.926     0.030     2.588     2.516
    82   1 H        0.926     0.028     2.621     2.532
    83   1 H        0.926     0.030     2.586     2.515
    84   1 H        0.926     0.030     2.586     2.515
    85   1 H        0.926     0.028     2.621     2.532
    86   1 H        0.926     0.030     2.589     2.516
    87   1 H        0.926     0.029     2.598     2.521
    88   1 H        0.926     0.049     2.334     2.389
    89   1 H        0.926     0.053     2.285     2.364
    90   1 H        0.926     0.051     2.306     2.375

molecular dipole:
                 x           y           z       tot (Debye)
 q only:       -0.034       0.431      -0.444
   full:       -0.034       0.483      -0.500       1.770

 projected vibrational frequencies (cm⁻¹)
eigval :       -0.00    -0.00    -0.00     0.00     0.00     0.00
eigval :        3.04     5.84    11.56    22.68    24.13    26.87
eigval :       31.74    39.04    44.57    64.38    65.26    84.71
eigval :       90.50   100.51   101.87   104.83   112.47   126.27
eigval :      130.81   142.00   143.68   150.45   153.34   169.04
eigval :      174.36   201.81   213.32   227.12   250.67   257.95
eigval :      269.66   271.39   273.00   279.17   281.58   299.84
eigval :      312.97   346.61   349.66   378.17   384.53   390.63
eigval :      392.97   394.90   398.76   403.02   410.97   420.31
eigval :      421.29   423.02   426.47   428.97   433.63   435.66
eigval :      441.15   464.41   466.65   495.45   517.41   517.70
eigval :      528.90   529.53   535.18   538.04   539.31   541.34
eigval :      541.49   543.17   557.68   558.56   587.22   587.55
eigval :      591.87   593.06   603.02   612.09   624.69   627.39
eigval :      636.32   643.38   664.56   673.14   673.88   680.05
eigval :      680.70   695.56   705.50   707.30   708.22   708.77
eigval :      713.88   727.14   754.52   754.73   759.45   767.30
eigval :      768.61   772.90   774.74   778.70   779.41   792.95
eigval :      797.42   823.31   824.88   847.16   863.65   864.24
eigval :      864.79   868.67   871.05   878.55   879.67   881.18
eigval :      888.82   894.82   897.01   897.11   897.38   898.34
eigval :      900.50   902.45   902.88   903.85   911.21   912.16
eigval :      913.19   921.03   921.48   922.24   922.38   924.06
eigval :      928.40   935.08   966.95   970.55   973.27  1010.96
eigval :     1011.19  1026.33  1028.11  1032.21  1067.88  1068.56
eigval :     1071.25  1072.03  1074.85  1076.02  1107.23  1107.28
eigval :     1125.91  1130.10  1146.53  1146.94  1150.03  1151.12
eigval :     1171.38  1171.72  1177.42  1178.72  1179.21  1180.04
eigval :     1180.36  1182.21  1187.53  1191.79  1217.79  1218.91
eigval :     1228.27  1232.75  1234.63  1235.39  1238.76  1240.94
eigval :     1246.46  1247.50  1267.12  1272.57  1286.32  1289.12
eigval :     1299.05  1301.15  1301.29  1303.53  1306.08  1340.49
eigval :     1340.60  1352.58  1354.41  1354.91  1355.14  1359.89
eigval :     1360.15  1365.23  1365.92  1392.40  1400.39  1416.13
eigval :     1416.38  1417.79  1426.49  1426.71  1429.17  1433.21
eigval :     1437.44  1447.88  1470.31  1471.28  1474.03  1474.83
eigval :     1484.82  1485.06  1486.93  1486.94  1492.73  1565.58
eigval :     1567.37  1571.98  1573.03  1574.80  1582.75  1583.51
eigval :     1587.01  1587.16  1595.53  1595.73  1597.03  1597.09
eigval :     1608.56  1609.00  1612.82  1613.03  3068.08  3069.58
eigval :     3070.11  3070.17  3070.48  3070.74  3075.51  3075.53
eigval :     3076.33  3076.41  3080.94  3081.87  3083.44  3083.45
eigval :     3084.37  3084.48  3086.62  3087.20  3089.95  3090.27
eigval :     3092.54  3092.60  3093.77  3094.31  3095.69  3095.95
eigval :     3100.22  3100.28  3102.69  3102.92  3116.39  3116.63

   temp. (K)  partition function   enthalpy   heat capacity  entropy
                                   cal/mol     cal/K/mol   cal/K/mol   J/K/mol
 298.15  VIB  0.164E+21            25385.854    164.769    157.626
         ROT  0.210E+09              888.752      2.981     41.066
         INT  0.346E+29            26274.606    167.749    198.692
         TR   0.195E+29             1481.254      4.968     45.667
         TOT                       27755.8600   172.7175   244.3587  1022.3968

       T/K    H(0)-H(T)+PV         H(T)/Eh          T*S/Eh         G(T)/Eh
   ------------------------------------------------------------------------
    298.15    0.442318E-01    0.724562E+00    0.116103E+00    0.608460E+00
   ------------------------------------------------------------------------

         :::::::::::::::::::::::::::::::::::::::::::::::::::::
         ::                  THERMODYNAMIC                  ::
         :::::::::::::::::::::::::::::::::::::::::::::::::::::
         :: total free energy        -144.814902267540 Eh   ::
         ::.................................................::
         :: total energy             -145.423361845974 Eh   ::
         :: zero point energy           0.680330506561 Eh   ::
         :: G(RRHO) w/o ZPVE           -0.071870928127 Eh   ::
         :: G(RRHO) contrib.            0.608459578434 Eh   ::
         :::::::::::::::::::::::::::::::::::::::::::::::::::::

           -------------------------------------------------
          | TOTAL ENERGY             -145.423361845974 Eh   |
          | TOTAL ENTHALPY           -144.698799561047 Eh   |
          | TOTAL FREE ENERGY        -144.814902267540 Eh   |
          | GRADIENT NORM               0.000053031588 Eh/α |
          | HOMO-LUMO GAP               1.865066959695 eV   |
           -------------------------------------------------

 * finished run on 2025/08/21 at 19:24:03.045
