   * xtb version 6.7.1 (edcfbbe) compiled by 'albert@albert-system' on 2024-07-22

   ID    Z sym.   atoms
    1    6 C      1-12, 14-25, 27, 28, 30, 32-40, 42-57
    2    7 N      13, 26, 29, 31, 41, 58
    3    1 H      59-90

          program call               : xtb data2507/toluene/CZ9CZPZ/CZ9CZPZ.xyz --gfn 2 --gbsa toluene --ohess vtight --parallel 40 --molden --ceasefiles --namespace data2507/toluene/CZ9CZPZ/CZ9CZPZ_toluene_S0_preOpt
      * Solvation model:               GBSA
        Solvent                        toluene
        Solvent mass                       9.2140E+01 g/mol
          :  Hamiltonian                  GFN2-xTB          :
 * total energy  :  -145.3892859 Eh     change       -0.1124960E-08 Eh
 * total energy  :  -145.4125764 Eh     change       -0.2329053E-01 Eh
 * total energy  :  -145.4188319 Eh     change       -0.6255516E-02 Eh
 * total energy  :  -145.4201985 Eh     change       -0.1366556E-02 Eh
 * total energy  :  -145.4213315 Eh     change       -0.1133046E-02 Eh
 * total energy  :  -145.4219249 Eh     change       -0.5933493E-03 Eh
 * total energy  :  -145.4223481 Eh     change       -0.4232257E-03 Eh
 * total energy  :  -145.4226092 Eh     change       -0.2610924E-03 Eh
 * total energy  :  -145.4227365 Eh     change       -0.1272719E-03 Eh
 * total energy  :  -145.4228256 Eh     change       -0.8909841E-04 Eh
 * total energy  :  -145.4233205 Eh     change       -0.2591256E-05 Eh
 * total energy  :  -145.4233233 Eh     change       -0.2864745E-05 Eh
 * total energy  :  -145.4233265 Eh     change       -0.3187498E-05 Eh
 * total energy  :  -145.4233291 Eh     change       -0.2604574E-05 Eh
 * total energy  :  -145.4233306 Eh     change       -0.1496936E-05 Eh
 * total energy  :  -145.4233315 Eh     change       -0.9122686E-06 Eh
 * total energy  :  -145.4233323 Eh     change       -0.7696890E-06 Eh
 * total energy  :  -145.4233330 Eh     change       -0.7240679E-06 Eh
 * total energy  :  -145.4233330 Eh     change       -0.4928637E-08 Eh
   *** GEOMETRY OPTIMIZATION CONVERGED AFTER 68 ITERATIONS ***

 final structure:
================
90
 xtb: 6.7.1 (edcfbbe)
C           -9.74958556658619        3.66158604834507       -0.78560959805216
C           -8.53842553723419        3.71328831237200       -0.09772374467824
C           -7.67249527306620        2.63667306336906       -0.07902613180063
C           -8.04162355069574        1.49533330619114       -0.77773145306612
C           -9.27782781755517        1.42618175992085       -1.46181287206943
C          -10.13199878412517        2.52194102135198       -1.46484912572581
C           -9.35464327775878        0.11031294965036       -2.03232712487064
C          -10.29857203426202       -0.53829758762446       -2.81875272118925
C          -10.04363782226831       -1.83225547923393       -3.22756432590206
C           -8.85946256324043       -2.47592939480871       -2.87245524514788
C           -7.90580808291369       -1.85226908032586       -2.09079723975196
C           -8.16478744642541       -0.55818762096587       -1.66041445866087
N           -7.38128453761280        0.28994814744282       -0.90430099226859
C           -6.12590192762871       -0.02161589612484       -0.35565839445227
C           -5.03904188945762        0.82697033024195       -0.59545977091260
C           -3.79023028436284        0.56723161442995       -0.06590746536424
C           -3.63466223202956       -0.57279199655578        0.70690763873537
C           -4.71910591943629       -1.44518750736093        0.94010096871040
C           -5.97153253321732       -1.16578760559704        0.41504370190388
C           -4.22082606107809       -2.51780705323404        1.75894130515087
C           -4.82562391862586       -3.62888407880101        2.33080634851126
C           -4.06253702787626       -4.45975120007884        3.12787196447101
C           -2.72223531641969       -4.17618023058109        3.37353114310129
C           -2.09958858944077       -3.07610781930898        2.81032036267192
C           -2.84903287202263       -2.25963398374570        1.97601419959652
N           -2.49469749904469       -1.08826914546837        1.31428892587723
C           -1.22952082677808       -0.53910798185112        1.24247335192063
C           -0.06919444811907       -1.32180878705715        1.17590928358537
N            1.13041750926850       -0.78112338529714        1.18451945381321
C            1.22712219806618        0.55090296523327        1.23215984749898
N            2.49201613384585        1.10180495942199        1.29441412209977
C            2.84549784572163        2.28327899719576        1.93849168348876
C            2.09560309529448        3.11154415053420        2.76069069843708
C            2.71769228312213        4.21998517034964        3.30787532338045
C            4.05786491790652        4.50063251374260        3.05823479947632
C            4.82141676456449        3.65853241228575        2.27351750113182
C            4.21715313832505        2.53896595221785        1.71788966806813
C            4.71617955585163        1.45450143565992        0.91534080301377
C            5.96895623202886        1.16814714191436        0.39512512336472
C            6.12452174688730        0.01311570535461       -0.35905062118630
N            7.38045904531495       -0.30410252031169       -0.90284780130664
C            8.04153361994822       -1.50778393953152       -0.76351665083949
C            7.67129597818846       -2.64370536336981       -0.05659571284633
C            8.53844976002722       -3.71950492596409       -0.06317320284058
C            9.75197759465700       -3.67234714487662       -0.74715880283846
C           10.13573771081403       -2.53782089385682       -1.43413604850845
C            9.28033944785926       -1.44307764838222       -1.44334746440649
C            9.35854306809594       -0.13173141482755       -2.02394136705032
C           10.30582247481778        0.51152098481683       -2.81074318444609
C           10.05224034013331        1.80232285339229       -3.23021420958506
C            8.86575936291923        2.44760858895978       -2.88596846246605
C            7.90864399839039        1.82906365030655       -2.10448849995724
C            8.16655079383001        0.53863672439350       -1.66254027331290
C            5.03814928213886       -0.83942681667185       -0.58695221998722
C            3.78907553275296       -0.57304636769356       -0.06113533124996
C            3.63234057028899        0.57811530141880        0.69474819269450
C            0.06670241449781        1.33246800049230        1.15450978997017
N           -1.13282096139672        0.79199398009266        1.17348636367373
H          -10.39828585957965        4.52536467352673       -0.77784548360401
H           -8.27249842659685        4.61436069818682        0.43584682624993
H           -6.74338935466573        2.68079098842763        0.46903732635060
H          -11.07676652901231        2.47775616959851       -1.98607668927712
H          -11.21008490323050       -0.03534701991487       -3.10581391360795
H          -10.76545277107953       -2.35429729721045       -3.83865158751865
H           -8.68221396615537       -3.48397816396369       -3.21858550942013
H           -6.98437943790167       -2.35305144618686       -1.83390343522557
H           -5.18575832603746        1.69812462200387       -1.21567620199900
H           -2.96171041588731        1.23168915684414       -0.24765327287347
H           -6.81102705959661       -1.81552254382399        0.60664623445234
H           -5.87246055277655       -3.82809605301383        2.16117114519812
H           -4.51064307849826       -5.33089809065551        3.58127345284354
H           -2.15367045168054       -4.82414140279804        4.02368155624503
H           -1.06809875457912       -2.85904160202642        3.04090633441480
H           -0.10470409661253       -2.39705230769133        1.07427972889436
H            1.06424497314690        2.89737812726666        2.99454319171184
H            2.14875364482238        4.87694624994888        3.94858309681186
H            4.50545339727071        5.37858250602947        3.49882404919252
H            5.86814536848254        3.85577909617453        2.10092358827474
H            6.80801674678503        1.82079321187602        0.57838654309155
H            6.74062151491180       -2.68433494435157        0.48903778381295
H            8.27158291960732       -4.61631243445413        0.47707631793405
H           10.40152775394366       -4.53535003936468       -0.72991976206408
H           11.08239637797447       -2.49677328773519       -1.95217712096440
H           11.21895198962178        0.00696343912356       -3.08970318316445
H           10.77684470707871        2.32046536192117       -3.84131360367584
H            8.68944389578684        3.45287354912336       -3.24054089754193
H            6.98548353884233        2.33109556626777       -1.85648240709950
H            5.18522708420139       -1.71908553966199       -1.19493321717154
H            2.96105229863586       -1.24067578692205       -0.23341415468320
H            0.10203895787484        2.40592837187611        1.03545721681972

          :  Hamiltonian                  GFN2-xTB          :
         :: gradient norm              0.000053267244 Eh/a0 ::
         :: HOMO-LUMO gap              1.861710520980 eV    ::
         :: SCC energy              -148.097738985862 Eh    ::
         :: -> dispersion             -0.130189719187 Eh    ::
         :: -> Gsolv                  -0.058977588933 Eh    ::
         :: repulsion energy           2.674405947705 Eh    ::

    * Orbital Energies and Occupations

         #    Occupation            Energy/Eh            Energy/eV
      -------------------------------------------------------------
         1        2.0000           -0.7067048             -19.2304
       ...           ...                  ...                  ...
       123        2.0000           -0.4165980             -11.3362
       124        2.0000           -0.4165053             -11.3337
       125        2.0000           -0.4043142             -11.0019
       126        2.0000           -0.4042936             -11.0014
       127        2.0000           -0.3964462             -10.7878
       128        2.0000           -0.3933746             -10.7043
       129        2.0000           -0.3933231             -10.7029
       130        2.0000           -0.3784591             -10.2984
       131        2.0000           -0.3776871             -10.2774
       132        2.0000           -0.3776349             -10.2760
       133        2.0000           -0.3775493             -10.2736
       134        2.0000           -0.3604035              -9.8071
       135        2.0000           -0.3591535              -9.7731 (HOMO)
       136                         -0.2907369              -7.9114 (LUMO)
       137                         -0.2713488              -7.3838
       138                         -0.2591244              -7.0511
       139                         -0.2550474              -6.9402
       140                         -0.2450397              -6.6679
       141                         -0.2448198              -6.6619
       142                         -0.2365035              -6.4356
       143                         -0.2364668              -6.4346
       144                         -0.2210396              -6.0148
       145                         -0.2210121              -6.0140
       146                         -0.2177910              -5.9264
       ...                                ...                  ...
       264                          0.7454007              20.2834
      -------------------------------------------------------------
                  HL-Gap            0.0684166 Eh            1.8617 eV

     #   Z          covCN         q      C6AA      α(0)
     1   6 C        2.919    -0.043    29.069     8.841
     2   6 C        2.924    -0.035    28.876     8.812
     3   6 C        2.909    -0.052    29.302     8.876
     4   6 C        3.076     0.046    26.880     8.500
     5   6 C        3.067    -0.019    28.410     8.740
     6   6 C        2.912    -0.035    28.871     8.811
     7   6 C        3.067    -0.019    28.408     8.740
     8   6 C        2.912    -0.035    28.870     8.811
     9   6 C        2.919    -0.043    29.070     8.842
    10   6 C        2.924    -0.035    28.878     8.813
    11   6 C        2.909    -0.052    29.302     8.876
    12   6 C        3.076     0.046    26.881     8.500
    13   7 N        2.802    -0.045    22.106     6.983
    14   6 C        2.912     0.057    26.724     8.477
    15   6 C        2.927    -0.045    29.109     8.848
    16   6 C        2.910    -0.046    29.135     8.851
    17   6 C        3.062     0.049    26.843     8.496
    18   6 C        3.064    -0.012    28.256     8.717
    19   6 C        2.916    -0.046    29.154     8.854
    20   6 C        3.065    -0.012    28.244     8.715
    21   6 C        2.913    -0.031    28.775     8.796
    22   6 C        2.920    -0.037    28.920     8.819
    23   6 C        2.924    -0.031    28.775     8.797
    24   6 C        2.910    -0.051    29.271     8.872
    25   6 C        3.060     0.044    26.950     8.513
    26   7 N        2.801    -0.046    22.121     6.985
    27   6 C        2.890     0.137    25.000     8.198
    28   6 C        2.898     0.037    27.170     8.546
    29   7 N        1.847    -0.242    27.158     7.724
    30   6 C        2.890     0.137    25.000     8.197
    31   7 N        2.801    -0.046    22.122     6.986
    32   6 C        3.060     0.044    26.950     8.513
    33   6 C        2.910    -0.051    29.272     8.872
    34   6 C        2.924    -0.031    28.775     8.797
    35   6 C        2.920    -0.037    28.920     8.819
    36   6 C        2.913    -0.031    28.775     8.796
    37   6 C        3.065    -0.012    28.244     8.715
    38   6 C        3.064    -0.012    28.256     8.717
    39   6 C        2.916    -0.047    29.156     8.854
    40   6 C        2.912     0.057    26.724     8.477
    41   7 N        2.802    -0.045    22.104     6.983
    42   6 C        3.076     0.046    26.881     8.501
    43   6 C        2.909    -0.052    29.302     8.876
    44   6 C        2.924    -0.035    28.876     8.812
    45   6 C        2.919    -0.043    29.069     8.841
    46   6 C        2.912    -0.035    28.871     8.811
    47   6 C        3.067    -0.019    28.409     8.740
    48   6 C        3.067    -0.019    28.407     8.740
    49   6 C        2.912    -0.035    28.870     8.811
    50   6 C        2.919    -0.043    29.069     8.841
    51   6 C        2.924    -0.035    28.878     8.813
    52   6 C        2.909    -0.052    29.302     8.876
    53   6 C        3.076     0.046    26.882     8.501
    54   6 C        2.927    -0.045    29.111     8.848
    55   6 C        2.910    -0.046    29.135     8.851
    56   6 C        3.062     0.049    26.844     8.496
    57   6 C        2.898     0.037    27.170     8.546
    58   7 N        1.847    -0.242    27.158     7.724
    59   1 H        0.926     0.028     2.621     2.532
    60   1 H        0.926     0.030     2.588     2.516
    61   1 H        0.926     0.030     2.589     2.516
    62   1 H        0.926     0.030     2.586     2.515
    63   1 H        0.926     0.030     2.586     2.515
    64   1 H        0.926     0.028     2.622     2.532
    65   1 H        0.926     0.030     2.589     2.516
    66   1 H        0.926     0.029     2.599     2.521
    67   1 H        0.926     0.049     2.334     2.389
    68   1 H        0.926     0.053     2.284     2.363
    69   1 H        0.926     0.050     2.321     2.382
    70   1 H        0.926     0.044     2.391     2.418
    71   1 H        0.926     0.042     2.424     2.435
    72   1 H        0.926     0.042     2.423     2.434
    73   1 H        0.926     0.031     2.578     2.511
    74   1 H        0.926     0.051     2.305     2.374
    75   1 H        0.926     0.031     2.578     2.511
    76   1 H        0.926     0.042     2.424     2.434
    77   1 H        0.926     0.042     2.424     2.435
    78   1 H        0.926     0.044     2.391     2.418
    79   1 H        0.926     0.050     2.320     2.382
    80   1 H        0.926     0.030     2.587     2.515
    81   1 H        0.926     0.030     2.588     2.516
    82   1 H        0.926     0.028     2.621     2.532
    83   1 H        0.926     0.030     2.586     2.515
    84   1 H        0.926     0.030     2.586     2.515
    85   1 H        0.926     0.028     2.621     2.532
    86   1 H        0.926     0.030     2.589     2.516
    87   1 H        0.926     0.029     2.598     2.521
    88   1 H        0.926     0.049     2.334     2.389
    89   1 H        0.926     0.053     2.285     2.364
    90   1 H        0.926     0.051     2.305     2.374

molecular dipole:
                 x           y           z       tot (Debye)
 q only:        0.004       0.002       0.609
   full:        0.005       0.003       0.681       1.731

 projected vibrational frequencies (cm⁻¹)
eigval :       -0.00    -0.00     0.00     0.00     0.00     0.00
eigval :        6.71    11.77    15.75    22.74    26.44    29.17
eigval :       33.08    39.55    45.02    64.80    65.02    84.88
eigval :       91.91   102.85   103.89   106.95   113.99   127.54
eigval :      131.74   143.00   144.72   150.17   150.99   170.70
eigval :      174.48   204.13   210.49   231.19   248.04   258.30
eigval :      270.07   273.03   273.99   279.77   281.28   300.82
eigval :      319.00   342.34   354.66   372.28   383.33   392.14
eigval :      395.09   396.09   399.23   402.72   414.32   420.47
eigval :      422.89   423.73   427.02   428.92   435.73   436.28
eigval :      440.36   465.56   467.57   495.59   517.45   517.54
eigval :      529.52   529.86   535.36   538.87   539.76   542.12
eigval :      542.55   543.05   558.18   558.49   587.31   587.37
eigval :      591.93   593.20   602.69   612.45   624.49   628.01
eigval :      637.11   642.66   664.61   674.43   674.49   679.54
eigval :      680.91   695.43   705.65   708.29   709.40   709.72
eigval :      714.32   727.13   754.55   754.56   759.56   767.62
eigval :      768.26   775.77   776.40   778.59   779.25   792.93
eigval :      797.38   824.24   824.96   848.06   865.32   865.63
eigval :      867.66   870.38   870.62   879.86   880.40   881.36
eigval :      889.00   895.10   897.06   897.20   898.01   899.70
eigval :      900.19   902.25   902.89   906.73   912.37   913.00
eigval :      913.21   919.45   919.85   923.15   923.72   925.12
eigval :      927.77   935.03   966.98   970.53   973.33  1011.04
eigval :     1011.10  1026.13  1028.10  1031.89  1068.13  1068.32
eigval :     1071.38  1071.71  1074.32  1074.41  1107.13  1107.25
eigval :     1125.96  1129.95  1146.71  1146.96  1150.39  1150.62
eigval :     1171.42  1171.54  1176.96  1177.32  1179.61  1179.64
eigval :     1181.28  1181.36  1186.98  1191.14  1217.74  1218.72
eigval :     1227.35  1232.43  1234.77  1235.28  1238.68  1240.74
eigval :     1245.88  1246.86  1267.06  1272.58  1286.10  1288.89
eigval :     1298.93  1301.30  1301.32  1303.37  1305.98  1340.44
eigval :     1340.54  1352.62  1354.52  1354.94  1355.17  1359.91
eigval :     1360.10  1365.25  1365.91  1392.31  1400.34  1416.04
eigval :     1416.27  1417.62  1426.82  1426.93  1429.49  1433.34
eigval :     1437.57  1447.86  1470.30  1471.31  1474.00  1474.77
eigval :     1484.85  1485.04  1486.95  1487.01  1492.63  1565.68
eigval :     1567.42  1571.95  1572.96  1574.87  1582.90  1583.65
eigval :     1587.06  1587.09  1595.60  1595.80  1597.21  1597.25
eigval :     1608.67  1609.07  1613.07  1613.13  3067.63  3069.48
eigval :     3070.18  3070.41  3070.88  3070.90  3075.64  3075.83
eigval :     3076.51  3076.56  3081.35  3081.59  3083.39  3083.58
eigval :     3084.30  3084.37  3086.87  3087.10  3090.12  3090.30
eigval :     3092.60  3092.70  3094.30  3094.32  3095.57  3095.97
eigval :     3100.35  3100.54  3102.94  3103.21  3116.99  3117.00

   temp. (K)  partition function   enthalpy   heat capacity  entropy
                                   cal/mol     cal/K/mol   cal/K/mol   J/K/mol
 298.15  VIB  0.199E+20            25321.040    164.791    155.410
         ROT  0.106E+09              888.752      2.981     39.707
         INT  0.211E+28            26209.792    167.771    195.117
         TR   0.195E+29             1481.254      4.968     45.667
         TOT                       27691.0458   172.7396   240.7838  1007.4392

       T/K    H(0)-H(T)+PV         H(T)/Eh          T*S/Eh         G(T)/Eh
   ------------------------------------------------------------------------
    298.15    0.441285E-01    0.724648E+00    0.114404E+00    0.610244E+00
   ------------------------------------------------------------------------

         :::::::::::::::::::::::::::::::::::::::::::::::::::::
         ::                  THERMODYNAMIC                  ::
         :::::::::::::::::::::::::::::::::::::::::::::::::::::
         :: total free energy        -144.813088812623 Eh   ::
         ::.................................................::
         :: total energy             -145.423333037488 Eh   ::
         :: zero point energy           0.680519865554 Eh   ::
         :: G(RRHO) w/o ZPVE           -0.070275640689 Eh   ::
         :: G(RRHO) contrib.            0.610244224865 Eh   ::
         :::::::::::::::::::::::::::::::::::::::::::::::::::::

           -------------------------------------------------
          | TOTAL ENERGY             -145.423333037488 Eh   |
          | TOTAL ENTHALPY           -144.698684681507 Eh   |
          | TOTAL FREE ENERGY        -144.813088812623 Eh   |
          | GRADIENT NORM               0.000053263576 Eh/α |
          | HOMO-LUMO GAP               1.861710433581 eV   |
           -------------------------------------------------

 * finished run on 2025/08/21 at 19:18:07.884
