   * xtb version 6.7.1 (edcfbbe) compiled by 'albert@albert-system' on 2024-07-22

   ID    Z sym.   atoms
    1    6 C      1-12, 14-25, 27, 28, 30, 32-40, 42-57
    2    7 N      13, 26, 29, 31, 41, 58
    3    1 H      59-90

          program call               : xtb data2507/toluene/CZ9CZPZ/CZ9CZPZ_toluene_T1_crest.xyz --gfn 2 --uhf 2 --gbsa toluene --ohess vtight --parallel 40 --molden --ceasefiles --namespace data2507/toluene/CZ9CZPZ/CZ9CZPZ_toluene_T1_finalOpt
      * Solvation model:               GBSA
        Solvent                        toluene
        Solvent mass                       9.2140E+01 g/mol
          :  Hamiltonian                  GFN2-xTB          :
 * total energy  :  -145.3440069 Eh     change       -0.4784567E-07 Eh
 * total energy  :  -145.3440816 Eh     change       -0.7466470E-04 Eh
 * total energy  :  -145.3441292 Eh     change       -0.4763645E-04 Eh
 * total energy  :  -145.3441445 Eh     change       -0.1533206E-04 Eh
 * total energy  :  -145.3441599 Eh     change       -0.1533760E-04 Eh
 * total energy  :  -145.3441710 Eh     change       -0.1113739E-04 Eh
 * total energy  :  -145.3441781 Eh     change       -0.7102141E-05 Eh
 * total energy  :  -145.3441825 Eh     change       -0.4333436E-05 Eh
 * total energy  :  -145.3441857 Eh     change       -0.3263089E-05 Eh
 * total energy  :  -145.3441889 Eh     change       -0.3143878E-05 Eh
 * total energy  :  -145.3442693 Eh     change       -0.1576012E-05 Eh
 * total energy  :  -145.3442708 Eh     change       -0.1524058E-05 Eh
 * total energy  :  -145.3442722 Eh     change       -0.1332881E-05 Eh
 * total energy  :  -145.3442734 Eh     change       -0.1224478E-05 Eh
 * total energy  :  -145.3442746 Eh     change       -0.1192269E-05 Eh
 * total energy  :  -145.3442759 Eh     change       -0.1302641E-05 Eh
 * total energy  :  -145.3442774 Eh     change       -0.1511628E-05 Eh
 * total energy  :  -145.3442791 Eh     change       -0.1692924E-05 Eh
 * total energy  :  -145.3442791 Eh     change       -0.9008062E-08 Eh
   *** GEOMETRY OPTIMIZATION CONVERGED AFTER 44 ITERATIONS ***

 final structure:
================
90
 xtb: 6.7.1 (edcfbbe)
C          -11.09001907888813        0.70450057165706       -1.80205345137805
C           -9.91427946126116        1.29960059137694       -2.25476379754292
C           -8.69310696969133        1.02200941736784       -1.66942228570918
C           -8.67249516922405        0.13403030273907       -0.60236695931597
C           -9.85804749591125       -0.49221602328952       -0.15132869017849
C          -11.07272237221554       -0.19831834632348       -0.75594828593257
C           -9.47251419840186       -1.37417749646557        0.91658589181770
C          -10.17946799611720       -2.22625315566447        1.75415569853974
C           -9.48633334304826       -2.92979050033701        2.72077485459235
C           -8.10892534697320       -2.77943136090510        2.86702218959263
C           -7.38378343419050       -1.93695767386987        2.04532570189440
C           -8.07057226775954       -1.24694692371253        1.05546738644455
N           -7.60062195645035       -0.33327955363973        0.13245653273123
C           -6.26499644840203        0.06314627166285       -0.01874067176766
C           -5.26463873162894       -0.91375967820751       -0.13622991047954
C           -3.93536477764412       -0.56641968529511       -0.26095505492927
C           -3.61112453907247        0.78266353321724       -0.28075321834913
C           -4.61396518764154        1.77920456381532       -0.17476610823826
C           -5.94416477824360        1.41606871413103       -0.04281251129051
C           -3.93857472224339        3.04583184500518       -0.22427935397741
C           -4.37638775057844        4.36307883679371       -0.19003204036563
C           -3.44109144622503        5.37453972095862       -0.30271691876770
C           -2.08802727706158        5.08545212122983       -0.46849738860514
C           -1.62847701390976        3.78035355934461       -0.50139187224358
C           -2.55714532067549        2.76029527913389       -0.35617427476525
N           -2.37311130976888        1.38623999458598       -0.37369859794124
C           -1.15953225927888        0.72399439562272       -0.37886044607472
C           -0.10252945393849        1.14632857251375        0.40149050011938
N            1.04856510397139        0.48584031535272        0.49263789085378
C            1.15179068089851       -0.66726205038063       -0.24801421328660
N            2.35156005852202       -1.34808457045759       -0.20369600884930
C            2.52746292814196       -2.72387133312090       -0.26793232115992
C            1.58723373552157       -3.74371384012445       -0.27128626180260
C            2.04344132540461       -5.04964663509660       -0.32603714600468
C            3.40496184811784       -5.34273816359683       -0.36677804776894
C            4.34930937809232       -4.33494984905568       -0.32178417396477
C            3.91414705573775       -3.01757117570690       -0.26047953343836
C            4.59871174964203       -1.76002718090292       -0.16009149127557
C            5.93630948862494       -1.41126256890666       -0.07293864590314
C            6.26761520700079       -0.06509126661939        0.03772160811615
N            7.61096128602173        0.31677892531504        0.13814288057160
C            8.63541243727546       -0.09910489665524       -0.68981481647760
C            8.58986639614315       -0.91514643943645       -1.81215819296805
C            9.77370374090848       -1.15526832285965       -2.48458699440032
C           10.97640640766592       -0.59243365999413       -2.06317957292890
C           11.02396466907801        0.24099487929833       -0.96151128656544
C            9.84816195672967        0.49540128222120       -0.26925476836334
C            9.53044285759499        1.30326561182038        0.87722964891224
C           10.28986287601027        2.09630771527242        1.72643464462332
C            9.65903411153470        2.73085148506910        2.77991158019878
C            8.29280670260277        2.56919043048585        2.99926412552860
C            7.51605336446188        1.78459689025129        2.16721539611350
C            8.13908621067398        1.16593024748074        1.09169788281933
C            5.26755993602077        0.92034090428333        0.05593885818213
C            3.93204074404391        0.58605863160336       -0.02407511800934
C            3.59673160186901       -0.75699196612365       -0.12101338263910
C            0.10421954485670       -1.07093540369849       -1.05167148768990
N           -1.05074187012145       -0.41573701593829       -1.13526259129055
H          -12.02507578325772        0.94823573609965       -2.28457700407455
H           -9.95691585021191        1.99028932459764       -3.08418879733792
H           -7.78510930880091        1.47332577745444       -2.03959499017726
H          -11.98188773297359       -0.67144631974474       -0.41649250606968
H          -11.24935674417762       -2.33017691731680        1.65328171010687
H          -10.01735564951111       -3.59956575805671        3.38106115266061
H           -7.59650744696486       -3.32953155921578        3.64275505265040
H           -6.31974648066116       -1.81297770032700        2.17828588034014
H           -5.55060070728565       -1.95430200465695       -0.14203383322259
H           -3.16756336434399       -1.31695780651910       -0.35937757174609
H           -6.71501870135688        2.16310415608497        0.06464991228738
H           -5.42660861902073        4.58794249412066       -0.08430079722544
H           -3.76062794623661        6.40547861514179       -0.27715337798122
H           -1.38257628409455        5.89517473156682       -0.57968575597718
H           -0.58131004197194        3.56756694195709       -0.65435188951041
H           -0.20862846114154        2.00017149177216        1.05599471230170
H            0.53008159173251       -3.53584028070678       -0.21144116534818
H            1.32680158897010       -5.85712944922255       -0.33077065459992
H            3.72166578593551       -6.37370293047159       -0.41538908385164
H            5.40434695683481       -4.56206548789930       -0.32562713052849
H            6.70639102340222       -2.16662359375651       -0.06156972293947
H            7.65988435614824       -1.33975980816847       -2.15841764625715
H            9.76464860527287       -1.79004725825357       -3.35851369886378
H           11.88088936233818       -0.80549799964746       -2.61362444826489
H           11.95375837862348        0.68940590224553       -0.64539961089477
H           11.35201852906932        2.20757041900101        1.56845899796372
H           10.23158427095011        3.35425753595445        3.45078205954146
H            7.83010482281733        3.06369391685767        3.84077823234668
H            6.46195900156150        1.65068724507908        2.35674993066052
H            5.55908922929702        1.95772142575113        0.11265506882073
H            3.16272093164360        1.34146870309142       -0.00675068729668
H            0.21821151761930       -1.90596763194159       -1.72823079650675

          :  Hamiltonian                  GFN2-xTB          :
         :: gradient norm              0.000067366309 Eh/a0 ::
         :: HOMO-LUMO gap              0.373649903673 eV    ::
         :: SCC energy              -148.005802921351 Eh    ::
         :: -> dispersion             -0.130401541529 Eh    ::
         :: -> Gsolv                  -0.060983304651 Eh    ::
         :: repulsion energy           2.661523816623 Eh    ::

    * Orbital Energies and Occupations

         #    Occupation            Energy/Eh            Energy/eV
      -------------------------------------------------------------
         1        2.0000           -0.6893937             -18.7594
       ...           ...                  ...                  ...
       124        2.0000           -0.4151609             -11.2971
       125        2.0000           -0.4091263             -11.1329
       126        2.0000           -0.4083596             -11.1120
       127        2.0000           -0.3920055             -10.6670
       128        2.0000           -0.3917673             -10.6605
       129        2.0000           -0.3882583             -10.5650
       130        2.0000           -0.3827761             -10.4159
       131        2.0000           -0.3819334             -10.3929
       132        2.0000           -0.3804241             -10.3519
       133        1.9996           -0.3668959              -9.9837
       134        1.9913           -0.3639119              -9.9025
       135        1.0091           -0.3549570              -9.6589
       136        0.9991           -0.2722312              -7.4078 (HOMO)
       137        0.0006           -0.2584994              -7.0341 (LUMO)
       138        0.0003           -0.2577821              -7.0146
       139                         -0.2495701              -6.7911
       140                         -0.2487697              -6.7694
       141                         -0.2426109              -6.6018
       142                         -0.2367410              -6.4420
       143                         -0.2363459              -6.4313
       144                         -0.2262301              -6.1560
       145                         -0.2253962              -6.1333
       146                         -0.2152861              -5.8582
       147                         -0.2066071              -5.6221
       ...                                ...                  ...
       264                          0.7410560              20.1652
      -------------------------------------------------------------
                  HL-Gap            0.0137318 Eh            0.3737 eV

     #   Z          covCN         q      C6AA      α(0)
     1   6 C        2.920    -0.040    28.988     8.829
     2   6 C        2.923    -0.034    28.837     8.806
     3   6 C        2.909    -0.049    29.219     8.864
     4   6 C        3.074     0.046    26.884     8.501
     5   6 C        3.066    -0.016    28.343     8.730
     6   6 C        2.912    -0.033    28.823     8.804
     7   6 C        3.066    -0.016    28.342     8.730
     8   6 C        2.912    -0.033    28.825     8.804
     9   6 C        2.920    -0.040    28.990     8.829
    10   6 C        2.923    -0.034    28.842     8.807
    11   6 C        2.909    -0.049    29.225     8.865
    12   6 C        3.074     0.046    26.887     8.502
    13   7 N        2.802    -0.033    21.881     6.947
    14   6 C        2.912     0.057    26.729     8.478
    15   6 C        2.925    -0.048    29.188     8.860
    16   6 C        2.909    -0.041    29.014     8.832
    17   6 C        3.072     0.049    26.819     8.491
    18   6 C        3.063    -0.014    28.299     8.723
    19   6 C        2.914    -0.045    29.130     8.850
    20   6 C        3.063    -0.014    28.306     8.724
    21   6 C        2.912    -0.031    28.781     8.797
    22   6 C        2.919    -0.036    28.903     8.816
    23   6 C        2.923    -0.033    28.834     8.806
    24   6 C        2.909    -0.046    29.146     8.852
    25   6 C        3.071     0.043    26.959     8.514
    26   7 N        2.800    -0.031    21.842     6.941
    27   6 C        2.879     0.118    25.400     8.262
    28   6 C        2.884     0.035    27.222     8.554
    29   7 N        1.840    -0.295    28.500     7.912
    30   6 C        2.877     0.118    25.406     8.263
    31   7 N        2.799    -0.028    21.792     6.933
    32   6 C        3.068     0.042    26.987     8.518
    33   6 C        2.909    -0.046    29.153     8.854
    34   6 C        2.923    -0.034    28.847     8.808
    35   6 C        2.919    -0.036    28.898     8.815
    36   6 C        2.912    -0.032    28.786     8.798
    37   6 C        3.063    -0.014    28.304     8.724
    38   6 C        3.062    -0.014    28.305     8.724
    39   6 C        2.914    -0.046    29.130     8.850
    40   6 C        2.912     0.057    26.730     8.478
    41   7 N        2.802    -0.030    21.830     6.939
    42   6 C        3.073     0.046    26.891     8.502
    43   6 C        2.909    -0.049    29.208     8.862
    44   6 C        2.923    -0.033    28.832     8.805
    45   6 C        2.920    -0.039    28.972     8.827
    46   6 C        2.912    -0.033    28.814     8.802
    47   6 C        3.066    -0.015    28.326     8.727
    48   6 C        3.066    -0.015    28.329     8.728
    49   6 C        2.912    -0.033    28.817     8.803
    50   6 C        2.920    -0.039    28.972     8.827
    51   6 C        2.923    -0.033    28.831     8.805
    52   6 C        2.909    -0.049    29.206     8.862
    53   6 C        3.073     0.046    26.888     8.502
    54   6 C        2.925    -0.048    29.202     8.862
    55   6 C        2.909    -0.040    29.002     8.831
    56   6 C        3.072     0.049    26.828     8.493
    57   6 C        2.885     0.034    27.234     8.556
    58   7 N        1.839    -0.296    28.508     7.913
    59   1 H        0.926     0.032     2.554     2.499
    60   1 H        0.926     0.034     2.530     2.488
    61   1 H        0.926     0.034     2.534     2.489
    62   1 H        0.926     0.035     2.520     2.483
    63   1 H        0.926     0.035     2.517     2.481
    64   1 H        0.926     0.032     2.555     2.500
    65   1 H        0.926     0.033     2.541     2.493
    66   1 H        0.926     0.032     2.556     2.500
    67   1 H        0.926     0.048     2.342     2.393
    68   1 H        0.926     0.049     2.333     2.389
    69   1 H        0.926     0.051     2.304     2.373
    70   1 H        0.926     0.044     2.398     2.421
    71   1 H        0.926     0.042     2.427     2.436
    72   1 H        0.926     0.041     2.442     2.444
    73   1 H        0.926     0.030     2.581     2.512
    74   1 H        0.926     0.035     2.511     2.478
    75   1 H        0.926     0.031     2.570     2.507
    76   1 H        0.926     0.040     2.446     2.446
    77   1 H        0.926     0.042     2.429     2.437
    78   1 H        0.926     0.044     2.398     2.422
    79   1 H        0.926     0.052     2.298     2.371
    80   1 H        0.926     0.034     2.525     2.485
    81   1 H        0.926     0.035     2.522     2.483
    82   1 H        0.926     0.033     2.543     2.494
    83   1 H        0.926     0.036     2.508     2.477
    84   1 H        0.926     0.036     2.507     2.476
    85   1 H        0.926     0.033     2.543     2.494
    86   1 H        0.926     0.034     2.526     2.485
    87   1 H        0.926     0.035     2.521     2.483
    88   1 H        0.926     0.049     2.338     2.391
    89   1 H        0.926     0.053     2.280     2.361
    90   1 H        0.926     0.037     2.493     2.469

molecular dipole:
                 x           y           z       tot (Debye)
 q only:        0.292       0.031       0.070
   full:        0.288       0.032       0.054       0.750

 projected vibrational frequencies (cm⁻¹)
eigval :       -0.00    -0.00    -0.00     0.00     0.00     0.00
eigval :        6.08    10.46    13.76    17.82    28.21    30.56
eigval :       34.14    40.42    46.39    56.69    69.06    77.92
eigval :       98.28   101.45   102.97   105.84   119.23   125.48
eigval :      135.73   140.75   144.69   145.89   152.46   155.79
eigval :      171.40   204.66   215.36   223.25   253.30   255.83
eigval :      270.19   272.28   274.32   278.38   286.61   293.20
eigval :      310.52   335.08   349.08   354.83   369.93   383.06
eigval :      390.19   392.73   397.68   399.13   407.54   419.00
eigval :      421.55   422.47   424.28   433.27   434.07   436.46
eigval :      439.64   461.62   465.25   490.68   516.34   516.55
eigval :      529.58   531.58   535.19   537.37   539.57   540.25
eigval :      540.66   551.23   558.59   559.87   564.51   586.61
eigval :      586.85   592.26   593.56   600.60   616.11   622.69
eigval :      626.94   633.00   638.08   662.90   674.12   675.18
eigval :      677.46   678.48   691.25   703.79   704.33   708.47
eigval :      710.29   713.19   742.06   753.90   754.23   767.98
eigval :      769.41   770.77   771.16   778.74   779.65   791.06
eigval :      793.13   814.37   821.82   824.74   825.80   862.18
eigval :      863.84   872.48   873.43   873.75   875.79   878.45
eigval :      880.26   887.45   892.88   896.38   896.82   901.17
eigval :      901.97   902.67   903.37   903.68   904.58   907.88
eigval :      910.96   912.01   918.49   918.72   919.89   922.60
eigval :      922.99   923.72   938.73   964.81   969.65   983.12
eigval :     1010.65  1010.87  1022.81  1023.86  1066.74  1068.22
eigval :     1068.74  1069.43  1071.15  1072.12  1075.06  1102.75
eigval :     1103.93  1116.90  1120.49  1139.09  1140.54  1147.47
eigval :     1148.37  1167.04  1170.49  1171.25  1176.50  1178.55
eigval :     1179.31  1179.98  1181.36  1182.07  1189.35  1215.79
eigval :     1218.11  1221.03  1225.29  1232.21  1233.19  1236.60
eigval :     1238.98  1244.92  1258.89  1267.87  1271.45  1287.38
eigval :     1290.41  1293.04  1294.76  1297.87  1298.58  1301.90
eigval :     1340.06  1342.16  1347.38  1348.86  1353.34  1353.65
eigval :     1355.26  1356.77  1363.28  1363.59  1381.37  1388.48
eigval :     1405.43  1410.66  1411.97  1420.24  1421.07  1422.91
eigval :     1426.14  1436.04  1448.25  1457.28  1461.92  1466.09
eigval :     1468.14  1470.64  1482.12  1483.13  1483.81  1484.71
eigval :     1544.27  1549.16  1553.87  1567.48  1569.93  1570.98
eigval :     1574.19  1579.14  1580.01  1582.04  1584.75  1586.16
eigval :     1589.23  1590.10  1605.74  1606.94  3054.55  3057.87
eigval :     3074.13  3074.31  3074.57  3074.59  3079.80  3080.03
eigval :     3080.41  3080.55  3080.74  3081.15  3084.20  3086.14
eigval :     3087.21  3087.69  3088.15  3089.19  3091.05  3092.98
eigval :     3093.36  3093.80  3094.37  3095.07  3095.67  3095.96
eigval :     3098.63  3099.50  3101.00  3101.46  3106.09  3107.83

   temp. (K)  partition function   enthalpy   heat capacity  entropy
                                   cal/mol     cal/K/mol   cal/K/mol   J/K/mol
 298.15  VIB  0.407E+20            25535.793    166.203    157.095
         ROT  0.197E+09              888.752      2.981     40.933
         INT  0.802E+28            26424.545    169.183    198.029
         TR   0.195E+29             1481.254      4.968     45.667
         TOT                       27905.7991   174.1515   243.6952  1019.6209

       T/K    H(0)-H(T)+PV         H(T)/Eh          T*S/Eh         G(T)/Eh
   ------------------------------------------------------------------------
    298.15    0.444707E-01    0.721342E+00    0.115787E+00    0.605554E+00
   ------------------------------------------------------------------------

         :::::::::::::::::::::::::::::::::::::::::::::::::::::
         ::                  THERMODYNAMIC                  ::
         :::::::::::::::::::::::::::::::::::::::::::::::::::::
         :: total free energy        -144.738724748218 Eh   ::
         ::.................................................::
         :: total energy             -145.344279104155 Eh   ::
         :: zero point energy           0.676871107559 Eh   ::
         :: G(RRHO) w/o ZPVE           -0.071316751623 Eh   ::
         :: G(RRHO) contrib.            0.605554355936 Eh   ::
         :::::::::::::::::::::::::::::::::::::::::::::::::::::

           -------------------------------------------------
          | TOTAL ENERGY             -145.344279104155 Eh   |
          | TOTAL ENTHALPY           -144.622937275014 Eh   |
          | TOTAL FREE ENERGY        -144.738724748218 Eh   |
          | GRADIENT NORM               0.000066936766 Eh/α |
          | HOMO-LUMO GAP               0.373660997640 eV   |
           -------------------------------------------------

 * finished run on 2025/08/21 at 19:32:23.565
