   * xtb version 6.7.1 (edcfbbe) compiled by 'albert@albert-system' on 2024-07-22

   ID    Z sym.   atoms
    1    6 C      1-12, 14-25, 27, 28, 30, 32-40, 42-57
    2    7 N      13, 26, 29, 31, 41, 58
    3    1 H      59-90

          program call               : xtb data2507/toluene/CZ9CZPZ/CZ9CZPZ_toluene_S0_finalOpt.xtbopt.xyz --gfn 2 --uhf 2 --gbsa toluene --ohess vtight --parallel 40 --molden --ceasefiles --namespace data2507/toluene/CZ9CZPZ/CZ9CZPZ_toluene_T1_preOpt
      * Solvation model:               GBSA
        Solvent                        toluene
        Solvent mass                       9.2140E+01 g/mol
          :  Hamiltonian                  GFN2-xTB          :
 * total energy  :  -145.3372781 Eh     change       -0.2474962E-09 Eh
 * total energy  :  -145.3398694 Eh     change       -0.2591317E-02 Eh
 * total energy  :  -145.3406223 Eh     change       -0.7529392E-03 Eh
 * total energy  :  -145.3407118 Eh     change       -0.8948464E-04 Eh
 * total energy  :  -145.3407600 Eh     change       -0.4819534E-04 Eh
 * total energy  :  -145.3407754 Eh     change       -0.1539493E-04 Eh
 * total energy  :  -145.3407984 Eh     change       -0.2297851E-04 Eh
 * total energy  :  -145.3408088 Eh     change       -0.1043583E-04 Eh
 * total energy  :  -145.3408270 Eh     change       -0.1820274E-04 Eh
 * total energy  :  -145.3408374 Eh     change       -0.1035205E-04 Eh
 * total energy  :  -145.3410535 Eh     change       -0.1030220E-05 Eh
 * total energy  :  -145.3410549 Eh     change       -0.1384000E-05 Eh
 * total energy  :  -145.3410567 Eh     change       -0.1756023E-05 Eh
 * total energy  :  -145.3410583 Eh     change       -0.1660371E-05 Eh
 * total energy  :  -145.3410596 Eh     change       -0.1284000E-05 Eh
 * total energy  :  -145.3410605 Eh     change       -0.8722606E-06 Eh
 * total energy  :  -145.3410610 Eh     change       -0.5133279E-06 Eh
 * total energy  :  -145.3410614 Eh     change       -0.4329075E-06 Eh
 * total energy  :  -145.3410614 Eh     change       -0.4062258E-08 Eh
   *** GEOMETRY OPTIMIZATION CONVERGED AFTER 68 ITERATIONS ***

 final structure:
================
90
 xtb: 6.7.1 (edcfbbe)
C          -11.12544924404553       -0.23947893871800       -0.66457965652547
C          -10.13155534937515        0.62841879944194       -1.11148974055065
C           -8.81026901759559        0.46625306764340       -0.73834079121997
C           -8.50053892364818       -0.58776988343659        0.11119570240014
C           -9.49981386956391       -1.48910865102810        0.54803373346815
C          -10.81946770861461       -1.30700184256107        0.15892545277173
C           -8.83433409514108       -2.47438733193963        1.35712746320749
C           -9.27480239318527       -3.58499281014302        2.06313639690981
C           -8.35011091152272       -4.32513776909394        2.77630444921741
C           -7.00640804197700       -3.95834643528500        2.80390766059102
C           -6.54443879464634       -2.85603132830894        2.10905702218272
C           -7.46317732506820       -2.12516084089316        1.36721800609991
N           -7.27607119883354       -0.98485763366772        0.61176588219276
C           -6.05254009125247       -0.34031080048406        0.38342214748598
C           -4.94464253013374       -1.08956995731317       -0.04459439870631
C           -3.72550346389733       -0.49219296500056       -0.28509146453544
C           -3.61996506946969        0.88040290020303       -0.10334352138529
C           -4.73245983639057        1.64749753557926        0.32966388135153
C           -5.94949060158897        1.03234303198401        0.57548038825951
C           -4.28521278331979        3.00787474304114        0.40799912916502
C           -4.91305826625433        4.19986989694471        0.74794186268739
C           -4.19055438878768        5.37437926673978        0.67004227517648
C           -2.86549724639711        5.37223471730899        0.23732477685231
C           -2.21780034902685        4.19683255271821       -0.09938786952767
C           -2.92472740386545        3.00793186239343        0.01089244663863
N           -2.53125059473838        1.70919640205395       -0.27211569323161
C           -1.25292993647149        1.29563805011114       -0.62293956363112
C           -0.12694911016620        1.82812168356382       -0.03480725533412
N            1.11152810419078        1.50528534900198       -0.41087465788683
C            1.22225997293566        0.54744575407180       -1.38357858971871
N            2.49930415032903        0.19420994453284       -1.79387315973948
C            2.88743293878255       -0.14919452989803       -3.07999667109130
C            2.16807245652546       -0.11805482549867       -4.26576889235917
C            2.81295145647590       -0.50389907307186       -5.42800220888407
C            4.14695198259585       -0.90785088545515       -5.41964851504714
C            4.88134723568453       -0.90687635060204       -4.24979467881969
C            4.25709205464148       -0.51476497425090       -3.07202553601683
C            4.71354188614626       -0.35875086946852       -1.72145328864583
C            5.94413920326305       -0.52728892246205       -1.10785915698838
C            6.05232312669279       -0.26069099104336        0.25237671417621
N            7.28632410024907       -0.41706085061178        0.89579957999464
C            7.90112675141503        0.51764578493037        1.70581868062448
C            7.49222118218061        1.80084817553099        2.04411113041925
C            8.32119661385650        2.54844132937995        2.85993092674296
C            9.53391449354541        2.04313852000010        3.32309739188676
C            9.95846220987191        0.77576225867501        2.96893146392021
C            9.14266628513437        0.00623221130689        2.15173253830177
C            9.27105524233260       -1.30816642474868        1.58135973149010
C           10.24248764999926       -2.29539154740941        1.66603348545648
C           10.03583495226360       -3.48657725455552        0.99485746926389
C            8.87182862355560       -3.70346911351877        0.26084574189921
C            7.89056799311778       -2.73450938716909        0.16131289051271
C            8.10437351735546       -1.52628570589466        0.81143707260982
C            4.93698039446913        0.16718560273058        0.99152220872066
C            3.70755227382122        0.34281477002662        0.39300735819624
C            3.59699487286574        0.08827455174168       -0.96720353990081
C            0.09694807359707       -0.07854046953198       -1.87380961280832
N           -1.14145577405410        0.28833850824145       -1.54313775066237
H          -12.14690353962300       -0.07822755356120       -0.97604508735108
H          -10.39762966684362        1.44409972064600       -1.76768712041570
H           -8.04527126796958        1.13271040212264       -1.10632199831263
H          -11.58746627956813       -1.98965531790804        0.49001993087074
H          -10.31892639647162       -3.85943537241916        2.05679424114239
H           -8.67140492438883       -5.19514126652819        3.32973136360874
H           -6.31019896344358       -4.54565616831876        3.38447105826080
H           -5.50476427073765       -2.56948722583305        2.15163340566328
H           -5.06397037221493       -2.14948268108574       -0.20845881624144
H           -2.87926105976657       -1.06547588954314       -0.62823587638226
H           -6.79614569780830        1.60153972910667        0.92632489782917
H           -5.94646107431130        4.20324972083045        1.05945215854938
H           -4.65845954781242        6.31153258962533        0.93184869036686
H           -2.33242112533764        6.30785289831050        0.15779614597501
H           -1.19905813167492        4.21342430199820       -0.45600317134643
H           -0.20490542890062        2.54363521675326        0.77120383137924
H            1.14105981017018        0.21301216634896       -4.29167264772301
H            2.27005268076056       -0.48642472065873       -6.36111844426937
H            4.61246825308676       -1.20918876198688       -6.34605303558040
H            5.92120532988963       -1.19589408869994       -4.24655444927078
H            6.80971794735156       -0.82941861078633       -1.67655645869871
H            6.56312909454278        2.20784081110625        1.67556851386001
H            8.02340479998188        3.54813922414074        3.14013772705345
H           10.15333546871325        2.65714607534487        3.96003069615930
H           10.90638709929550        0.39215911552539        3.31487895915230
H           11.13703288455696       -2.13562393150174        2.24878852882140
H           10.78065680713267       -4.26689005887077        1.04680855517734
H            8.73034276828154       -4.65084251079152       -0.23820723253676
H            6.98333022766495       -2.91825473454242       -0.39380363984806
H            5.04791756493664        0.33714496092216        2.05131775177302
H            2.85015232708482        0.67286452275404        0.95803358115702
H            0.17700939133613       -0.91708484437931       -2.55068044539645

          :  Hamiltonian                  GFN2-xTB          :
         :: gradient norm              0.000050614083 Eh/a0 ::
         :: HOMO-LUMO gap              0.369010553172 eV    ::
         :: SCC energy              -148.001852202350 Eh    ::
         :: -> dispersion             -0.130220815102 Eh    ::
         :: -> Gsolv                  -0.061306307686 Eh    ::
         :: repulsion energy           2.660790759434 Eh    ::

    * Orbital Energies and Occupations

         #    Occupation            Energy/Eh            Energy/eV
      -------------------------------------------------------------
         1        2.0000           -0.6872810             -18.7019
       ...           ...                  ...                  ...
       124        2.0000           -0.4137615             -11.2590
       125        2.0000           -0.4104594             -11.1692
       126        2.0000           -0.4097484             -11.1498
       127        2.0000           -0.3909471             -10.6382
       128        2.0000           -0.3899739             -10.6117
       129        2.0000           -0.3886995             -10.5771
       130        2.0000           -0.3841888             -10.4543
       131        2.0000           -0.3834070             -10.4330
       132        2.0000           -0.3756916             -10.2231
       133        1.9997           -0.3673775              -9.9969
       134        1.6829           -0.3602380              -9.8026
       135        1.3173           -0.3587810              -9.7629
       136        0.9990           -0.2701723              -7.3518 (HOMO)
       137        0.0007           -0.2566112              -6.9827 (LUMO)
       138        0.0003           -0.2558834              -6.9629
       139        0.0000           -0.2506237              -6.8198
       140        0.0000           -0.2499091              -6.8004
       141                         -0.2402559              -6.5377
       142                         -0.2356737              -6.4130
       143                         -0.2344735              -6.3803
       144                         -0.2277137              -6.1964
       145                         -0.2269852              -6.1766
       146                         -0.2140070              -5.8234
       147                         -0.2059568              -5.6044
       ...                                ...                  ...
       264                          0.7395831              20.1251
      -------------------------------------------------------------
                  HL-Gap            0.0135611 Eh            0.3690 eV

     #   Z          covCN         q      C6AA      α(0)
     1   6 C        2.920    -0.038    28.954     8.824
     2   6 C        2.923    -0.033    28.824     8.804
     3   6 C        2.909    -0.048    29.183     8.858
     4   6 C        3.074     0.047    26.881     8.501
     5   6 C        3.066    -0.015    28.319     8.726
     6   6 C        2.912    -0.032    28.804     8.801
     7   6 C        3.066    -0.015    28.320     8.726
     8   6 C        2.912    -0.032    28.805     8.801
     9   6 C        2.920    -0.038    28.955     8.824
    10   6 C        2.923    -0.033    28.828     8.805
    11   6 C        2.909    -0.048    29.187     8.859
    12   6 C        3.073     0.046    26.882     8.501
    13   7 N        2.802    -0.028    21.787     6.933
    14   6 C        2.912     0.054    26.777     8.485
    15   6 C        2.925    -0.048    29.199     8.862
    16   6 C        2.908    -0.043    29.057     8.839
    17   6 C        3.072     0.051    26.779     8.485
    18   6 C        3.064    -0.016    28.339     8.729
    19   6 C        2.914    -0.046    29.143     8.852
    20   6 C        3.063    -0.016    28.356     8.732
    21   6 C        2.912    -0.033    28.810     8.801
    22   6 C        2.919    -0.038    28.947     8.823
    23   6 C        2.923    -0.035    28.861     8.810
    24   6 C        2.909    -0.048    29.193     8.860
    25   6 C        3.072     0.044    26.950     8.512
    26   7 N        2.799    -0.038    21.968     6.961
    27   6 C        2.877     0.119    25.375     8.258
    28   6 C        2.885     0.031    27.315     8.568
    29   7 N        1.840    -0.293    28.450     7.905
    30   6 C        2.877     0.119    25.391     8.261
    31   7 N        2.799    -0.035    21.913     6.952
    32   6 C        3.071     0.043    26.960     8.514
    33   6 C        2.909    -0.047    29.178     8.857
    34   6 C        2.923    -0.035    28.861     8.810
    35   6 C        2.919    -0.037    28.931     8.820
    36   6 C        2.912    -0.032    28.805     8.801
    37   6 C        3.063    -0.016    28.347     8.731
    38   6 C        3.063    -0.015    28.331     8.728
    39   6 C        2.914    -0.046    29.130     8.850
    40   6 C        2.912     0.055    26.766     8.484
    41   7 N        2.802    -0.026    21.753     6.927
    42   6 C        3.073     0.046    26.885     8.501
    43   6 C        2.909    -0.047    29.174     8.857
    44   6 C        2.923    -0.033    28.817     8.803
    45   6 C        2.920    -0.038    28.943     8.822
    46   6 C        2.912    -0.032    28.799     8.800
    47   6 C        3.066    -0.015    28.309     8.725
    48   6 C        3.066    -0.015    28.307     8.724
    49   6 C        2.912    -0.032    28.796     8.799
    50   6 C        2.920    -0.038    28.942     8.822
    51   6 C        2.923    -0.033    28.819     8.804
    52   6 C        2.909    -0.047    29.175     8.857
    53   6 C        3.074     0.046    26.887     8.502
    54   6 C        2.925    -0.048    29.203     8.862
    55   6 C        2.908    -0.042    29.032     8.835
    56   6 C        3.073     0.051    26.786     8.486
    57   6 C        2.885     0.031    27.300     8.566
    58   7 N        1.840    -0.293    28.449     7.905
    59   1 H        0.926     0.034     2.529     2.487
    60   1 H        0.926     0.035     2.511     2.478
    61   1 H        0.926     0.035     2.510     2.477
    62   1 H        0.926     0.037     2.495     2.470
    63   1 H        0.926     0.037     2.493     2.469
    64   1 H        0.926     0.034     2.530     2.487
    65   1 H        0.926     0.035     2.518     2.482
    66   1 H        0.926     0.034     2.523     2.484
    67   1 H        0.926     0.047     2.353     2.399
    68   1 H        0.926     0.051     2.308     2.376
    69   1 H        0.926     0.050     2.318     2.381
    70   1 H        0.926     0.042     2.428     2.437
    71   1 H        0.926     0.039     2.462     2.454
    72   1 H        0.926     0.038     2.479     2.462
    73   1 H        0.926     0.029     2.607     2.525
    74   1 H        0.926     0.034     2.529     2.487
    75   1 H        0.926     0.029     2.597     2.520
    76   1 H        0.926     0.038     2.473     2.459
    77   1 H        0.926     0.040     2.453     2.449
    78   1 H        0.926     0.042     2.419     2.432
    79   1 H        0.926     0.051     2.306     2.375
    80   1 H        0.926     0.036     2.502     2.473
    81   1 H        0.926     0.036     2.507     2.476
    82   1 H        0.926     0.035     2.521     2.483
    83   1 H        0.926     0.037     2.485     2.465
    84   1 H        0.926     0.037     2.486     2.466
    85   1 H        0.926     0.035     2.520     2.482
    86   1 H        0.926     0.036     2.502     2.474
    87   1 H        0.926     0.036     2.505     2.475
    88   1 H        0.926     0.048     2.344     2.394
    89   1 H        0.926     0.052     2.290     2.367
    90   1 H        0.926     0.034     2.527     2.486

molecular dipole:
                 x           y           z       tot (Debye)
 q only:        0.272      -0.474       0.478
   full:        0.266      -0.412       0.415       1.632

 projected vibrational frequencies (cm⁻¹)
eigval :       -0.00    -0.00     0.00     0.00     0.00     0.00
eigval :        6.43    11.92    13.84    23.35    23.67    28.68
eigval :       33.56    39.68    45.03    65.06    66.09    81.60
eigval :       90.97   102.53   104.02   105.67   110.44   125.87
eigval :      129.18   142.87   143.90   148.78   153.27   165.65
eigval :      168.88   196.48   211.74   228.17   252.06   256.97
eigval :      270.38   271.63   274.23   276.25   283.05   293.66
eigval :      310.48   321.85   326.22   345.21   375.06   382.27
eigval :      392.55   394.11   395.86   397.25   411.17   415.82
eigval :      419.53   420.80   422.68   426.24   431.80   435.98
eigval :      438.47   463.03   464.72   490.34   516.04   516.16
eigval :      529.93   531.25   533.66   534.12   537.66   537.86
eigval :      538.79   543.56   558.33   559.34   573.81   586.25
eigval :      586.58   589.67   592.39   596.96   619.12   619.16
eigval :      627.25   631.99   633.40   662.91   674.00   674.45
eigval :      675.71   676.40   690.96   699.68   703.54   707.59
eigval :      709.33   711.87   741.57   753.95   754.12   766.93
eigval :      768.56   769.30   770.48   779.09   781.02   789.15
eigval :      791.66   793.78   814.37   817.93   822.04   861.32
eigval :      861.83   869.78   871.08   871.65   873.03   878.38
eigval :      880.08   886.59   892.05   896.08   896.52   899.01
eigval :      902.27   902.37   902.96   903.37   905.79   906.37
eigval :      908.42   910.99   916.36   917.85   922.62   924.06
eigval :      924.14   926.91   941.04   964.54   969.23   984.92
eigval :     1010.59  1010.70  1022.50  1023.40  1068.26  1068.31
eigval :     1070.13  1070.43  1071.31  1071.69  1081.24  1102.05
eigval :     1104.49  1116.31  1120.70  1140.29  1142.42  1146.54
eigval :     1147.87  1165.35  1170.27  1171.46  1176.58  1177.77
eigval :     1179.41  1179.49  1181.59  1182.14  1189.31  1216.47
eigval :     1218.14  1220.60  1224.08  1231.38  1232.09  1236.61
eigval :     1237.55  1245.08  1260.84  1269.51  1273.16  1288.47
eigval :     1289.21  1291.03  1292.45  1295.62  1297.16  1302.15
eigval :     1338.49  1339.31  1346.24  1347.73  1352.21  1353.09
eigval :     1355.10  1357.58  1359.69  1360.97  1369.82  1385.71
eigval :     1401.42  1411.04  1412.35  1417.71  1417.84  1423.69
eigval :     1424.43  1435.18  1437.91  1459.17  1461.05  1464.10
eigval :     1466.59  1471.55  1481.24  1482.41  1482.96  1485.01
eigval :     1540.33  1545.05  1550.76  1566.07  1568.46  1569.54
eigval :     1574.25  1577.63  1579.06  1580.96  1583.50  1585.70
eigval :     1586.07  1586.24  1603.11  1605.14  3057.33  3058.83
eigval :     3075.60  3075.76  3075.92  3076.14  3079.06  3079.80
eigval :     3081.46  3081.61  3082.19  3082.29  3083.62  3084.11
eigval :     3089.07  3089.44  3089.75  3090.14  3090.31  3090.46
eigval :     3093.95  3095.15  3095.19  3095.76  3095.99  3096.71
eigval :     3097.30  3097.77  3099.94  3100.14  3104.23  3107.90

   temp. (K)  partition function   enthalpy   heat capacity  entropy
                                   cal/mol     cal/K/mol   cal/K/mol   J/K/mol
 298.15  VIB  0.372E+20            25610.463    166.521    157.344
         ROT  0.211E+09              888.752      2.981     41.075
         INT  0.786E+28            26499.215    169.502    198.419
         TR   0.195E+29             1481.254      4.968     45.667
         TOT                       27980.4688   174.4698   244.0857  1021.2547

       T/K    H(0)-H(T)+PV         H(T)/Eh          T*S/Eh         G(T)/Eh
   ------------------------------------------------------------------------
    298.15    0.445897E-01    0.720916E+00    0.115973E+00    0.604943E+00
   ------------------------------------------------------------------------

         :::::::::::::::::::::::::::::::::::::::::::::::::::::
         ::                  THERMODYNAMIC                  ::
         :::::::::::::::::::::::::::::::::::::::::::::::::::::
         :: total free energy        -144.736118624930 Eh   ::
         ::.................................................::
         :: total energy             -145.341061441792 Eh   ::
         :: zero point energy           0.676326105320 Eh   ::
         :: G(RRHO) w/o ZPVE           -0.071383288458 Eh   ::
         :: G(RRHO) contrib.            0.604942816862 Eh   ::
         :::::::::::::::::::::::::::::::::::::::::::::::::::::

           -------------------------------------------------
          | TOTAL ENERGY             -145.341061441792 Eh   |
          | TOTAL ENTHALPY           -144.620145621199 Eh   |
          | TOTAL FREE ENERGY        -144.736118624930 Eh   |
          | GRADIENT NORM               0.000051568838 Eh/α |
          | HOMO-LUMO GAP               0.369015373522 eV   |
           -------------------------------------------------

 * finished run on 2025/08/21 at 19:24:15.611
