   * xtb version 6.7.1 (edcfbbe) compiled by 'albert@albert-system' on 2024-07-22

   ID    Z sym.   atoms
    1    8 O      1
    2    6 C      2-6, 8-22, 24-37, 39-51, 53-67, 69-82, 84-92
    3    7 N      7, 23, 38, 52, 68, 83
    4    1 H      93-144

          program call               : xtb data2507/toluene/TATP-BP/TATP-BP.xyz --gfn 2 --gbsa toluene --ohess vtight --parallel 40 --molden --ceasefiles --namespace data2507/toluene/TATP-BP/TATP-BP_toluene_S0_preOpt
      * Solvation model:               GBSA
        Solvent                        toluene
        Solvent mass                       9.2140E+01 g/mol
          :  Hamiltonian                  GFN2-xTB          :
 * total energy  :  -230.3770595 Eh     change       -0.5969980E-08 Eh
 * total energy  :  -230.4183279 Eh     change       -0.4126847E-01 Eh
 * total energy  :  -230.4310633 Eh     change       -0.1273534E-01 Eh
 * total energy  :  -230.4355642 Eh     change       -0.4500903E-02 Eh
 * total energy  :  -230.4384338 Eh     change       -0.2869618E-02 Eh
 * total energy  :  -230.4401522 Eh     change       -0.1718366E-02 Eh
 * total energy  :  -230.4414625 Eh     change       -0.1310311E-02 Eh
 * total energy  :  -230.4425148 Eh     change       -0.1052362E-02 Eh
 * total energy  :  -230.4433035 Eh     change       -0.7886621E-03 Eh
 * total energy  :  -230.4438940 Eh     change       -0.5905363E-03 Eh
 * total energy  :  -230.4481882 Eh     change       -0.3425938E-06 Eh
 * total energy  :  -230.4481885 Eh     change       -0.3040875E-06 Eh
 * total energy  :  -230.4481890 Eh     change       -0.4458605E-06 Eh
 * total energy  :  -230.4481895 Eh     change       -0.5444385E-06 Eh
 * total energy  :  -230.4481901 Eh     change       -0.5539168E-06 Eh
 * total energy  :  -230.4481906 Eh     change       -0.5245023E-06 Eh
 * total energy  :  -230.4481910 Eh     change       -0.4444553E-06 Eh
 * total energy  :  -230.4481914 Eh     change       -0.3690797E-06 Eh
 * total energy  :  -230.4481914 Eh     change       -0.3458240E-08 Eh
   *** GEOMETRY OPTIMIZATION CONVERGED AFTER 221 ITERATIONS ***

 final structure:
================
144
 xtb: 6.7.1 (edcfbbe)
O           -0.01321521576819        1.78281800815946        3.09290410730619
C           -0.04575009591880        1.04916384893762        2.11502337686845
C            1.19125512637025        0.68741656622733        1.38167123450023
C            1.22810440678790        0.61984838696017       -0.01073296054372
C            2.39609760442523        0.27812515462906       -0.66212061158396
C            3.54414192229221       -0.02492099701041        0.06933327307400
N            4.70245900488445       -0.45787757091790       -0.58522071107026
C            4.73477574990190       -1.62012649053004       -1.33852525093222
C            3.67181100679101       -2.37664843791814       -1.80737450728514
C            3.95376104928393       -3.54679404584847       -2.48506341529212
C            5.26798926648932       -3.96791952218890       -2.65825803804853
C            6.32746684027408       -3.23069257729286       -2.16813372254186
C            6.07813817108830       -2.02505238826124       -1.51794644748643
C            6.89211387298668       -1.04705114736223       -0.84165460097579
C            8.26320764567674       -0.91192581525417       -0.56390234558493
C            8.72269945376612        0.03524942693190        0.38318830588783
C           10.10283310114092       -0.27844628520401        0.63731669572902
C           11.05137659729548        0.14660754543973        1.56371510246977
C           12.32387073914272       -0.38596193047137        1.51386431926525
C           12.67322731490966       -1.33268740728605        0.55482590115903
C           11.73642917235401       -1.81703526363658       -0.33715914854591
C           10.44551152189925       -1.31585415825708       -0.26154021471077
N            9.32675377432564       -1.68379656027257       -0.98425825088868
C            9.39927070370203       -2.44676924764215       -2.16304171358395
C            9.92374198085040       -3.73565524638645       -2.13680872173708
C           10.03088545814410       -4.45824361958939       -3.31217140174422
C            9.61501402245034       -3.90581484376855       -4.51272356651961
C            9.08873016647356       -2.62421467051822       -4.53817082948426
C            8.98528486693074       -1.89105929673424       -3.37058308921941
C            7.83876754237860        1.04588635127746        0.79245378438498
C            6.46873604831253        1.00590992118622        0.44044859800222
C            5.88003703728367        2.22109552250748        0.93544787286373
C            4.63956203037224        2.84026701803672        0.80171985671914
C            4.43570147968159        4.07333885632895        1.38750053547867
C            5.45403322212008        4.72282490272274        2.07990209004996
C            6.71114584207405        4.16040133234797        2.18049596243052
C            6.91346191585963        2.91304731019997        1.60907720989112
N            8.08595503067856        2.18749867540322        1.52149330828078
C            9.33946463394793        2.76535472049715        1.80115467168549
C           10.25106122719942        2.98192599931601        0.77276243750240
C           11.46531382077159        3.58432586561475        1.04529064791380
C           11.77295216219374        3.98135208702158        2.33648674943560
C           10.86209867581799        3.77341975865883        3.35934607177428
C            9.64608110990365        3.16710235029583        3.09699537016409
C            6.00108597782773       -0.10839873590722       -0.27303245327638
C            3.51698496084107        0.06335557264080        1.46128850038004
C            2.35677461356138        0.43647105021681        2.10510435946443
C           -1.31259771540869        0.45266483716719        1.63648103616217
C           -1.34066455318926       -0.74437026521322        0.91892439550409
C           -2.54384162688564       -1.30699106406859        0.54555727608480
C           -3.74645972695138       -0.68788842034480        0.88686455569862
N           -4.96370258581266       -1.29283229535324        0.56150568817765
C           -5.31143396892284       -2.55784095832158        1.00679745266808
C           -4.50715060018624       -3.53414495269997        1.57439257912369
C           -5.08290994986057       -4.75058162053199        1.88671829710056
C           -6.42685337363135       -4.99070333917016        1.61989300436969
C           -7.24048776474209       -4.00401985792623        1.09974405279743
C           -6.70162685059982       -2.74840723057878        0.83222631473156
C           -7.22123532264042       -1.50815640388662        0.31504397905688
C           -8.49917875790561       -1.01921058009405       -0.00041312312643
C           -8.67016272743480        0.22539518475838       -0.65409949500670
C          -10.07062758322931        0.32971396453700       -0.97145740343216
C          -10.85041716456639        1.20631624316979       -1.72178123522831
C          -12.21138368240612        0.99256677714728       -1.80886080088710
C          -12.81804663168222       -0.08069807303096       -1.16254030086797
C          -12.06341547031822       -0.99989033260389       -0.46089195106367
C          -10.69111218780049       -0.80748982090153       -0.40328624651051
N           -9.73103999276548       -1.61167540266314        0.17837669648372
C          -10.05690166397317       -2.63667728893745        1.08531549213332
C           -9.64659438288672       -2.54442417076564        2.41198770167847
C           -9.99848158442842       -3.53288411471044        3.31224229110171
C          -10.76828816873639       -4.60891319459914        2.90096293897059
C          -11.18192131225010       -4.69878228612229        1.58181016075731
C          -10.82847110188453       -3.71818233678561        0.67155618102640
C           -7.54091580462203        1.03376719563265       -0.85716553341058
C           -6.23782200505219        0.56778649138622       -0.55597743871451
C           -5.32434533314442        1.56251685901469       -1.05430445831538
C           -3.94368524656405        1.63895174915796       -1.22096740244427
C           -3.39192056493584        2.78883365201640       -1.74953800581737
C           -4.18749392953003        3.87037903509142       -2.11660810127958
C           -5.56326390308751        3.79934674951906       -2.02241102973723
C           -6.12232971838264        2.62969513682713       -1.52990198134147
N           -7.45623968898661        2.29673180342043       -1.40403606384218
C           -8.48531212774171        3.25272226555614       -1.48644751999980
C           -9.26865948025381        3.52403410768489       -0.36849933020073
C          -10.25876430671589        4.48640054526749       -0.43808577329944
C          -10.46595165579118        5.19019389482385       -1.61340121976050
C           -9.68207548862573        4.92572867790726       -2.72463055074832
C           -8.69325782642363        3.95926656803833       -2.66695196547039
C           -6.10665962610911       -0.66507029172713        0.10113318532792
C           -3.72443270067536        0.50902049955310        1.60493856824829
C           -2.52062864371393        1.06531028773950        1.97733381771946
H            0.34630904262665        0.86363787482314       -0.58368784869926
H            2.43205162290448        0.26078040156772       -1.74100896143386
H            2.65049758334307       -2.07581043410673       -1.63348682352191
H            3.14320756455115       -4.15001588668213       -2.86676442438504
H            5.46444123961764       -4.89803502235355       -3.17129633208400
H            7.32875237208296       -3.60615328132397       -2.28061782488656
H           10.80077182390710        0.86281845630706        2.32774387882246
H           13.06300127263116       -0.05929158713259        2.23080816890307
H           13.68456624552487       -1.71085167888579        0.52168103496227
H           12.00372952956128       -2.56700528479170       -1.06575445127363
H           10.22161182647231       -4.17141909649196       -1.19467779457801
H           10.43435034088471       -5.45993717233266       -3.28756673966254
H            9.69821912918959       -4.47456807311672       -5.42665445635974
H            8.76312753508316       -2.19085672811122       -5.47212066044444
H            8.57821339787179       -0.89083490468241       -3.38141313145463
H            3.84688489503377        2.38702232236684        0.23115325822510
H            3.47000004768579        4.54913332968048        1.29548586391613
H            5.26538294588145        5.68996176972862        2.52243756544962
H            7.51592362692210        4.68486171056197        2.67301959435720
H           10.00198493032614        2.67334363035477       -0.23154738593066
H           12.17215774244563        3.74693505240840        0.24533275439069
H           12.72156094336836        4.45271561066701        2.54567877350405
H           11.09978068812889        4.07921319577274        4.36771458469560
H            8.93693766445011        2.98849631971718        3.89217447563682
H            4.40816781473715       -0.16236228079935        2.02628038812998
H            2.32671345927321        0.51150765588832        3.18202783512410
H           -0.41858582767819       -1.24640856720480        0.66895515051437
H           -2.56043756437182       -2.21973457383253       -0.03056561736972
H           -3.46129245055771       -3.35641587289015        1.77061224463617
H           -4.47594936006488       -5.52942986851285        2.32442461975299
H           -6.84457860145760       -5.96465368924769        1.82889182183997
H           -8.27276997284951       -4.22333017438453        0.89191319800367
H          -10.40931784173097        2.03390331223456       -2.24891426002127
H          -12.81699200012959        1.67339169586876       -2.38926333371497
H          -13.88876529933169       -0.20796322279645       -1.22727021481454
H          -12.52941457536757       -1.84382662676230        0.02453102887502
H           -9.04955649886156       -1.70101357534178        2.72524779830750
H           -9.67460742032710       -3.45956767171508        4.33976715609879
H          -11.04398078401069       -5.37800555747371        3.60676080385760
H          -11.77696283293836       -5.53950258239431        1.25656749737087
H          -11.12793328599632       -3.79452813048002       -0.36337137483304
H           -3.30503615874997        0.81021023702965       -0.96773120119541
H           -2.32145000228862        2.85377853396501       -1.87926665783764
H           -3.72485429364339        4.76766863691569       -2.50079333613780
H           -6.18301087437598        4.62816081394167       -2.32849977297264
H           -9.09965972314055        2.97268070949980        0.54444443702723
H          -10.86757586666625        4.69036306308603        0.43013676980534
H          -11.23868475343441        5.94249924840571       -1.66441161753271
H           -9.84487773538041        5.46845353528722       -3.64420880562309
H           -8.09512774323799        3.73194414742399       -3.53710846927991
H           -4.65467846810435        0.98659257649804        1.87194329153932
H           -2.49067740793803        1.98407950665910        2.54432442667792

          :  Hamiltonian                  GFN2-xTB          :
         :: gradient norm              0.000080518384 Eh/a0 ::
         :: HOMO-LUMO gap              1.571104757746 eV    ::
         :: SCC energy              -234.721762400673 Eh    ::
         :: -> dispersion             -0.241242675174 Eh    ::
         :: -> Gsolv                  -0.088870846495 Eh    ::
         :: repulsion energy           4.273570990583 Eh    ::

    * Orbital Energies and Occupations

         #    Occupation            Energy/Eh            Energy/eV
      -------------------------------------------------------------
         1        2.0000           -0.7095939             -19.3090
       ...           ...                  ...                  ...
       202        2.0000           -0.3961701             -10.7803
       203        2.0000           -0.3939125             -10.7189
       204        2.0000           -0.3932060             -10.6997
       205        2.0000           -0.3906228             -10.6294
       206        2.0000           -0.3899777             -10.6118
       207        2.0000           -0.3899262             -10.6104
       208        2.0000           -0.3893780             -10.5955
       209        2.0000           -0.3716130             -10.1121
       210        2.0000           -0.3710594             -10.0970
       211        2.0000           -0.3525226              -9.5926
       212        2.0000           -0.3519228              -9.5763
       213        2.0000           -0.3514548              -9.5636
       214        2.0000           -0.3509777              -9.5506 (HOMO)
       215                         -0.2932406              -7.9795 (LUMO)
       216                         -0.2505544              -6.8179
       217                         -0.2461638              -6.6985
       218                         -0.2448552              -6.6628
       219                         -0.2437418              -6.6326
       220                         -0.2415691              -6.5734
       221                         -0.2386787              -6.4948
       222                         -0.2384423              -6.4883
       223                         -0.2325684              -6.3285
       224                         -0.2318596              -6.3092
       225                         -0.2314401              -6.2978
       ...                                ...                  ...
       420                          0.7758175              21.1111
      -------------------------------------------------------------
                  HL-Gap            0.0577370 Eh            1.5711 eV

     #   Z          covCN         q      C6AA      α(0)
     1   8 O        0.858    -0.422    22.120     6.306
     2   6 C        2.828     0.227    23.231     7.898
     3   6 C        2.972    -0.016    28.394     8.741
     4   6 C        2.920    -0.026    28.643     8.776
     5   6 C        2.920    -0.041    29.022     8.834
     6   6 C        2.916     0.076    26.303     8.410
     7   7 N        2.800    -0.043    22.062     6.976
     8   6 C        3.078     0.043    26.945     8.510
     9   6 C        2.911    -0.053    29.327     8.880
    10   6 C        2.923    -0.037    28.924     8.820
    11   6 C        2.919    -0.042    29.046     8.838
    12   6 C        2.915    -0.043    29.056     8.839
    13   6 C        3.059    -0.014    28.296     8.723
    14   6 C        3.050    -0.046    29.094     8.846
    15   6 C        3.063     0.042    26.989     8.519
    16   6 C        3.055    -0.047    29.101     8.847
    17   6 C        3.062    -0.016    28.346     8.731
    18   6 C        2.914    -0.041    29.015     8.833
    19   6 C        2.919    -0.043    29.076     8.842
    20   6 C        2.923    -0.038    28.936     8.821
    21   6 C        2.910    -0.053    29.324     8.880
    22   6 C        3.081     0.045    26.904     8.503
    23   7 N        2.802    -0.047    22.153     6.990
    24   6 C        2.915     0.069    26.454     8.434
    25   6 C        2.921    -0.041    29.031     8.836
    26   6 C        2.920    -0.028    28.701     8.785
    27   6 C        2.919    -0.032    28.792     8.799
    28   6 C        2.919    -0.026    28.661     8.779
    29   6 C        2.922    -0.038    28.940     8.822
    30   6 C        3.063     0.043    26.973     8.517
    31   6 C        3.056    -0.048    29.143     8.853
    32   6 C        3.059    -0.016    28.362     8.734
    33   6 C        2.914    -0.041    29.026     8.835
    34   6 C        2.919    -0.042    29.054     8.839
    35   6 C        2.923    -0.037    28.923     8.819
    36   6 C        2.910    -0.053    29.310     8.877
    37   6 C        3.086     0.045    26.897     8.502
    38   7 N        2.802    -0.048    22.161     6.992
    39   6 C        2.917     0.069    26.460     8.435
    40   6 C        2.922    -0.036    28.900     8.816
    41   6 C        2.920    -0.026    28.655     8.778
    42   6 C        2.919    -0.031    28.776     8.797
    43   6 C        2.920    -0.028    28.701     8.785
    44   6 C        2.922    -0.041    29.015     8.833
    45   6 C        3.063     0.040    27.032     8.526
    46   6 C        2.920    -0.036    28.888     8.814
    47   6 C        2.923    -0.016    28.404     8.740
    48   6 C        2.971    -0.017    28.438     8.747
    49   6 C        2.920    -0.025    28.639     8.776
    50   6 C        2.920    -0.041    29.022     8.834
    51   6 C        2.915     0.078    26.258     8.403
    52   7 N        2.801    -0.041    22.036     6.972
    53   6 C        3.076     0.044    26.945     8.511
    54   6 C        2.911    -0.053    29.324     8.880
    55   6 C        2.923    -0.037    28.918     8.819
    56   6 C        2.919    -0.042    29.043     8.837
    57   6 C        2.915    -0.042    29.031     8.835
    58   6 C        3.061    -0.014    28.297     8.723
    59   6 C        3.050    -0.046    29.082     8.845
    60   6 C        3.063     0.043    26.985     8.518
    61   6 C        3.053    -0.046    29.091     8.846
    62   6 C        3.060    -0.016    28.353     8.732
    63   6 C        2.915    -0.042    29.045     8.837
    64   6 C        2.919    -0.043    29.078     8.843
    65   6 C        2.923    -0.037    28.931     8.821
    66   6 C        2.911    -0.053    29.323     8.879
    67   6 C        3.083     0.045    26.899     8.502
    68   7 N        2.802    -0.047    22.150     6.990
    69   6 C        2.916     0.069    26.457     8.435
    70   6 C        2.922    -0.037    28.925     8.820
    71   6 C        2.920    -0.026    28.657     8.779
    72   6 C        2.919    -0.031    28.782     8.798
    73   6 C        2.920    -0.028    28.699     8.785
    74   6 C        2.921    -0.041    29.024     8.835
    75   6 C        3.063     0.043    26.977     8.517
    76   6 C        3.053    -0.047    29.118     8.850
    77   6 C        3.060    -0.017    28.371     8.735
    78   6 C        2.914    -0.042    29.045     8.838
    79   6 C        2.919    -0.043    29.079     8.843
    80   6 C        2.923    -0.037    28.931     8.821
    81   6 C        2.911    -0.053    29.313     8.878
    82   6 C        3.083     0.045    26.892     8.501
    83   7 N        2.802    -0.047    22.150     6.990
    84   6 C        2.916     0.069    26.456     8.435
    85   6 C        2.922    -0.037    28.921     8.819
    86   6 C        2.920    -0.026    28.655     8.778
    87   6 C        2.919    -0.031    28.781     8.797
    88   6 C        2.920    -0.028    28.699     8.785
    89   6 C        2.921    -0.041    29.023     8.835
    90   6 C        3.059     0.040    27.042     8.528
    91   6 C        2.919    -0.035    28.875     8.812
    92   6 C        2.923    -0.014    28.362     8.734
    93   1 H        0.926     0.049     2.332     2.388
    94   1 H        0.926     0.055     2.259     2.350
    95   1 H        0.926     0.031     2.578     2.511
    96   1 H        0.926     0.029     2.598     2.521
    97   1 H        0.926     0.026     2.643     2.542
    98   1 H        0.926     0.030     2.583     2.513
    99   1 H        0.926     0.026     2.642     2.542
   100   1 H        0.926     0.024     2.671     2.556
   101   1 H        0.926     0.027     2.625     2.534
   102   1 H        0.926     0.029     2.596     2.520
   103   1 H        0.926     0.043     2.415     2.430
   104   1 H        0.926     0.040     2.446     2.446
   105   1 H        0.926     0.040     2.453     2.449
   106   1 H        0.926     0.040     2.446     2.446
   107   1 H        0.926     0.038     2.473     2.459
   108   1 H        0.926     0.023     2.682     2.561
   109   1 H        0.926     0.022     2.704     2.571
   110   1 H        0.926     0.027     2.633     2.537
   111   1 H        0.926     0.029     2.607     2.525
   112   1 H        0.926     0.038     2.482     2.464
   113   1 H        0.926     0.040     2.447     2.446
   114   1 H        0.926     0.040     2.445     2.445
   115   1 H        0.926     0.041     2.440     2.443
   116   1 H        0.926     0.042     2.425     2.435
   117   1 H        0.926     0.049     2.332     2.388
   118   1 H        0.926     0.048     2.347     2.396
   119   1 H        0.926     0.051     2.302     2.373
   120   1 H        0.926     0.056     2.245     2.343
   121   1 H        0.926     0.031     2.578     2.511
   122   1 H        0.926     0.029     2.600     2.522
   123   1 H        0.926     0.026     2.638     2.540
   124   1 H        0.926     0.030     2.585     2.514
   125   1 H        0.926     0.028     2.619     2.531
   126   1 H        0.926     0.024     2.671     2.556
   127   1 H        0.926     0.027     2.627     2.534
   128   1 H        0.926     0.029     2.601     2.522
   129   1 H        0.926     0.038     2.482     2.464
   130   1 H        0.926     0.040     2.450     2.448
   131   1 H        0.926     0.040     2.450     2.448
   132   1 H        0.926     0.041     2.440     2.443
   133   1 H        0.926     0.043     2.413     2.429
   134   1 H        0.926     0.024     2.670     2.555
   135   1 H        0.926     0.022     2.703     2.571
   136   1 H        0.926     0.027     2.628     2.535
   137   1 H        0.926     0.029     2.594     2.518
   138   1 H        0.926     0.038     2.481     2.463
   139   1 H        0.926     0.040     2.448     2.447
   140   1 H        0.926     0.040     2.449     2.447
   141   1 H        0.926     0.041     2.441     2.443
   142   1 H        0.926     0.043     2.415     2.430
   143   1 H        0.926     0.049     2.328     2.386
   144   1 H        0.926     0.053     2.282     2.362

molecular dipole:
                 x           y           z       tot (Debye)
 q only:       -0.185      -0.941      -1.117
   full:       -0.179      -0.881      -1.076       3.563

 projected vibrational frequencies (cm⁻¹)
eigval :       -0.00    -0.00     0.00     0.00     0.00     0.00
eigval :        3.85     5.62     7.98    14.16    15.30    21.37
eigval :       22.89    24.11    27.30    29.00    33.07    44.60
eigval :       48.07    50.63    53.31    54.00    55.79    62.51
eigval :       64.81    69.10    70.61    74.59    77.37    78.25
eigval :       82.92    88.08    98.18   105.73   110.00   117.52
eigval :      124.76   124.87   132.61   136.38   146.62   154.19
eigval :      159.29   162.72   164.21   167.99   175.45   188.63
eigval :      197.90   201.38   211.51   212.93   221.39   225.27
eigval :      227.03   227.40   232.06   237.80   243.78   249.31
eigval :      252.47   255.07   267.20   270.75   277.99   286.02
eigval :      291.28   305.71   332.49   345.48   351.23   355.12
eigval :      357.06   365.30   376.86   377.19   378.00   380.00
eigval :      382.09   382.14   383.33   387.14   387.98   389.36
eigval :      394.85   401.32   403.27   405.29   407.68   412.02
eigval :      423.56   433.10   444.62   445.71   448.96   449.33
eigval :      452.62   455.98   470.37   472.51   476.44   481.82
eigval :      486.76   493.38   537.55   538.02   542.41   545.00
eigval :      545.58   545.92   548.74   553.75   554.83   556.42
eigval :      560.24   574.17   576.45   580.60   581.43   582.17
eigval :      588.69   590.64   592.17   592.34   593.93   600.09
eigval :      605.96   608.77   609.36   617.24   625.28   627.97
eigval :      629.69   630.97   636.06   647.24   649.48   651.11
eigval :      660.24   667.32   669.60   670.60   672.27   674.52
eigval :      676.43   687.90   696.56   697.32   698.02   698.18
eigval :      701.58   702.46   705.13   727.88   728.77   728.99
eigval :      733.31   749.38   750.75   763.32   765.59   766.91
eigval :      767.42   768.58   770.21   771.87   772.45   772.85
eigval :      773.76   775.82   820.71   826.11   844.41   844.55
eigval :      845.08   846.97   858.65   861.04   862.47   862.87
eigval :      865.24   867.15   867.24   869.79   872.70   876.77
eigval :      877.72   878.38   879.21   881.54   897.08   897.73
eigval :      898.08   899.22   900.04   900.93   902.14   903.23
eigval :      903.27   906.63   907.48   912.11   912.19   915.70
eigval :      916.18   918.40   919.21   920.28   920.68   921.76
eigval :      922.54   922.69   923.56   926.37   928.37   930.19
eigval :      931.00   933.32   933.52   934.26   935.65   936.01
eigval :      936.99   937.09   954.20   985.63   985.65   992.31
eigval :      993.78  1003.85  1010.75  1016.84  1025.93  1077.21
eigval :     1077.32  1077.62  1077.70  1078.38  1078.49  1078.74
eigval :     1079.23  1083.91  1084.07  1090.25  1090.32  1091.01
eigval :     1091.30  1115.01  1115.65  1116.04  1117.02  1131.01
eigval :     1132.68  1142.20  1142.61  1145.23  1146.53  1146.89
eigval :     1147.16  1172.85  1175.58  1177.04  1177.58  1177.81
eigval :     1178.35  1178.50  1178.94  1179.35  1180.31  1181.73
eigval :     1182.32  1185.28  1187.80  1190.02  1190.53  1192.09
eigval :     1207.13  1210.53  1212.96  1213.17  1214.02  1216.71
eigval :     1244.60  1246.03  1247.97  1249.52  1250.07  1251.55
eigval :     1258.38  1261.94  1264.51  1272.63  1272.84  1273.65
eigval :     1273.86  1289.35  1291.19  1293.81  1294.03  1296.71
eigval :     1297.06  1312.66  1312.71  1312.95  1313.41  1316.29
eigval :     1322.13  1326.53  1327.50  1332.33  1333.22  1336.34
eigval :     1336.54  1359.19  1360.05  1364.23  1364.51  1365.61
eigval :     1365.75  1385.12  1386.22  1387.53  1389.56  1390.13
eigval :     1391.38  1403.80  1406.26  1427.91  1428.10  1430.77
eigval :     1431.90  1432.01  1432.50  1434.43  1435.04  1437.04
eigval :     1437.26  1438.25  1438.59  1473.16  1473.22  1474.45
eigval :     1474.49  1477.40  1477.58  1478.55  1478.87  1479.73
eigval :     1480.61  1482.64  1484.46  1552.28  1554.05  1564.36
eigval :     1564.52  1566.34  1567.15  1577.24  1578.64  1579.59
eigval :     1579.90  1580.18  1581.06  1583.26  1583.51  1587.97
eigval :     1588.00  1588.98  1590.10  1591.68  1591.85  1592.22
eigval :     1592.82  1599.36  1599.90  1601.13  1601.56  1602.15
eigval :     1603.04  1647.62  3070.59  3070.80  3071.21  3071.81
eigval :     3072.92  3073.31  3076.34  3076.80  3077.09  3077.37
eigval :     3079.10  3079.17  3079.42  3079.57  3079.94  3080.14
eigval :     3080.61  3081.41  3082.94  3083.09  3086.00  3086.78
eigval :     3087.06  3087.47  3087.49  3087.69  3087.94  3089.38
eigval :     3090.24  3090.50  3090.70  3091.05  3091.22  3091.49
eigval :     3092.72  3093.60  3095.92  3097.22  3097.77  3097.86
eigval :     3097.96  3098.00  3098.05  3099.00  3100.35  3101.05
eigval :     3126.02  3126.91  3129.00  3141.78  3144.13  3152.76

   temp. (K)  partition function   enthalpy   heat capacity  entropy
                                   cal/mol     cal/K/mol   cal/K/mol   J/K/mol
 298.15  VIB  0.572E+34            42285.685    268.094    265.048
         ROT  0.676E+09              888.752      2.981     43.384
         INT  0.387E+43            43174.438    271.075    308.432
         TR   0.389E+29             1481.254      4.968     47.037
         TOT                       44655.6916   276.0427   355.4690  1487.2823

       T/K    H(0)-H(T)+PV         H(T)/Eh          T*S/Eh         G(T)/Eh
   ------------------------------------------------------------------------
    298.15    0.711634E-01    0.116663E+01    0.168895E+00    0.997736E+00
   ------------------------------------------------------------------------

         :::::::::::::::::::::::::::::::::::::::::::::::::::::
         ::                  THERMODYNAMIC                  ::
         :::::::::::::::::::::::::::::::::::::::::::::::::::::
         :: total free energy        -229.450454970266 Eh   ::
         ::.................................................::
         :: total energy             -230.448191414340 Eh   ::
         :: zero point energy           1.095467861005 Eh   ::
         :: G(RRHO) w/o ZPVE           -0.097731416931 Eh   ::
         :: G(RRHO) contrib.            0.997736444074 Eh   ::
         :::::::::::::::::::::::::::::::::::::::::::::::::::::

           -------------------------------------------------
          | TOTAL ENERGY             -230.448191414340 Eh   |
          | TOTAL ENTHALPY           -229.281560179098 Eh   |
          | TOTAL FREE ENERGY        -229.450454970266 Eh   |
          | GRADIENT NORM               0.000080515219 Eh/α |
          | HOMO-LUMO GAP               1.571104501491 eV   |
           -------------------------------------------------

 * finished run on 2025/09/02 at 09:53:33.975
