   * xtb version 6.7.1 (edcfbbe) compiled by 'albert@albert-system' on 2024-07-22

   ID    Z sym.   atoms
    1    8 O      1
    2    6 C      2-6, 8-22, 24-37, 39-51, 53-67, 69-82, 84-92
    3    7 N      7, 23, 38, 52, 68, 83
    4    1 H      93-144

          program call               : xtb data2507/toluene/TATP-BP/TATP-BP_toluene_S0_crest.xyz --gfn 2 --gbsa toluene --ohess vtight --parallel 40 --molden --ceasefiles --namespace data2507/toluene/TATP-BP/TATP-BP_toluene_S0_finalOpt
      * Solvation model:               GBSA
        Solvent                        toluene
        Solvent mass                       9.2140E+01 g/mol
          :  Hamiltonian                  GFN2-xTB          :
 * total energy  :  -230.4502945 Eh     change       -0.7463939E-08 Eh
 * total energy  :  -230.4504797 Eh     change       -0.1852713E-03 Eh
 * total energy  :  -230.4506395 Eh     change       -0.1597154E-03 Eh
 * total energy  :  -230.4507117 Eh     change       -0.7224642E-04 Eh
 * total energy  :  -230.4508122 Eh     change       -0.1004876E-03 Eh
 * total energy  :  -230.4508862 Eh     change       -0.7400958E-04 Eh
 * total energy  :  -230.4509678 Eh     change       -0.8158616E-04 Eh
 * total energy  :  -230.4510027 Eh     change       -0.3488377E-04 Eh
 * total energy  :  -230.4510732 Eh     change       -0.7057637E-04 Eh
 * total energy  :  -230.4511140 Eh     change       -0.4071843E-04 Eh
 * total energy  :  -230.4516120 Eh     change       -0.1782169E-05 Eh
 * total energy  :  -230.4516134 Eh     change       -0.1361185E-05 Eh
 * total energy  :  -230.4516144 Eh     change       -0.9999656E-06 Eh
 * total energy  :  -230.4516153 Eh     change       -0.9673766E-06 Eh
 * total energy  :  -230.4516165 Eh     change       -0.1143184E-05 Eh
 * total energy  :  -230.4516180 Eh     change       -0.1534306E-05 Eh
 * total energy  :  -230.4516198 Eh     change       -0.1832954E-05 Eh
 * total energy  :  -230.4516217 Eh     change       -0.1884755E-05 Eh
 * total energy  :  -230.4516217 Eh     change       -0.8341942E-08 Eh
   *** GEOMETRY OPTIMIZATION CONVERGED AFTER 122 ITERATIONS ***

 final structure:
================
144
 xtb: 6.7.1 (edcfbbe)
O           -0.19763631656457       -6.91194261355913        0.12772624753660
C           -0.18414973797523       -5.69043500293322        0.13545800158888
C            1.05939829715364       -4.90493902161534       -0.05311763571848
C            2.02073349988851       -5.30938526792314       -0.97697785461902
C            3.16212206144525       -4.55789947918989       -1.17526534083039
C            3.38760698460602       -3.41485733626588       -0.40818582173981
N            4.56235915518581       -2.67201704921713       -0.56120979173215
C            5.82436259862065       -3.21540137865375       -0.38110798400400
C            6.18938308291081       -4.54958312071643       -0.28284546697322
C            7.51461723287224       -4.84627047832713       -0.02980545711292
C            8.44788729881851       -3.83195483713092        0.15650001620674
C            8.08198739457933       -2.50244290059807        0.09125449766574
C            6.76242600379874       -2.17155801000983       -0.20407362847346
C            6.02098215815572       -0.93919007215089       -0.28438702128618
C            6.33008733323853        0.41835305934261       -0.09424838944449
C            5.30363065141574        1.38026840124109        0.06274341228375
C            5.94143058937977        2.58604996075176        0.51797480516602
C            5.49078837007286        3.80940395958515        1.00663828865366
C            6.41466920950127        4.77465973375112        1.35289181978842
C            7.78135909152213        4.54716702507272        1.21726666697065
C            8.25772476546363        3.32158588401493        0.79397442464372
C            7.33330265545469        2.33414187894122        0.48762656630003
N            7.55329685612914        1.02231168610981        0.11173742514422
C            8.80262349248167        0.55290119610666       -0.32965381488811
C            9.91349036363820        0.60849632894154        0.50699730079649
C           11.14627016664646        0.18505110515020        0.04218459580731
C           11.27790061025144       -0.29897787732929       -1.24921082825690
C           10.17048634987558       -0.36124531236414       -2.07973646008911
C            8.93653784549786        0.06782386247927       -1.62798661136211
C            3.99825687852002        1.02036370233244       -0.30538300094939
C            3.67130928301953       -0.31697461980812       -0.63371501269717
C            2.30011975166090       -0.30786159500795       -1.06820432394138
C            1.45638057374146       -1.23476998756547       -1.67541545205407
C            0.18371962170711       -0.84483837464265       -2.04097850612374
C           -0.26864480510524        0.45263936117151       -1.82038059047078
C            0.56119578949394        1.40768707594185       -1.26949464809393
C            1.84467018479004        1.02255068263047       -0.91338338133564
N            2.87913559967070        1.81108823969058       -0.44731038058116
C            2.84895573210198        3.21437187892460       -0.56593005160325
C            3.71111068897354        3.85475319412184       -1.45094215275054
C            3.65699210009961        5.22869960234755       -1.59295747942048
C            2.74081441727645        5.96938487514333       -0.86384960629615
C            1.87621018981270        5.33155569587925        0.00990651312618
C            1.92505394028716        3.95718940432173        0.16011686678752
C            4.66934518888621       -1.29561013185533       -0.49342387275407
C            2.44680024715492       -3.03284018645703        0.54872001819007
C            1.28533929099360       -3.75609938244999        0.70595748971070
C           -1.40773439379958       -4.87932026704006        0.32411610526506
C           -1.55208775404490       -3.66736033548093       -0.35230350762247
C           -2.69929062509726       -2.92157752545976       -0.20885600634958
C           -3.71527939509920       -3.34764754738276        0.64845496865986
N           -4.86313528858342       -2.56254018825008        0.78526767607694
C           -6.14535711781521       -3.00791178848595        0.50482085778879
C           -6.61413934190749       -4.30754525528569        0.39364030991599
C           -7.96440511535266       -4.49575450594177        0.16711966350277
C           -8.82858434320264       -3.41010744737008        0.07392523363726
C           -8.35721842355103       -2.11364405522458        0.13580185064157
C           -6.99319373901962       -1.89302583552030        0.30232172826834
C           -6.15954418756578       -0.72072801013281        0.39918640466957
C           -6.34385755688109        0.65908246638439        0.21267089083397
C           -5.32196751540939        1.58962802945214        0.52649299402294
C           -5.90165726414610        2.89820088865451        0.36921095341395
C           -5.49389650652493        4.19920173315369        0.65304065283538
C           -6.33819514685531        5.25049768065270        0.35778489696856
C           -7.58684027807904        5.03580088861536       -0.21883665733337
C           -8.04181654211771        3.75457513002767       -0.45966380164034
C           -7.21059201764958        2.69520841579366       -0.12716915305517
N           -7.46252428078405        1.34074963738882       -0.21594690857202
C           -8.54053536331141        0.82202977605610       -0.95631771853430
C           -9.84900866237949        1.12198457479607       -0.59055343903353
C          -10.90205916906746        0.64430734106996       -1.35081372452774
C          -10.65797685118535       -0.13273805461985       -2.47150883783661
C           -9.35492086262494       -0.43269320989660       -2.83433243551961
C           -8.29593861151960        0.04623885889396       -2.08558117705359
C           -4.06533736957397        1.09900598794331        0.91516132677454
C           -3.85383997709259       -0.28516629049341        1.12380346902375
C           -2.54452422659321       -0.41653089639129        1.70562863958658
C           -1.83128485944822       -1.45456255452741        2.29950050029448
C           -0.56860929854942       -1.20247682826660        2.79730424507954
C            0.00867585674905        0.06034620916042        2.70215780431363
C           -0.69639501647191        1.11889018073460        2.16661911571200
C           -1.98473502177475        0.88199786973154        1.71416150563129
N           -2.90954810037223        1.78412703362292        1.22811998097013
C           -2.55533342817189        3.08386298379849        0.82343302414473
C           -2.04082559027240        3.98980316546894        1.74579750387628
C           -1.66692055934180        5.25588503232547        1.33065070924662
C           -1.79883897938391        5.62320938179359        0.00129190823131
C           -2.30556635983220        4.71920385271899       -0.91802415428778
C           -2.68076613201478        3.45180155849130       -0.51277507058058
C           -4.87665575304341       -1.17784499387143        0.77165137810742
C           -3.57411257635750       -4.55657537450008        1.33052134185739
C           -2.44034416662875       -5.32359915433715        1.14850178280908
H            1.84347516427977       -6.20110833945431       -1.56053442869460
H            3.87179164641768       -4.84014695990157       -1.93808293452205
H            5.46081085834524       -5.33993800197896       -0.37345363842108
H            7.82343789989072       -5.87859740271518        0.04445147461549
H            9.47419277164198       -4.08781005270587        0.37587325443930
H            8.81682943937445       -1.74179581611171        0.28572314279848
H            4.43955807244118        4.00272489835970        1.13765818376080
H            6.07020433803776        5.72543080674296        1.73275903641391
H            8.48029719403179        5.33199361312686        1.46712158309291
H            9.31826842106060        3.14109498420979        0.70915893897583
H            9.80034015097642        0.95898218224075        1.52215631697795
H           12.00560557283447        0.22627790086714        0.69537599928323
H           12.24134320579805       -0.63017437402364       -1.60666323439117
H           10.26893717267392       -0.74044335013623       -3.08603340771604
H            8.06907001106006        0.02534371741607       -2.26989208367430
H            1.79427530635834       -2.23429393662865       -1.89513724038225
H           -0.46965206251604       -1.55278914665645       -2.53005443539472
H           -1.27139958125765        0.72417552320057       -2.11488947415622
H            0.22748972061154        2.42666285556940       -1.14572333059301
H            4.41974274419611        3.27039437877853       -2.01862925394316
H            4.33106533409478        5.72147003105920       -2.27770302288163
H            2.70080151183088        7.04241339578046       -0.97674919872211
H            1.16017658807981        5.90288560831327        0.58022065537476
H            1.26031761436601        3.45629140556937        0.84748615228699
H            2.63243953846747       -2.16172304361709        1.15676222215410
H            0.55523284903961       -3.44455247299846        1.43608158933232
H           -0.76893092517132       -3.32409109247579       -1.00884152757850
H           -2.81674720247193       -1.99728919499724       -0.75212694097247
H           -5.95093980044259       -5.15399131861450        0.47711984814050
H           -8.35412573155223       -5.49954569502752        0.08298488980552
H           -9.88699807838648       -3.58241719324860       -0.05577902167460
H           -9.05078759061067       -1.29361125415433        0.07341907543244
H           -4.54247333311315        4.39718137085071        1.11419896984654
H           -6.02156887584714        6.25989600435051        0.57681709070537
H           -8.21552455186314        5.87954359963727       -0.46300201881726
H           -9.01738068498105        3.58446955672421       -0.88899616636350
H          -10.03319424826805        1.70877708789987        0.29736014093115
H          -11.91701079569020        0.87450702370084       -1.06163708960461
H          -11.48256348194136       -0.50543733508749       -3.06041559519842
H           -9.16157766936760       -1.03831042370826       -3.70724624828442
H           -7.27724480223343       -0.17989895648133       -2.36363496148847
H           -2.26007738832986       -2.43744895485810        2.40385809141913
H           -0.01884017117931       -1.99768363027470        3.28019516496689
H            1.00977140952326        0.22014371511031        3.07530392875244
H           -0.26355295840569        2.10595028782520        2.12051341272808
H           -1.96301466483141        3.70634766124115        2.78518522435402
H           -1.28100350582594        5.96011221109101        2.05339639668053
H           -1.51080983812185        6.61327037678644       -0.31869636964739
H           -2.40738299447459        5.00114472728751       -1.95537244313917
H           -3.08182227386495        2.74321902085517       -1.22166895443064
H           -4.33927205001616       -4.87593558206346        2.02133265825502
H           -2.32385278425219       -6.26267132932593        1.66979809683487

          :  Hamiltonian                  GFN2-xTB          :
         :: gradient norm              0.000069059308 Eh/a0 ::
         :: HOMO-LUMO gap              1.673813309526 eV    ::
         :: SCC energy              -234.727866656976 Eh    ::
         :: -> dispersion             -0.255830940411 Eh    ::
         :: -> Gsolv                  -0.080798718529 Eh    ::
         :: repulsion energy           4.276244915339 Eh    ::

    * Orbital Energies and Occupations

         #    Occupation            Energy/Eh            Energy/eV
      -------------------------------------------------------------
         1        2.0000           -0.7104938             -19.3335
       ...           ...                  ...                  ...
       202        2.0000           -0.3954927             -10.7619
       203        2.0000           -0.3941666             -10.7258
       204        2.0000           -0.3937078             -10.7133
       205        2.0000           -0.3906998             -10.6315
       206        2.0000           -0.3904228             -10.6239
       207        2.0000           -0.3900436             -10.6136
       208        2.0000           -0.3898290             -10.6078
       209        2.0000           -0.3716982             -10.1144
       210        2.0000           -0.3715362             -10.1100
       211        2.0000           -0.3528901              -9.6026
       212        2.0000           -0.3526643              -9.5965
       213        2.0000           -0.3518405              -9.5741
       214        2.0000           -0.3516603              -9.5692 (HOMO)
       215                         -0.2901488              -7.8954 (LUMO)
       216                         -0.2508441              -6.8258
       217                         -0.2465619              -6.7093
       218                         -0.2457271              -6.6866
       219                         -0.2440972              -6.6422
       220                         -0.2407269              -6.5505
       221                         -0.2383607              -6.4861
       222                         -0.2363193              -6.4306
       223                         -0.2332252              -6.3464
       224                         -0.2325493              -6.3280
       225                         -0.2319266              -6.3110
       ...                                ...                  ...
       420                          0.7744620              21.0742
      -------------------------------------------------------------
                  HL-Gap            0.0615115 Eh            1.6738 eV

     #   Z          covCN         q      C6AA      α(0)
     1   8 O        0.857    -0.420    22.083     6.301
     2   6 C        2.828     0.229    23.202     7.893
     3   6 C        2.973    -0.017    28.425     8.745
     4   6 C        2.921    -0.018    28.467     8.749
     5   6 C        2.920    -0.042    29.037     8.837
     6   6 C        2.916     0.076    26.313     8.412
     7   7 N        2.800    -0.041    22.034     6.972
     8   6 C        3.075     0.044    26.943     8.510
     9   6 C        2.911    -0.053    29.317     8.879
    10   6 C        2.923    -0.037    28.918     8.819
    11   6 C        2.919    -0.042    29.040     8.837
    12   6 C        2.915    -0.042    29.053     8.839
    13   6 C        3.059    -0.014    28.295     8.723
    14   6 C        3.050    -0.045    29.076     8.844
    15   6 C        3.064     0.042    26.984     8.518
    16   6 C        3.055    -0.046    29.090     8.845
    17   6 C        3.062    -0.016    28.339     8.730
    18   6 C        2.914    -0.040    29.006     8.831
    19   6 C        2.919    -0.043    29.072     8.842
    20   6 C        2.923    -0.037    28.932     8.821
    21   6 C        2.910    -0.053    29.320     8.879
    22   6 C        3.081     0.045    26.903     8.503
    23   7 N        2.802    -0.047    22.145     6.989
    24   6 C        2.915     0.069    26.458     8.435
    25   6 C        2.921    -0.042    29.039     8.837
    26   6 C        2.920    -0.028    28.702     8.785
    27   6 C        2.919    -0.032    28.795     8.800
    28   6 C        2.919    -0.026    28.662     8.779
    29   6 C        2.922    -0.038    28.946     8.823
    30   6 C        3.065     0.044    26.958     8.514
    31   6 C        3.054    -0.048    29.135     8.852
    32   6 C        3.061    -0.016    28.347     8.731
    33   6 C        2.914    -0.041    29.019     8.833
    34   6 C        2.919    -0.043    29.080     8.843
    35   6 C        2.924    -0.036    28.892     8.815
    36   6 C        2.910    -0.051    29.264     8.870
    37   6 C        3.086     0.047    26.857     8.495
    38   7 N        2.801    -0.048    22.172     6.993
    39   6 C        2.917     0.069    26.456     8.435
    40   6 C        2.922    -0.036    28.908     8.817
    41   6 C        2.920    -0.026    28.658     8.779
    42   6 C        2.920    -0.031    28.775     8.797
    43   6 C        2.920    -0.029    28.719     8.788
    44   6 C        2.922    -0.040    28.997     8.831
    45   6 C        3.060     0.040    27.042     8.528
    46   6 C        2.921    -0.036    28.886     8.814
    47   6 C        2.922    -0.024    28.606     8.771
    48   6 C        2.974    -0.018    28.445     8.748
    49   6 C        2.922    -0.024    28.613     8.772
    50   6 C        2.922    -0.036    28.899     8.816
    51   6 C        2.915     0.077    26.281     8.407
    52   7 N        2.799    -0.043    22.070     6.977
    53   6 C        3.072     0.044    26.932     8.509
    54   6 C        2.911    -0.053    29.317     8.879
    55   6 C        2.923    -0.037    28.915     8.818
    56   6 C        2.919    -0.042    29.040     8.837
    57   6 C        2.915    -0.041    29.027     8.835
    58   6 C        3.063    -0.014    28.293     8.722
    59   6 C        3.046    -0.045    29.075     8.844
    60   6 C        3.063     0.042    26.988     8.519
    61   6 C        3.052    -0.046    29.087     8.845
    62   6 C        3.060    -0.016    28.354     8.732
    63   6 C        2.915    -0.042    29.050     8.838
    64   6 C        2.919    -0.043    29.078     8.843
    65   6 C        2.923    -0.037    28.930     8.820
    66   6 C        2.911    -0.053    29.321     8.879
    67   6 C        3.082     0.045    26.899     8.502
    68   7 N        2.802    -0.047    22.146     6.989
    69   6 C        2.916     0.069    26.460     8.435
    70   6 C        2.921    -0.041    29.022     8.834
    71   6 C        2.920    -0.028    28.698     8.785
    72   6 C        2.919    -0.031    28.780     8.797
    73   6 C        2.920    -0.026    28.657     8.779
    74   6 C        2.922    -0.037    28.922     8.819
    75   6 C        3.061     0.043    26.977     8.517
    76   6 C        3.056    -0.046    29.094     8.846
    77   6 C        3.061    -0.016    28.359     8.733
    78   6 C        2.914    -0.041    29.014     8.833
    79   6 C        2.920    -0.043    29.073     8.842
    80   6 C        2.923    -0.036    28.901     8.816
    81   6 C        2.911    -0.051    29.255     8.869
    82   6 C        3.084     0.047    26.855     8.495
    83   7 N        2.803    -0.047    22.142     6.989
    84   6 C        2.916     0.070    26.437     8.431
    85   6 C        2.921    -0.041    29.022     8.834
    86   6 C        2.920    -0.027    28.674     8.781
    87   6 C        2.919    -0.030    28.760     8.794
    88   6 C        2.919    -0.026    28.649     8.777
    89   6 C        2.922    -0.035    28.877     8.812
    90   6 C        3.065     0.040    27.029     8.525
    91   6 C        2.919    -0.042    29.040     8.837
    92   6 C        2.921    -0.017    28.439     8.745
    93   1 H        0.926     0.048     2.343     2.394
    94   1 H        0.926     0.053     2.278     2.360
    95   1 H        0.926     0.031     2.578     2.511
    96   1 H        0.926     0.029     2.606     2.525
    97   1 H        0.926     0.026     2.638     2.540
    98   1 H        0.926     0.031     2.576     2.510
    99   1 H        0.926     0.027     2.633     2.537
   100   1 H        0.926     0.025     2.661     2.551
   101   1 H        0.926     0.028     2.620     2.531
   102   1 H        0.926     0.030     2.590     2.517
   103   1 H        0.926     0.043     2.414     2.430
   104   1 H        0.926     0.040     2.447     2.446
   105   1 H        0.926     0.039     2.456     2.451
   106   1 H        0.926     0.040     2.450     2.448
   107   1 H        0.926     0.038     2.474     2.460
   108   1 H        0.926     0.022     2.699     2.569
   109   1 H        0.926     0.024     2.679     2.560
   110   1 H        0.926     0.024     2.676     2.558
   111   1 H        0.926     0.027     2.634     2.538
   112   1 H        0.926     0.037     2.494     2.469
   113   1 H        0.926     0.040     2.451     2.448
   114   1 H        0.926     0.041     2.437     2.441
   115   1 H        0.926     0.043     2.409     2.427
   116   1 H        0.926     0.038     2.475     2.460
   117   1 H        0.926     0.050     2.315     2.379
   118   1 H        0.926     0.048     2.339     2.392
   119   1 H        0.926     0.050     2.323     2.383
   120   1 H        0.926     0.050     2.321     2.383
   121   1 H        0.926     0.031     2.567     2.506
   122   1 H        0.926     0.029     2.600     2.522
   123   1 H        0.926     0.027     2.636     2.539
   124   1 H        0.926     0.030     2.587     2.515
   125   1 H        0.926     0.028     2.613     2.528
   126   1 H        0.926     0.025     2.666     2.553
   127   1 H        0.926     0.027     2.626     2.534
   128   1 H        0.926     0.029     2.605     2.524
   129   1 H        0.926     0.043     2.414     2.429
   130   1 H        0.926     0.041     2.440     2.443
   131   1 H        0.926     0.040     2.449     2.447
   132   1 H        0.926     0.040     2.450     2.448
   133   1 H        0.926     0.037     2.483     2.464
   134   1 H        0.926     0.023     2.693     2.566
   135   1 H        0.926     0.022     2.701     2.570
   136   1 H        0.926     0.026     2.641     2.541
   137   1 H        0.926     0.027     2.634     2.538
   138   1 H        0.926     0.042     2.423     2.434
   139   1 H        0.926     0.040     2.445     2.445
   140   1 H        0.926     0.041     2.442     2.444
   141   1 H        0.926     0.039     2.458     2.451
   142   1 H        0.926     0.036     2.498     2.472
   143   1 H        0.926     0.054     2.276     2.359
   144   1 H        0.926     0.050     2.325     2.384

molecular dipole:
                 x           y           z       tot (Debye)
 q only:        0.163       2.652      -0.686
   full:        0.164       2.647      -0.762       7.013

 projected vibrational frequencies (cm⁻¹)
eigval :       -0.00    -0.00     0.00     0.00     0.00     0.00
eigval :       -6.68     5.42    12.21    15.87    19.87    22.98
eigval :       24.82    27.21    34.43    35.81    37.58    48.30
eigval :       49.94    52.97    54.16    57.04    59.60    65.75
eigval :       67.85    72.64    76.24    78.05    81.34    84.30
eigval :       85.46    93.02   102.05   104.19   113.91   118.54
eigval :      122.85   126.09   137.91   142.03   142.42   154.59
eigval :      160.19   163.64   164.79   170.27   170.99   185.59
eigval :      199.30   200.40   208.90   214.75   222.67   225.25
eigval :      227.43   228.88   233.24   239.65   247.97   249.98
eigval :      250.13   257.18   265.70   274.70   282.88   284.30
eigval :      294.45   303.88   325.45   347.41   350.16   353.15
eigval :      356.91   367.26   377.88   378.30   379.37   379.99
eigval :      380.88   381.64   383.53   386.51   388.42   391.11
eigval :      395.52   399.92   403.90   404.37   407.33   415.27
eigval :      424.03   433.73   438.69   445.70   448.60   449.39
eigval :      451.60   454.10   469.76   474.26   478.87   481.95
eigval :      489.24   495.78   536.93   538.37   542.34   545.13
eigval :      545.42   545.95   549.92   553.87   554.82   556.28
eigval :      562.40   572.94   575.87   580.57   581.76   581.95
eigval :      586.22   590.71   591.53   592.49   593.19   601.88
eigval :      607.45   608.21   610.90   618.21   625.61   629.44
eigval :      630.13   631.00   639.55   649.16   651.15   652.48
eigval :      661.65   667.26   669.58   670.80   672.38   675.34
eigval :      676.62   692.47   694.10   697.63   697.98   698.61
eigval :      700.38   703.21   703.71   726.21   728.83   729.24
eigval :      733.79   747.38   751.95   763.25   764.29   766.43
eigval :      767.44   769.54   771.01   772.56   773.00   774.29
eigval :      775.66   780.13   821.44   824.16   844.05   844.53
eigval :      845.18   846.11   857.91   859.78   862.90   863.76
eigval :      865.67   866.18   866.90   868.04   874.70   874.88
eigval :      877.00   878.43   879.86   879.94   895.98   897.67
eigval :      897.85   898.91   899.76   900.19   902.46   904.56
eigval :      905.19   905.56   906.10   911.68   912.38   915.79
eigval :      917.43   918.82   919.28   920.20   921.49   921.95
eigval :      922.73   924.92   925.80   928.01   928.22   928.38
eigval :      928.94   930.51   931.43   931.61   932.69   935.36
eigval :      936.10   938.34   955.07   985.44   985.52   992.65
eigval :      993.26  1003.88  1011.22  1017.54  1026.50  1076.46
eigval :     1076.99  1077.24  1077.39  1077.51  1077.86  1078.29
eigval :     1078.66  1083.48  1084.51  1089.65  1090.36  1090.62
eigval :     1091.62  1113.08  1114.56  1115.31  1115.38  1131.28
eigval :     1132.63  1142.39  1142.86  1145.52  1146.45  1146.91
eigval :     1147.20  1176.12  1177.03  1177.32  1177.65  1178.47
eigval :     1179.20  1179.47  1180.06  1180.56  1181.04  1182.95
eigval :     1183.55  1184.02  1186.53  1188.35  1188.92  1192.38
eigval :     1206.96  1210.37  1212.50  1213.06  1214.37  1217.08
eigval :     1244.88  1246.16  1247.19  1249.61  1250.02  1251.26
eigval :     1258.91  1261.23  1262.96  1270.60  1272.18  1272.93
eigval :     1273.40  1289.03  1291.02  1293.54  1293.86  1297.40
eigval :     1297.64  1312.99  1313.12  1313.39  1314.97  1318.09
eigval :     1321.80  1326.42  1327.67  1332.53  1332.68  1337.01
eigval :     1338.39  1359.26  1359.75  1364.13  1364.25  1366.44
eigval :     1367.48  1384.07  1385.46  1386.47  1388.80  1390.55
eigval :     1391.03  1404.91  1407.03  1427.42  1427.59  1430.32
eigval :     1431.80  1432.02  1432.43  1434.53  1434.68  1436.77
eigval :     1437.02  1438.89  1439.28  1473.22  1473.45  1474.69
eigval :     1475.19  1477.14  1477.87  1478.34  1478.93  1480.71
eigval :     1480.99  1482.54  1484.32  1553.52  1554.72  1563.87
eigval :     1564.94  1566.44  1566.93  1578.74  1578.95  1579.76
eigval :     1580.40  1580.68  1581.54  1583.48  1583.76  1588.06
eigval :     1588.09  1589.45  1589.73  1591.71  1591.92  1592.53
eigval :     1593.39  1599.56  1599.93  1601.82  1601.92  1603.03
eigval :     1603.50  1658.36  3068.24  3070.77  3071.09  3072.01
eigval :     3073.35  3073.87  3075.40  3075.49  3076.54  3078.45
eigval :     3078.81  3079.02  3079.18  3079.81  3080.48  3080.57
eigval :     3081.14  3082.68  3083.44  3083.79  3084.32  3085.07
eigval :     3086.51  3086.69  3087.74  3089.66  3089.75  3090.58
eigval :     3090.85  3091.55  3092.15  3092.38  3093.50  3094.33
eigval :     3094.94  3097.17  3097.39  3097.59  3097.87  3098.93
eigval :     3099.87  3100.37  3101.35  3103.82  3110.67  3112.99
eigval :     3114.71  3118.36  3124.71  3141.08  3143.77  3150.52

   temp. (K)  partition function   enthalpy   heat capacity  entropy
                                   cal/mol     cal/K/mol   cal/K/mol   J/K/mol
 298.15  VIB  0.334E+33            42135.524    268.919    262.406
         ROT  0.409E+09              888.752      2.981     42.385
         INT  0.137E+42            43024.276    271.900    304.791
         TR   0.389E+29             1481.254      4.968     47.037
         TOT                       44505.5299   276.8685   351.8280  1472.0485

       T/K    H(0)-H(T)+PV         H(T)/Eh          T*S/Eh         G(T)/Eh
   ------------------------------------------------------------------------
    298.15    0.709241E-01    0.116679E+01    0.167165E+00    0.999630E+00
   ------------------------------------------------------------------------

         :::::::::::::::::::::::::::::::::::::::::::::::::::::
         ::                  THERMODYNAMIC                  ::
         :::::::::::::::::::::::::::::::::::::::::::::::::::::
         :: total free energy        -229.451992168363 Eh   ::
         ::.................................................::
         :: total energy             -230.451621737683 Eh   ::
         :: zero point energy           1.095870346123 Eh   ::
         :: G(RRHO) w/o ZPVE           -0.096240776803 Eh   ::
         :: G(RRHO) contrib.            0.999629569320 Eh   ::
         :::::::::::::::::::::::::::::::::::::::::::::::::::::

           -------------------------------------------------
          | TOTAL ENERGY             -230.451621737683 Eh   |
          | TOTAL ENTHALPY           -229.284827315076 Eh   |
          | TOTAL FREE ENERGY        -229.451992168363 Eh   |
          | GRADIENT NORM               0.000069054448 Eh/α |
          | HOMO-LUMO GAP               1.673812412794 eV   |
           -------------------------------------------------

 * finished run on 2025/09/02 at 10:09:26.245
