   * xtb version 6.7.1 (edcfbbe) compiled by 'albert@albert-system' on 2024-07-22

   ID    Z sym.   atoms
    1    8 O      1
    2    6 C      2-6, 8-22, 24-37, 39-51, 53-67, 69-82, 84-92
    3    7 N      7, 23, 38, 52, 68, 83
    4    1 H      93-144

          program call               : xtb data2507/toluene/TATP-BP/TATP-BP_toluene_T1_crest.xyz --gfn 2 --uhf 2 --gbsa toluene --ohess vtight --parallel 40 --molden --ceasefiles --namespace data2507/toluene/TATP-BP/TATP-BP_toluene_T1_finalOpt
      * Solvation model:               GBSA
        Solvent                        toluene
        Solvent mass                       9.2140E+01 g/mol
          :  Hamiltonian                  GFN2-xTB          :
 * total energy  :  -230.3736653 Eh     change       -0.3637552E-07 Eh
 * total energy  :  -230.3739372 Eh     change       -0.2718289E-03 Eh
 * total energy  :  -230.3741058 Eh     change       -0.1686126E-03 Eh
 * total energy  :  -230.3741592 Eh     change       -0.5338671E-04 Eh
 * total energy  :  -230.3742349 Eh     change       -0.7578239E-04 Eh
 * total energy  :  -230.3743007 Eh     change       -0.6580401E-04 Eh
 * total energy  :  -230.3743528 Eh     change       -0.5206194E-04 Eh
 * total energy  :  -230.3744191 Eh     change       -0.6625925E-04 Eh
 * total energy  :  -230.3744575 Eh     change       -0.3842065E-04 Eh
 * total energy  :  -230.3745181 Eh     change       -0.6056733E-04 Eh
 * total energy  :  -230.3761583 Eh     change       -0.5801109E-06 Eh
 * total energy  :  -230.3761587 Eh     change       -0.3771705E-06 Eh
 * total energy  :  -230.3761590 Eh     change       -0.2716708E-06 Eh
 * total energy  :  -230.3761592 Eh     change       -0.2456627E-06 Eh
 * total energy  :  -230.3761592 Eh     change        0.3308639E-07 Eh
 * total energy  :  -230.3761592 Eh     change       -0.5898761E-07 Eh
 * total energy  :  -230.3761593 Eh     change       -0.7432507E-07 Eh
 * total energy  :  -230.3761596 Eh     change       -0.2816109E-06 Eh
 * total energy  :  -230.3761596 Eh     change       -0.2132359E-07 Eh
   *** GEOMETRY OPTIMIZATION CONVERGED AFTER 94 ITERATIONS ***

 final structure:
================
144
 xtb: 6.7.1 (edcfbbe)
O            0.01357951724670       -6.70953424490302        0.02057451724483
C            0.01217280460352       -5.43934126776611        0.01742783438324
C            1.25381146397438       -4.68889818451389       -0.07106845383465
C            2.38603416715067       -5.24159441590017       -0.69998052988054
C            3.56761805524649       -4.54367543483992       -0.77943728907756
C            3.68085474835889       -3.28358295001895       -0.18438676071185
N            4.88822777435015       -2.56505085887093       -0.21003955768865
C            6.06381252161130       -3.04220216126823        0.34069990338516
C            6.35167220457469       -4.32469462028384        0.78213975510880
C            7.58121054827726       -4.54742920392076        1.37332328851580
C            8.48337547076126       -3.50386400136129        1.55430807609850
C            8.18860092552372       -2.21842742411595        1.14073124010940
C            6.97972677986687       -1.97322204878539        0.49654002386726
C            6.31230619325017       -0.79770886638158        0.00242658103882
C            6.63329331595415        0.56165717206800       -0.10290136220683
C            5.63216300166640        1.53911715573913       -0.37846348853381
C            6.29806166295787        2.81171644441033       -0.38254806149725
C            5.91971283828908        4.12120123250253       -0.67586563934048
C            6.86956886206765        5.12224306464542       -0.63803056681335
C            8.20112924248910        4.84685147074861       -0.34102797746451
C            8.61537067705463        3.55314378417783       -0.08309005434816
C            7.66064870560712        2.54923913374356       -0.09998199549915
N            7.84114355127550        1.18911559167459        0.06954856350696
C            9.11644207440930        0.59200807633685        0.04244945319892
C           10.05588125586767        0.90769047126288        1.01876089438504
C           11.32058738865873        0.34873903592191        0.96001921329005
C           11.65163465106714       -0.52249952687650       -0.06507449641131
C           10.71484158888975       -0.83575608333292       -1.03690768803824
C            9.45053986353807       -0.27797541547277       -0.99079509812008
C            4.33476590923761        1.09397902855935       -0.68194926958646
C            4.06930574212841       -0.28497902159247       -0.87319294470677
C            2.77037394298542       -0.36975166216956       -1.47359728582562
C            2.03489883028413       -1.38960331373775       -2.07538199734364
C            0.78401337398725       -1.09963583114224       -2.57828312400090
C            0.23903845857267        0.18021894163881       -2.47355070239036
C            0.96627095548975        1.22081585804045       -1.93304645323972
C            2.25026043285499        0.94846521002806       -1.48209531333281
N            3.20252522713596        1.81813515028076       -0.99306684562091
C            2.90152396143627        3.12914095154824       -0.57992927432827
C            2.37502663003613        4.04909330667898       -1.48157203236006
C            2.04510809964585        5.32161837219386       -1.04919414808515
C            2.23858468573704        5.68226398698875        0.27431986929342
C            2.76410184980954        4.76615281502901        1.17131465678319
C            3.09206468203525        3.49047235795178        0.75090907735548
C            5.01735822864321       -1.21559415387607       -0.40680180914291
C            2.58411772267563       -2.75222862106980        0.50448579072627
C            1.39578493399357       -3.43260828164781        0.54937003320567
C           -1.23108359709745       -4.69122326092370        0.10134167275033
C           -1.37485049068657       -3.43767141013322       -0.52423824765585
C           -2.56533487527294       -2.76068699069100       -0.48597997261509
C           -3.66274111023321       -3.29268616366962        0.20130705091652
N           -4.87310004349592       -2.57893287189352        0.21868200677688
C           -6.04393431515546       -3.06407494931870       -0.33521097542104
C           -6.32352217774680       -4.34980750345297       -0.77253364436055
C           -7.54935167092161       -4.58109271435819       -1.36812080335880
C           -8.45571522432707       -3.54270422853910       -1.55760586007538
C           -8.16903012126417       -2.25408859401929       -1.14822260527226
C           -6.96433026219600       -2.00026017915521       -0.49953691866367
C           -6.30487998424430       -0.81954282517244       -0.00711363957725
C           -6.63340375454630        0.53845248362463        0.09199020903911
C           -5.63868992236468        1.52218697968191        0.36857248941766
C           -6.31129840588783        2.79126889591261        0.36494641503265
C           -5.94136160599121        4.10385279652237        0.65519400240956
C           -6.89630082025575        5.09970414969982        0.60903954020712
C           -8.22496548374574        4.81617225358560        0.30678031387467
C           -8.63111437457025        3.51931275084985        0.05187389389950
C           -7.67117188292905        2.52056811305549        0.07704105848572
N           -7.84371493502564        1.15891342014195       -0.08823537285591
C           -9.11602248529311        0.55534070974551       -0.06567999503345
C           -9.45111155190001       -0.31288312810001        0.96872261219390
C          -10.71283120253026       -0.87684879508472        1.01011938021328
C          -11.64614644938372       -0.57141528584568        0.03246804150519
C          -11.31419518432260        0.29819040525993       -0.99372575264226
C          -10.05194755507317        0.86311906130971       -1.04787265888853
C           -4.34024758620453        1.08490000003600        0.67894326167170
C           -4.06812834440966       -0.29205055596293        0.87579126498016
C           -2.77070992192419       -0.36795198962175        1.48069174112041
C           -2.03127940827686       -1.38194812603611        2.08754793516544
C           -0.78326950677678       -1.08370738454866        2.59272235351838
C           -0.24519858667106        0.19892065522073        2.48620024735868
C           -0.97666857130031        1.23394674065801        1.94077021488258
C           -2.25772612253587        0.95307117830291        1.48667856644492
N           -3.21301968187347        1.81599190760886        0.99174923436977
C           -2.91783161852962        3.12811748515535        0.57787737783208
C           -2.40174035806745        4.05255734106795        1.48096040376740
C           -2.07727637517291        5.32647155412319        1.04854556269460
C           -2.26583544274704        5.68396890925219       -0.27653143281145
C           -2.78068051319101        4.76328996605309       -1.17504337544448
C           -3.10320070505502        3.48623136634685       -0.75454447903670
C           -5.00954947128746       -1.22934128805781        0.40926866084116
C           -3.54733970633013       -4.54968259491938        0.80251638456543
C           -2.36346344285441       -5.24437981359828        0.72969067973238
H            2.29028091185172       -6.21974077968531       -1.15002269191396
H            4.40550793238835       -4.95538967909367       -1.32396046398745
H            5.62867787356949       -5.12024203670487        0.69054428396525
H            7.83219387742844       -5.53894589115300        1.71967492284710
H            9.42589181009877       -3.69713023500295        2.04482973943638
H            8.88635519883001       -1.42435473555713        1.34021880257492
H            4.90684226569438        4.36066504527987       -0.94508579680166
H            6.57476768068771        6.13766636652707       -0.85772133915786
H            8.92337393355555        5.64940687625621       -0.32895322364291
H            9.65411131605951        3.33172959874304        0.10691887056688
H            9.78413837360679        1.57092968749862        1.82669147071250
H           12.04715799531078        0.59032699989024        1.72159183336432
H           12.63862333001118       -0.95792583477345       -0.10596287594334
H           10.97030771894500       -1.51354500241828       -1.83751666420611
H            8.71573769033489       -0.51316472056178       -1.74609655531269
H            2.43761416538103       -2.38480877891534       -2.16987580069306
H            0.21403233864404       -1.87849143618612       -3.06392279817938
H           -0.75750991425772        0.36401072309052       -2.84653442237682
H            0.55130722793234        2.21485690541964       -1.87337958660488
H            2.25258708722536        3.77078542986014       -2.51754357959019
H            1.64199853956730        6.03527628112160       -1.75206743648487
H            1.98191931031817        6.67691689938524        0.60587292175676
H            2.91615313580144        5.04355577805521        2.20363197564824
H            3.49971974191318        2.76863816039434        1.44288816855026
H            2.68747421058957       -1.80492396317656        1.01215250533366
H            0.56329634687311       -3.01476882847379        1.09429536903286
H           -0.54194389822233       -3.01934899860222       -1.06810356151717
H           -2.66970386636752       -1.81573992741656       -0.99779895178650
H           -5.59698732264110       -5.14135169589148       -0.67447772827798
H           -7.79397468928868       -5.57533449011110       -1.71120286589876
H           -9.39506843675530       -3.74262594778991       -2.05152056803064
H           -8.86967100891323       -1.46431690504644       -1.35450240899920
H           -4.93116402829819        4.34979536110371        0.92852231428650
H           -6.60790327504026        6.11750619935502        0.82621913377674
H           -8.95134611129966        5.61486200284979        0.28814354617258
H           -9.66776210657024        3.29163474969355       -0.14209829256794
H           -8.71909523042488       -0.54184558498957        1.72861962377626
H          -10.96905238435704       -1.55333305606425        1.81158811096781
H          -12.63114730152068       -1.01163839028352        0.06973550238209
H          -12.03804798164020        0.53387584365282       -1.75972543564369
H           -9.77930337734135        1.52498518138827       -1.85662372123268
H           -2.42872327843933       -2.37905827732024        2.18400414484064
H           -0.21008165787218       -1.85823299449548        3.08152295996750
H            0.74925040279721        0.38927412709648        2.86149110399742
H           -0.56715678207490        2.23017836088100        1.87964837501780
H           -2.28305451809494        3.77634493100323        2.51792738164757
H           -1.68232389491460        6.04359663724032        1.75253246379483
H           -2.01367305361516        6.67977062436833       -0.60811113282899
H           -2.92869805120938        5.03826171718613       -2.20859965588158
H           -3.50265596898679        2.76089357180327       -1.44763870794911
H           -4.38565964054303       -4.96150504325320        1.34631198601974
H           -2.26622390163821       -6.22033959980063        1.18414461989147

          :  Hamiltonian                  GFN2-xTB          :
         :: gradient norm              0.000058121011 Eh/a0 ::
         :: HOMO-LUMO gap              0.419839929425 eV    ::
         :: SCC energy              -234.634245976145 Eh    ::
         :: -> dispersion             -0.248590998998 Eh    ::
         :: -> Gsolv                  -0.101066265064 Eh    ::
         :: repulsion energy           4.258086347141 Eh    ::

    * Orbital Energies and Occupations

         #    Occupation            Energy/Eh            Energy/eV
      -------------------------------------------------------------
         1        2.0000           -0.6850667             -18.6416
       ...           ...                  ...                  ...
       203        2.0000           -0.3977336             -10.8229
       204        2.0000           -0.3968296             -10.7983
       205        2.0000           -0.3968027             -10.7976
       206        2.0000           -0.3908341             -10.6351
       207        2.0000           -0.3905949             -10.6286
       208        2.0000           -0.3754451             -10.2164
       209        2.0000           -0.3752188             -10.2102
       210        1.9439           -0.3592504              -9.7757
       211        1.9296           -0.3590211              -9.7695
       212        1.9261           -0.3589708              -9.7681
       213        1.6916           -0.3573368              -9.7236
       214        1.5088           -0.3566030              -9.7037
       215        0.9996           -0.2689221              -7.3177 (HOMO)
       216        0.0002           -0.2534934              -6.8979 (LUMO)
       217        0.0002           -0.2533782              -6.8948
       218        0.0000           -0.2516225              -6.8470
       219        0.0000           -0.2491532              -6.7798
       220                         -0.2373170              -6.4577
       221                         -0.2370405              -6.4502
       222                         -0.2355506              -6.4097
       223                         -0.2353951              -6.4054
       224                         -0.2345468              -6.3823
       225                         -0.2344283              -6.3791
       226                         -0.2342313              -6.3738
       ...                                ...                  ...
       420                          0.7665300              20.8583
      -------------------------------------------------------------
                  HL-Gap            0.0154288 Eh            0.4198 eV

     #   Z          covCN         q      C6AA      α(0)
     1   8 O        0.857    -0.541    24.706     6.664
     2   6 C        2.831     0.164    24.450     8.103
     3   6 C        2.969    -0.022    28.559     8.766
     4   6 C        2.921    -0.033    28.821     8.804
     5   6 C        2.915    -0.046    29.139     8.852
     6   6 C        2.915     0.044    27.017     8.523
     7   7 N        2.799    -0.023    21.691     6.917
     8   6 C        3.085     0.045    26.891     8.501
     9   6 C        2.910    -0.046    29.135     8.851
    10   6 C        2.923    -0.034    28.855     8.809
    11   6 C        2.919    -0.038    28.944     8.822
    12   6 C        2.914    -0.039    28.971     8.826
    13   6 C        3.057    -0.012    28.269     8.719
    14   6 C        3.052    -0.043    29.024     8.835
    15   6 C        3.060     0.047    26.890     8.504
    16   6 C        3.052    -0.036    28.854     8.810
    17   6 C        3.056    -0.013    28.283     8.722
    18   6 C        2.914    -0.039    28.959     8.824
    19   6 C        2.918    -0.039    28.982     8.828
    20   6 C        2.923    -0.032    28.808     8.802
    21   6 C        2.910    -0.049    29.225     8.865
    22   6 C        3.083     0.047    26.865     8.497
    23   7 N        2.800    -0.035    21.909     6.952
    24   6 C        2.917     0.066    26.525     8.446
    25   6 C        2.921    -0.040    29.005     8.832
    26   6 C        2.920    -0.027    28.675     8.781
    27   6 C        2.919    -0.030    28.742     8.791
    28   6 C        2.920    -0.025    28.628     8.774
    29   6 C        2.922    -0.036    28.905     8.817
    30   6 C        3.064     0.043    26.981     8.518
    31   6 C        3.056    -0.039    28.907     8.817
    32   6 C        3.064    -0.010    28.213     8.710
    33   6 C        2.912    -0.034    28.847     8.807
    34   6 C        2.919    -0.037    28.931     8.820
    35   6 C        2.924    -0.032    28.801     8.801
    36   6 C        2.910    -0.050    29.242     8.867
    37   6 C        3.084     0.048    26.842     8.493
    38   7 N        2.802    -0.034    21.903     6.951
    39   6 C        2.916     0.066    26.516     8.444
    40   6 C        2.921    -0.041    29.011     8.833
    41   6 C        2.920    -0.027    28.667     8.780
    42   6 C        2.919    -0.030    28.747     8.792
    43   6 C        2.919    -0.025    28.637     8.775
    44   6 C        2.922    -0.037    28.917     8.818
    45   6 C        3.067     0.044    26.941     8.511
    46   6 C        2.918    -0.041    29.015     8.833
    47   6 C        2.920    -0.041    29.021     8.834
    48   6 C        2.969    -0.022    28.560     8.766
    49   6 C        2.920    -0.041    29.023     8.834
    50   6 C        2.918    -0.041    29.015     8.833
    51   6 C        2.915     0.044    27.017     8.523
    52   7 N        2.799    -0.023    21.691     6.917
    53   6 C        3.085     0.045    26.890     8.501
    54   6 C        2.910    -0.046    29.135     8.851
    55   6 C        2.923    -0.034    28.855     8.809
    56   6 C        2.919    -0.038    28.944     8.822
    57   6 C        2.914    -0.039    28.971     8.826
    58   6 C        3.057    -0.012    28.269     8.719
    59   6 C        3.052    -0.043    29.024     8.835
    60   6 C        3.060     0.047    26.890     8.504
    61   6 C        3.052    -0.036    28.854     8.810
    62   6 C        3.056    -0.013    28.283     8.722
    63   6 C        2.914    -0.039    28.960     8.824
    64   6 C        2.918    -0.040    28.982     8.828
    65   6 C        2.923    -0.032    28.807     8.802
    66   6 C        2.910    -0.049    29.225     8.865
    67   6 C        3.083     0.047    26.865     8.497
    68   7 N        2.800    -0.035    21.909     6.952
    69   6 C        2.917     0.066    26.526     8.446
    70   6 C        2.922    -0.036    28.905     8.817
    71   6 C        2.920    -0.025    28.628     8.774
    72   6 C        2.919    -0.030    28.742     8.791
    73   6 C        2.920    -0.027    28.675     8.781
    74   6 C        2.921    -0.040    29.006     8.832
    75   6 C        3.064     0.043    26.982     8.518
    76   6 C        3.056    -0.039    28.908     8.817
    77   6 C        3.064    -0.010    28.213     8.710
    78   6 C        2.912    -0.034    28.847     8.807
    79   6 C        2.919    -0.037    28.931     8.820
    80   6 C        2.924    -0.032    28.802     8.801
    81   6 C        2.910    -0.050    29.241     8.867
    82   6 C        3.084     0.048    26.843     8.493
    83   7 N        2.802    -0.034    21.902     6.951
    84   6 C        2.916     0.066    26.516     8.444
    85   6 C        2.921    -0.041    29.010     8.833
    86   6 C        2.920    -0.027    28.666     8.780
    87   6 C        2.919    -0.030    28.746     8.792
    88   6 C        2.919    -0.025    28.637     8.775
    89   6 C        2.922    -0.037    28.917     8.818
    90   6 C        3.067     0.044    26.940     8.511
    91   6 C        2.915    -0.046    29.139     8.852
    92   6 C        2.921    -0.033    28.822     8.804
    93   1 H        0.926     0.025     2.663     2.552
    94   1 H        0.926     0.033     2.544     2.494
    95   1 H        0.926     0.034     2.534     2.489
    96   1 H        0.926     0.033     2.540     2.492
    97   1 H        0.926     0.034     2.532     2.488
    98   1 H        0.926     0.037     2.486     2.466
    99   1 H        0.926     0.037     2.491     2.468
   100   1 H        0.926     0.033     2.542     2.493
   101   1 H        0.926     0.036     2.509     2.477
   102   1 H        0.926     0.037     2.495     2.470
   103   1 H        0.926     0.046     2.367     2.406
   104   1 H        0.926     0.044     2.397     2.421
   105   1 H        0.926     0.043     2.414     2.430
   106   1 H        0.926     0.042     2.417     2.431
   107   1 H        0.926     0.040     2.451     2.448
   108   1 H        0.926     0.028     2.609     2.526
   109   1 H        0.926     0.026     2.638     2.540
   110   1 H        0.926     0.033     2.548     2.496
   111   1 H        0.926     0.038     2.471     2.458
   112   1 H        0.926     0.046     2.374     2.410
   113   1 H        0.926     0.045     2.383     2.414
   114   1 H        0.926     0.045     2.388     2.417
   115   1 H        0.926     0.044     2.394     2.420
   116   1 H        0.926     0.040     2.454     2.450
   117   1 H        0.926     0.030     2.590     2.517
   118   1 H        0.926     0.029     2.594     2.519
   119   1 H        0.926     0.030     2.593     2.518
   120   1 H        0.926     0.030     2.590     2.517
   121   1 H        0.926     0.034     2.534     2.489
   122   1 H        0.926     0.033     2.540     2.492
   123   1 H        0.926     0.034     2.532     2.488
   124   1 H        0.926     0.037     2.486     2.465
   125   1 H        0.926     0.037     2.491     2.468
   126   1 H        0.926     0.033     2.542     2.493
   127   1 H        0.926     0.036     2.509     2.477
   128   1 H        0.926     0.037     2.495     2.470
   129   1 H        0.926     0.040     2.450     2.448
   130   1 H        0.926     0.042     2.417     2.431
   131   1 H        0.926     0.043     2.414     2.430
   132   1 H        0.926     0.044     2.397     2.421
   133   1 H        0.926     0.046     2.367     2.406
   134   1 H        0.926     0.028     2.609     2.526
   135   1 H        0.926     0.026     2.640     2.541
   136   1 H        0.926     0.033     2.548     2.496
   137   1 H        0.926     0.038     2.472     2.459
   138   1 H        0.926     0.046     2.374     2.410
   139   1 H        0.926     0.045     2.383     2.414
   140   1 H        0.926     0.045     2.388     2.417
   141   1 H        0.926     0.044     2.394     2.420
   142   1 H        0.926     0.040     2.453     2.449
   143   1 H        0.926     0.033     2.544     2.494
   144   1 H        0.926     0.025     2.663     2.552

molecular dipole:
                 x           y           z       tot (Debye)
 q only:       -0.017       7.875      -0.025
   full:       -0.016       7.535      -0.024      19.152

 projected vibrational frequencies (cm⁻¹)
eigval :       -0.00    -0.00    -0.00     0.00     0.00     0.00
eigval :        5.23     8.33    11.97    17.64    19.99    24.84
eigval :       25.14    26.19    30.29    34.93    37.92    47.92
eigval :       51.09    53.58    53.69    57.53    62.50    66.85
eigval :       67.66    71.77    77.35    78.29    81.92    84.19
eigval :       89.88    93.50   104.65   104.80   112.08   115.85
eigval :      121.90   124.93   134.57   144.12   147.63   152.16
eigval :      154.81   162.32   162.86   174.31   179.66   179.84
eigval :      194.58   196.69   207.34   210.86   221.44   226.56
eigval :      228.14   231.67   233.86   241.96   244.97   249.39
eigval :      251.93   254.64   268.34   272.74   278.16   288.28
eigval :      291.67   309.03   324.74   337.90   351.81   352.45
eigval :      355.43   357.99   379.22   379.61   380.59   381.85
eigval :      382.02   384.74   387.25   388.39   388.98   393.36
eigval :      393.88   395.75   400.31   404.77   406.06   409.46
eigval :      417.93   420.45   430.05   434.08   445.24   445.49
eigval :      448.37   451.40   468.77   472.77   473.07   473.19
eigval :      481.05   483.27   532.00   534.50   538.61   540.20
eigval :      542.12   543.40   543.78   550.29   553.59   554.47
eigval :      556.48   561.80   574.06   574.96   580.94   581.13
eigval :      581.22   588.23   590.57   590.85   592.92   593.17
eigval :      602.63   603.22   606.84   608.71   611.34   622.95
eigval :      624.51   627.96   629.03   637.73   649.52   650.20
eigval :      651.41   667.09   668.67   669.52   669.83   672.51
eigval :      675.09   675.54   676.84   693.65   698.42   698.72
eigval :      698.81   698.91   703.71   703.80   725.06   728.24
eigval :      728.29   747.78   750.25   763.73   764.06   766.20
eigval :      766.61   766.79   768.30   769.19   769.54   769.65
eigval :      776.80   778.17   801.09   810.44   840.33   840.62
eigval :      840.77   841.84   847.90   855.72   856.14   858.66
eigval :      863.83   864.24   866.71   867.24   870.56   872.38
eigval :      878.30   878.41   880.63   881.98   888.98   897.57
eigval :      897.71   898.88   899.13   900.86   902.23   905.82
eigval :      905.95   906.25   906.63   907.68   910.32   910.51
eigval :      912.05   914.08   914.31   917.74   918.30   918.95
eigval :      918.99   920.94   925.33   928.00   928.65   928.81
eigval :      929.84   932.31   932.37   933.77   934.18   934.35
eigval :      937.10   939.29   944.33   984.73   984.76   990.31
eigval :      991.78   996.95  1003.55  1013.16  1015.00  1069.91
eigval :     1072.14  1072.30  1072.96  1076.72  1076.86  1077.53
eigval :     1077.57  1080.73  1081.31  1084.79  1084.93  1085.26
eigval :     1086.09  1114.53  1114.59  1114.88  1115.21  1118.89
eigval :     1121.49  1129.89  1132.09  1132.66  1134.20  1139.87
eigval :     1140.42  1157.87  1162.39  1164.01  1167.08  1169.23
eigval :     1172.51  1176.88  1178.17  1178.77  1179.07  1179.12
eigval :     1179.75  1184.10  1185.31  1187.13  1187.40  1189.84
eigval :     1194.20  1196.76  1202.06  1203.60  1204.38  1211.14
eigval :     1215.93  1218.70  1219.68  1224.15  1229.90  1239.61
eigval :     1251.32  1257.70  1260.61  1264.55  1265.70  1266.74
eigval :     1269.12  1272.31  1273.37  1276.57  1276.69  1284.38
eigval :     1288.84  1310.22  1310.37  1311.91  1312.17  1313.82
eigval :     1314.18  1314.25  1314.32  1322.25  1323.77  1326.56
eigval :     1328.89  1329.23  1331.88  1335.88  1338.50  1353.90
eigval :     1354.66  1369.94  1370.42  1374.48  1374.67  1380.22
eigval :     1382.93  1406.18  1408.20  1410.68  1411.58  1411.93
eigval :     1414.09  1419.35  1419.51  1431.96  1432.28  1432.95
eigval :     1433.03  1437.11  1438.53  1439.93  1453.85  1455.09
eigval :     1461.85  1462.48  1465.96  1467.43  1473.25  1473.68
eigval :     1474.51  1475.47  1478.94  1479.64  1482.54  1488.24
eigval :     1509.32  1509.80  1513.58  1518.35  1542.57  1573.17
eigval :     1573.47  1574.52  1574.77  1577.59  1577.69  1579.74
eigval :     1579.76  1579.77  1579.85  1583.38  1583.47  1585.74
eigval :     1586.55  1586.88  1587.17  1589.34  1591.43  1591.48
eigval :     1592.22  1592.41  3067.95  3068.21  3073.47  3073.76
eigval :     3078.15  3078.26  3078.34  3078.66  3078.66  3079.06
eigval :     3079.47  3079.48  3079.70  3080.45  3080.85  3080.93
eigval :     3082.39  3082.40  3082.91  3082.96  3084.85  3084.93
eigval :     3087.09  3087.21  3087.46  3087.54  3088.58  3088.66
eigval :     3089.89  3090.09  3092.63  3092.72  3094.01  3094.21
eigval :     3094.74  3096.45  3097.40  3097.69  3098.13  3098.63
eigval :     3098.73  3099.00  3099.53  3099.60  3100.23  3100.83
eigval :     3113.64  3114.04  3142.81  3142.99  3154.99  3155.05

   temp. (K)  partition function   enthalpy   heat capacity  entropy
                                   cal/mol     cal/K/mol   cal/K/mol   J/K/mol
 298.15  VIB  0.303E+33            42345.794    270.726    263.158
         ROT  0.214E+09              888.752      2.981     41.103
         INT  0.649E+41            43234.546    273.707    304.261
         TR   0.389E+29             1481.254      4.968     47.037
         TOT                       44715.8003   278.6755   351.2974  1469.8284

       T/K    H(0)-H(T)+PV         H(T)/Eh          T*S/Eh         G(T)/Eh
   ------------------------------------------------------------------------
    298.15    0.712592E-01    0.116169E+01    0.166913E+00    0.994779E+00
   ------------------------------------------------------------------------

         :::::::::::::::::::::::::::::::::::::::::::::::::::::
         ::                  THERMODYNAMIC                  ::
         :::::::::::::::::::::::::::::::::::::::::::::::::::::
         :: total free energy        -229.381380750035 Eh   ::
         ::.................................................::
         :: total energy             -230.376159628434 Eh   ::
         :: zero point energy           1.090432452520 Eh   ::
         :: G(RRHO) w/o ZPVE           -0.095653574121 Eh   ::
         :: G(RRHO) contrib.            0.994778878399 Eh   ::
         :::::::::::::::::::::::::::::::::::::::::::::::::::::

           -------------------------------------------------
          | TOTAL ENERGY             -230.376159628434 Eh   |
          | TOTAL ENTHALPY           -229.214468012287 Eh   |
          | TOTAL FREE ENERGY        -229.381380750035 Eh   |
          | GRADIENT NORM               0.000058374077 Eh/α |
          | HOMO-LUMO GAP               0.419838440616 eV   |
           -------------------------------------------------

 * finished run on 2025/09/02 at 10:43:51.200
