   * xtb version 6.7.1 (edcfbbe) compiled by 'albert@albert-system' on 2024-07-22

   ID    Z sym.   atoms
    1    8 O      1
    2    6 C      2-6, 8-22, 24-37, 39-51, 53-67, 69-82, 84-92
    3    7 N      7, 23, 38, 52, 68, 83
    4    1 H      93-144

          program call               : xtb data2507/toluene/TATP-BP/TATP-BP_toluene_S0_finalOpt.xtbopt.xyz --gfn 2 --uhf 2 --gbsa toluene --ohess vtight --parallel 40 --molden --ceasefiles --namespace data2507/toluene/TATP-BP/TATP-BP_toluene_T1_preOpt
      * Solvation model:               GBSA
        Solvent                        toluene
        Solvent mass                       9.2140E+01 g/mol
          :  Hamiltonian                  GFN2-xTB          :
 * total energy  :  -230.3686636 Eh     change       -0.9513857E-07 Eh
 * total energy  :  -230.3715700 Eh     change       -0.2906387E-02 Eh
 * total energy  :  -230.3724735 Eh     change       -0.9034544E-03 Eh
 * total energy  :  -230.3725747 Eh     change       -0.1012371E-03 Eh
 * total energy  :  -230.3726413 Eh     change       -0.6658887E-04 Eh
 * total energy  :  -230.3726880 Eh     change       -0.4672675E-04 Eh
 * total energy  :  -230.3727346 Eh     change       -0.4657671E-04 Eh
 * total energy  :  -230.3727713 Eh     change       -0.3665827E-04 Eh
 * total energy  :  -230.3728026 Eh     change       -0.3135240E-04 Eh
 * total energy  :  -230.3728308 Eh     change       -0.2817701E-04 Eh
 * total energy  :  -230.3745543 Eh     change       -0.3672538E-06 Eh
 * total energy  :  -230.3745542 Eh     change        0.7490306E-07 Eh
 * total energy  :  -230.3745544 Eh     change       -0.1893098E-06 Eh
 * total energy  :  -230.3745545 Eh     change       -0.5881952E-07 Eh
 * total energy  :  -230.3745550 Eh     change       -0.5237886E-06 Eh
 * total energy  :  -230.3745553 Eh     change       -0.2387812E-06 Eh
 * total energy  :  -230.3745555 Eh     change       -0.2445449E-06 Eh
 * total energy  :  -230.3745557 Eh     change       -0.2229886E-06 Eh
 * total energy  :  -230.3745558 Eh     change       -0.2992354E-07 Eh
   *** GEOMETRY OPTIMIZATION CONVERGED AFTER 101 ITERATIONS ***

 final structure:
================
144
 xtb: 6.7.1 (edcfbbe)
O           -0.17487184598980       -6.77086417997039        0.03475001812429
C           -0.16115095169709       -5.50264750438877        0.06268484548896
C            1.08730705870842       -4.76418641082432       -0.07049866465617
C            2.15648099569879       -5.28942235609784       -0.81828755251215
C            3.33787908579958       -4.59894242637996       -0.95043204069873
C            3.51915022889846       -3.38220440076586       -0.28515625336130
N            4.72801237816052       -2.67506375954376       -0.37324511870349
C            5.95587490998933       -3.21085747866115       -0.03130673908952
C            6.27158417194380       -4.52933877988041        0.25965687436403
C            7.56931757228628       -4.82037055286764        0.63633716560806
C            8.51861691768360       -3.81029978623573        0.75248100903340
C            8.19860919076094       -2.49001530794859        0.49844873159629
C            6.90974160089894       -2.16935640936044        0.08257987120701
C            6.20409016666769       -0.94477657317051       -0.19347264056229
C            6.51052101215276        0.42007616032208       -0.10930857566066
C            5.47751064220099        1.40198203881365       -0.11782972356434
C            6.08782334123262        2.63507704139628        0.28701031182520
C            5.61153391615748        3.89700286259364        0.63963077230627
C            6.51599815804052        4.88412200194778        0.97534447724154
C            7.88722735721914        4.64273503088628        0.96239520938268
C            8.38469624386610        3.38433814807482        0.67650778652735
C            7.47758468527803        2.37854404209517        0.38407840577307
N            7.71378905826759        1.03909069938061        0.13606849615694
C            8.99566791721837        0.52271636264646       -0.12677801963326
C           10.01218019847543        0.64571623717305        0.81570895403129
C           11.27914745057030        0.17122961280411        0.52414210472190
C           11.53707073031989       -0.42789256852960       -0.69823707582929
C           10.52308895907233       -0.55384849401728       -1.63440444505256
C            9.25584448482806       -0.07603846719283       -1.35639960664282
C            4.20214146429557        1.01612142206599       -0.56213033716788
C            3.89331928841612       -0.34552736534408       -0.80252329125685
C            2.57111065615404       -0.37558674784289       -1.35766774739129
C            1.77881421113170       -1.35399378414209       -1.95706543361717
C            0.54475895868976       -0.99817548969725       -2.45980382707693
C            0.08250837608575        0.31590273452842       -2.39191315727321
C            0.86718153927400        1.31661900005890       -1.85694194462273
C            2.11228764357348        0.96429605563365       -1.35537516082386
N            3.10581304310588        1.78828342965245       -0.86939243118625
C            3.06173873818460        3.18617610327256       -1.04828020339585
C            3.95700864169249        3.80359736536376       -1.91571443785301
C            3.88530088925330        5.16958010222843       -2.11808534091662
C            2.92022748810758        5.92113812890498       -1.46705737712065
C            2.02275733202814        5.30410757865233       -0.61097353207331
C            2.08774853263668        3.93788316113445       -0.40017069172873
C            4.85999028756136       -1.31560558524789       -0.47520936930449
C            2.48827831417697       -2.88308826325804        0.52027022400279
C            1.29437548216631       -3.55061100304021        0.61209726575276
C           -1.38549776111755       -4.73840139260356        0.21853865789804
C           -1.52933334288543       -3.46075101643236       -0.35804387325935
C           -2.70756667730484       -2.77029204543665       -0.25948946684253
C           -3.79307978615808       -3.30892527545122        0.44504806044539
N           -4.97849995595163       -2.56607015650919        0.53556160567022
C           -6.21915041971947       -3.01696304098195        0.12154692737419
C           -6.61627073590346       -4.30614793288054       -0.19751717581155
C           -7.94522873699893       -4.51637791456095       -0.51767498369968
C           -8.85666504584913       -3.46568503906533       -0.49907124738174
C           -8.45409306029947       -2.17037192180869       -0.23131791791832
C           -7.11083085721906       -1.91926971364191        0.02934546159355
C           -6.33359590180031       -0.74263134673133        0.32139218699675
C           -6.54662160156575        0.63851525855352        0.25517194304719
C           -5.56092467135385        1.56614940429489        0.70830443295479
C           -6.16479744784254        2.86641175214748        0.63365356878413
C           -5.80154430098566        4.14837364252944        1.04494716458477
C           -6.65535845920253        5.20321624913538        0.79200743430924
C           -7.86789991978654        5.01197163318195        0.13557290466939
C           -8.27979921186365        3.74513666012044       -0.23638830066625
C           -7.44045377480065        2.68043567574483        0.04743952102385
N           -7.65066844849714        1.33266190023597       -0.17537337988075
C           -8.68779729170727        0.85724069379377       -1.00170017781909
C          -10.01587626604645        1.08634632730127       -0.65747052311487
C          -11.02679231495620        0.65645410246996       -1.49930374477457
C          -10.71993128230261       -0.00035718488050       -2.67998114978352
C           -9.39669063620117       -0.22872585195793       -3.02129412107379
C           -8.37925494062571        0.20190958017821       -2.18981251455670
C           -4.31264325447928        1.06959332625192        1.11669267721252
C           -4.07702020909058       -0.32369824288796        1.21880237133868
C           -2.80462956813360       -0.47599992926662        1.86346422910650
C           -2.09910590221922       -1.55022776716146        2.40438960288839
C           -0.86558153323430       -1.31860122688516        2.97553635457571
C           -0.31031722953294       -0.03946251288986        3.01104736883010
C           -1.01100380333274        1.05039887842062        2.53731887331917
C           -2.27436208891864        0.83025796849520        2.00658452648383
N           -3.19274220154046        1.75019393194577        1.54767289902672
C           -2.84706002164077        3.08314871181291        1.25243238613832
C           -2.39169579107237        3.93011018999369        2.25799901519706
C           -2.01727817061992        5.22592913096356        1.94674593086210
C           -2.09506951244183        5.68056022168407        0.64031223214408
C           -2.54503540855324        4.83524785099364       -0.36122995680388
C           -2.91696674605136        3.53784585858490       -0.06111651016567
C           -5.04890253208328       -1.20851023863675        0.71594433783740
C           -3.67417534570808       -4.58559830348904        1.00574164035430
C           -2.50515216457000       -5.29424935357780        0.86816267675796
H            2.00983935477821       -6.23499528029814       -1.32112736169717
H            4.11919444094509       -4.97959554877001       -1.59255368959518
H            5.52246924680621       -5.30425786088297        0.21581003294735
H            7.84120811906254       -5.84096953643616        0.86098613913849
H            9.52199233474191       -4.05883809702045        1.06509740664532
H            8.94545773915094       -1.72990814292606        0.64026437841531
H            4.55548730632168        4.10146060891701        0.67605528447130
H            6.15278046589304        5.86305264325416        1.25057052570309
H            8.57223827233484        5.44282047784841        1.20033059252119
H            9.44657508373863        3.19421645905138        0.68799164802270
H            9.79926816724503        1.08719421504277        1.77775227075069
H           12.06534702143109        0.26316092327359        1.25877406155416
H           12.52622308107589       -0.79933005833769       -0.91954068352542
H           10.72017497866834       -1.02141447700350       -2.58744803246427
H            8.46039897600320       -0.16827652028344       -2.08080664552466
H            2.12523715843790       -2.36944584149069       -2.05491857697208
H           -0.07081893284199       -1.75035918415250       -2.93182314954932
H           -0.89083793082285        0.55687924746862       -2.79281508108425
H            0.53527757074937        2.34339227176594       -1.85302155981700
H            4.70241176695121        3.20907557940344       -2.42223557917242
H            4.58322490334909        5.64693638371983       -2.78934768280499
H            2.86719436443569        6.98739082910105       -1.62752493525007
H            1.27145153807681        5.88691654868222       -0.10027142537988
H            1.39870409165164        3.44999338739102        0.27285892711888
H            2.64573009424701       -1.96990599168025        1.07448360120453
H            0.50907483128222       -3.15656440220175        1.23929019642306
H           -0.70696801309710       -3.03505859554514       -0.91240081060756
H           -2.81325953531831       -1.80627433675183       -0.73444060576395
H           -5.91205884986139       -5.12309123961294       -0.19808951482501
H           -8.28039387901289       -5.51257870035081       -0.76501239530443
H           -9.89826610356161       -3.66296425654074       -0.70467923033542
H           -9.18446198681231       -1.38075392767069       -0.20864320217347
H           -4.87927087390076        4.32387573396645        1.56953508432637
H           -6.37501499060456        6.19698032871569        1.10820684895835
H           -8.50435112221686        5.85966918626945       -0.06990172667890
H           -9.22759450233755        3.59263563950968       -0.72898185727465
H          -10.24855550916261        1.58040885961198        0.27426020166671
H          -12.05751501836733        0.83035602022467       -1.22809323257947
H          -11.51202259494166       -0.33547880863422       -3.33248686971461
H           -9.15429091641446       -0.74071792993660       -3.94044203342561
H           -7.34563936890420        0.02972128023415       -2.45018539489284
H           -2.50915570654379       -2.54625875694634        2.39940040700690
H           -0.31715008601599       -2.14453094616727        3.40517907604630
H            0.67136192805049        0.10125280807613        3.43857352031567
H           -0.59474054043385        2.04393793615270        2.59449841672073
H           -2.35690945801242        3.57732166322955        3.27803810767002
H           -1.67107308099822        5.88326343930014        2.73061150214074
H           -1.80820258247087        6.69397391131552        0.40308667009267
H           -2.60322494183870        5.18538980612875       -1.38088291687668
H           -3.26637868604752        2.87124274505730       -0.83522956384128
H           -4.49328524070907       -4.99834684153401        1.57685585876025
H           -2.40606952262974       -6.28435089047765        1.29054410832369

          :  Hamiltonian                  GFN2-xTB          :
         :: gradient norm              0.000101004967 Eh/a0 ::
         :: HOMO-LUMO gap              0.423572279185 eV    ::
         :: SCC energy              -234.632134283814 Eh    ::
         :: -> dispersion             -0.247909316442 Eh    ::
         :: -> Gsolv                  -0.100445929220 Eh    ::
         :: repulsion energy           4.257578362417 Eh    ::

    * Orbital Energies and Occupations

         #    Occupation            Energy/Eh            Energy/eV
      -------------------------------------------------------------
         1        2.0000           -0.6850917             -18.6423
       ...           ...                  ...                  ...
       203        2.0000           -0.3980992             -10.8328
       204        2.0000           -0.3966705             -10.7940
       205        2.0000           -0.3965002             -10.7893
       206        2.0000           -0.3909857             -10.6393
       207        2.0000           -0.3905850             -10.6284
       208        2.0000           -0.3755698             -10.2198
       209        2.0000           -0.3750348             -10.2052
       210        1.9480           -0.3590739              -9.7709
       211        1.9363           -0.3588700              -9.7654
       212        1.9123           -0.3585410              -9.7564
       213        1.6803           -0.3570338              -9.7154
       214        1.5232           -0.3564045              -9.6983
       215        0.9996           -0.2690575              -7.3214 (HOMO)
       216        0.0002           -0.2534915              -6.8979 (LUMO)
       217        0.0001           -0.2529311              -6.8826
       218        0.0000           -0.2515552              -6.8452
       219        0.0000           -0.2492744              -6.7831
       220                         -0.2377766              -6.4702
       221                         -0.2368160              -6.4441
       222                         -0.2360481              -6.4232
       223                         -0.2353267              -6.4036
       224                         -0.2348328              -6.3901
       225                         -0.2345237              -6.3817
       226                         -0.2344976              -6.3810
       ...                                ...                  ...
       420                          0.7672852              20.8789
      -------------------------------------------------------------
                  HL-Gap            0.0155660 Eh            0.4236 eV

     #   Z          covCN         q      C6AA      α(0)
     1   8 O        0.857    -0.541    24.723     6.666
     2   6 C        2.831     0.166    24.417     8.097
     3   6 C        2.970    -0.022    28.540     8.763
     4   6 C        2.921    -0.032    28.799     8.800
     5   6 C        2.915    -0.046    29.145     8.853
     6   6 C        2.915     0.045    26.983     8.518
     7   7 N        2.799    -0.021    21.656     6.912
     8   6 C        3.083     0.045    26.899     8.502
     9   6 C        2.910    -0.046    29.141     8.852
    10   6 C        2.922    -0.034    28.854     8.809
    11   6 C        2.919    -0.038    28.944     8.822
    12   6 C        2.914    -0.040    28.989     8.829
    13   6 C        3.057    -0.012    28.268     8.719
    14   6 C        3.050    -0.042    28.988     8.830
    15   6 C        3.060     0.047    26.897     8.505
    16   6 C        3.054    -0.038    28.880     8.813
    17   6 C        3.059    -0.013    28.278     8.721
    18   6 C        2.913    -0.037    28.918     8.818
    19   6 C        2.919    -0.040    28.983     8.828
    20   6 C        2.923    -0.033    28.814     8.803
    21   6 C        2.910    -0.050    29.234     8.866
    22   6 C        3.081     0.047    26.866     8.497
    23   7 N        2.801    -0.035    21.911     6.952
    24   6 C        2.915     0.066    26.522     8.445
    25   6 C        2.921    -0.041    29.013     8.833
    26   6 C        2.920    -0.027    28.673     8.781
    27   6 C        2.919    -0.030    28.751     8.793
    28   6 C        2.919    -0.025    28.634     8.775
    29   6 C        2.922    -0.037    28.926     8.820
    30   6 C        3.064     0.043    26.972     8.516
    31   6 C        3.057    -0.040    28.944     8.823
    32   6 C        3.061    -0.011    28.232     8.713
    33   6 C        2.913    -0.035    28.874     8.811
    34   6 C        2.919    -0.038    28.944     8.822
    35   6 C        2.924    -0.033    28.818     8.803
    36   6 C        2.910    -0.050    29.242     8.867
    37   6 C        3.089     0.047    26.851     8.494
    38   7 N        2.803    -0.035    21.914     6.953
    39   6 C        2.917     0.066    26.523     8.445
    40   6 C        2.922    -0.035    28.883     8.813
    41   6 C        2.920    -0.025    28.627     8.774
    42   6 C        2.919    -0.029    28.730     8.790
    43   6 C        2.920    -0.027    28.669     8.780
    44   6 C        2.921    -0.039    28.978     8.828
    45   6 C        3.067     0.043    26.959     8.514
    46   6 C        2.917    -0.041    29.014     8.833
    47   6 C        2.920    -0.039    28.978     8.828
    48   6 C        2.969    -0.024    28.595     8.771
    49   6 C        2.920    -0.041    29.015     8.833
    50   6 C        2.918    -0.041    29.029     8.835
    51   6 C        2.914     0.044    27.023     8.524
    52   7 N        2.799    -0.020    21.637     6.909
    53   6 C        3.081     0.045    26.904     8.503
    54   6 C        2.910    -0.046    29.134     8.851
    55   6 C        2.923    -0.035    28.865     8.811
    56   6 C        2.919    -0.038    28.937     8.821
    57   6 C        2.914    -0.039    28.958     8.824
    58   6 C        3.060    -0.013    28.269     8.719
    59   6 C        3.049    -0.043    29.010     8.834
    60   6 C        3.058     0.048    26.877     8.502
    61   6 C        3.052    -0.036    28.841     8.808
    62   6 C        3.057    -0.013    28.293     8.723
    63   6 C        2.914    -0.038    28.941     8.822
    64   6 C        2.918    -0.040    28.988     8.829
    65   6 C        2.923    -0.032    28.806     8.802
    66   6 C        2.910    -0.050    29.231     8.865
    67   6 C        3.082     0.047    26.857     8.496
    68   7 N        2.800    -0.036    21.936     6.956
    69   6 C        2.916     0.066    26.524     8.445
    70   6 C        2.921    -0.040    29.000     8.831
    71   6 C        2.920    -0.027    28.672     8.781
    72   6 C        2.919    -0.029    28.736     8.791
    73   6 C        2.920    -0.025    28.628     8.774
    74   6 C        2.922    -0.036    28.898     8.816
    75   6 C        3.063     0.042    26.996     8.520
    76   6 C        3.054    -0.038    28.889     8.815
    77   6 C        3.063    -0.011    28.224     8.712
    78   6 C        2.913    -0.035    28.862     8.810
    79   6 C        2.919    -0.038    28.934     8.821
    80   6 C        2.923    -0.032    28.806     8.802
    81   6 C        2.910    -0.050    29.250     8.868
    82   6 C        3.085     0.048    26.834     8.492
    83   7 N        2.802    -0.036    21.930     6.955
    84   6 C        2.916     0.067    26.508     8.443
    85   6 C        2.921    -0.040    29.001     8.831
    86   6 C        2.920    -0.027    28.665     8.780
    87   6 C        2.919    -0.029    28.736     8.791
    88   6 C        2.919    -0.025    28.623     8.773
    89   6 C        2.922    -0.036    28.895     8.815
    90   6 C        3.069     0.043    26.959     8.514
    91   6 C        2.914    -0.046    29.153     8.854
    92   6 C        2.921    -0.033    28.815     8.803
    93   1 H        0.926     0.025     2.655     2.548
    94   1 H        0.926     0.034     2.527     2.486
    95   1 H        0.926     0.034     2.524     2.485
    96   1 H        0.926     0.033     2.538     2.491
    97   1 H        0.926     0.034     2.532     2.489
    98   1 H        0.926     0.038     2.473     2.459
    99   1 H        0.926     0.035     2.520     2.482
   100   1 H        0.926     0.033     2.543     2.494
   101   1 H        0.926     0.036     2.508     2.476
   102   1 H        0.926     0.037     2.488     2.467
   103   1 H        0.926     0.046     2.367     2.406
   104   1 H        0.926     0.043     2.403     2.424
   105   1 H        0.926     0.042     2.419     2.432
   106   1 H        0.926     0.043     2.415     2.430
   107   1 H        0.926     0.040     2.446     2.446
   108   1 H        0.926     0.028     2.613     2.528
   109   1 H        0.926     0.026     2.644     2.543
   110   1 H        0.926     0.032     2.551     2.498
   111   1 H        0.926     0.037     2.488     2.467
   112   1 H        0.926     0.039     2.457     2.451
   113   1 H        0.926     0.044     2.400     2.423
   114   1 H        0.926     0.045     2.388     2.416
   115   1 H        0.926     0.046     2.369     2.407
   116   1 H        0.926     0.043     2.406     2.426
   117   1 H        0.926     0.032     2.557     2.501
   118   1 H        0.926     0.029     2.601     2.522
   119   1 H        0.926     0.029     2.604     2.523
   120   1 H        0.926     0.030     2.585     2.514
   121   1 H        0.926     0.035     2.515     2.480
   122   1 H        0.926     0.034     2.535     2.490
   123   1 H        0.926     0.034     2.531     2.488
   124   1 H        0.926     0.037     2.491     2.468
   125   1 H        0.926     0.036     2.502     2.474
   126   1 H        0.926     0.033     2.545     2.494
   127   1 H        0.926     0.036     2.509     2.477
   128   1 H        0.926     0.036     2.498     2.472
   129   1 H        0.926     0.046     2.367     2.406
   130   1 H        0.926     0.044     2.396     2.420
   131   1 H        0.926     0.043     2.412     2.429
   132   1 H        0.926     0.042     2.419     2.432
   133   1 H        0.926     0.039     2.463     2.454
   134   1 H        0.926     0.029     2.603     2.523
   135   1 H        0.926     0.025     2.653     2.547
   136   1 H        0.926     0.034     2.534     2.489
   137   1 H        0.926     0.038     2.477     2.461
   138   1 H        0.926     0.045     2.380     2.413
   139   1 H        0.926     0.045     2.389     2.417
   140   1 H        0.926     0.044     2.398     2.422
   141   1 H        0.926     0.044     2.398     2.422
   142   1 H        0.926     0.039     2.464     2.455
   143   1 H        0.926     0.033     2.542     2.493
   144   1 H        0.926     0.025     2.666     2.553

molecular dipole:
                 x           y           z       tot (Debye)
 q only:        0.371       7.948      -0.526
   full:        0.378       7.620      -0.601      19.453

 projected vibrational frequencies (cm⁻¹)
eigval :       -0.00    -0.00    -0.00     0.00     0.00     0.00
eigval :        4.79     7.42    11.48    16.75    19.21    22.37
eigval :       23.22    26.42    27.94    35.28    37.05    48.09
eigval :       50.57    53.88    56.36    56.85    58.43    64.85
eigval :       66.52    71.18    73.09    75.44    80.71    82.74
eigval :       85.19    94.84   103.92   107.96   116.10   118.65
eigval :      123.98   126.92   133.31   138.56   143.11   155.84
eigval :      159.81   165.13   166.79   172.27   179.52   182.99
eigval :      195.00   197.39   204.35   209.74   222.52   223.54
eigval :      225.80   227.76   233.04   240.14   246.56   248.65
eigval :      249.53   256.39   263.75   269.84   277.27   285.83
eigval :      293.79   309.69   321.38   344.10   347.18   348.97
eigval :      356.16   364.45   377.18   377.89   378.39   378.96
eigval :      379.51   380.66   382.27   385.12   388.95   391.79
eigval :      396.10   399.01   402.64   405.70   406.19   410.76
eigval :      413.84   418.84   432.60   439.46   444.39   445.04
eigval :      447.51   452.11   466.07   469.70   472.31   477.70
eigval :      480.22   482.26   533.80   535.86   536.62   540.73
eigval :      541.64   543.06   546.51   550.19   552.40   553.39
eigval :      556.71   561.95   573.79   574.92   580.43   580.75
eigval :      581.09   588.82   590.29   590.60   591.08   591.92
eigval :      602.66   602.98   607.04   608.83   612.25   623.14
eigval :      626.44   628.34   629.78   636.04   646.63   649.91
eigval :      650.77   666.48   668.12   669.61   669.99   671.19
eigval :      673.79   676.01   677.53   691.57   696.63   698.49
eigval :      699.11   699.97   702.88   704.40   724.86   728.02
eigval :      728.15   746.64   750.11   762.86   763.18   764.80
eigval :      766.85   767.25   772.18   772.92   773.58   774.46
eigval :      777.91   779.04   801.97   810.79   839.25   839.82
eigval :      840.53   841.66   848.21   855.54   856.31   857.95
eigval :      865.92   866.12   868.31   868.82   870.57   872.43
eigval :      877.18   878.01   878.36   879.24   889.22   899.44
eigval :      899.55   900.98   901.85   903.01   903.54   906.40
eigval :      906.71   907.11   907.63   908.69   909.84   910.74
eigval :      911.65   915.42   916.11   919.76   921.48   922.65
eigval :      923.52   924.70   925.56   927.79   928.25   928.77
eigval :      929.43   929.54   930.59   931.91   932.58   932.75
eigval :      933.89   933.97   944.74   984.75   984.90   989.98
eigval :      991.76   996.39  1003.24  1012.70  1014.74  1066.56
eigval :     1069.31  1072.16  1073.80  1075.76  1076.16  1077.22
eigval :     1077.69  1079.49  1080.55  1083.59  1083.67  1085.91
eigval :     1086.31  1110.67  1112.16  1113.66  1114.83  1115.37
eigval :     1116.14  1130.47  1131.87  1132.75  1134.72  1139.60
eigval :     1140.56  1156.03  1160.06  1162.34  1167.65  1169.45
eigval :     1172.22  1176.00  1176.59  1178.03  1178.90  1179.38
eigval :     1180.28  1183.74  1184.66  1186.71  1187.31  1189.38
eigval :     1192.23  1196.57  1201.96  1203.84  1204.61  1211.11
eigval :     1215.53  1217.82  1220.11  1224.47  1229.64  1238.94
eigval :     1252.06  1258.09  1260.31  1264.64  1265.54  1266.79
eigval :     1269.54  1272.28  1272.90  1276.05  1276.92  1284.69
eigval :     1288.55  1309.55  1309.87  1311.04  1311.72  1312.82
eigval :     1312.89  1313.80  1314.19  1321.90  1323.34  1326.67
eigval :     1329.20  1330.01  1332.33  1335.06  1337.82  1354.40
eigval :     1355.35  1370.54  1371.05  1374.05  1375.61  1378.77
eigval :     1382.75  1405.63  1408.58  1410.50  1411.24  1411.49
eigval :     1415.14  1418.47  1418.94  1431.95  1432.64  1432.89
eigval :     1433.03  1434.83  1439.15  1439.99  1453.20  1455.25
eigval :     1461.64  1462.79  1465.90  1466.82  1473.42  1473.73
eigval :     1474.87  1476.37  1478.48  1479.26  1480.81  1488.99
eigval :     1507.69  1508.84  1512.75  1516.89  1539.26  1572.00
eigval :     1573.61  1573.89  1574.85  1575.82  1576.63  1578.61
eigval :     1579.40  1579.81  1580.77  1582.00  1583.29  1584.60
eigval :     1585.94  1586.55  1587.43  1588.75  1591.08  1591.37
eigval :     1592.40  1592.60  3069.54  3070.17  3072.68  3073.00
eigval :     3078.21  3078.41  3078.76  3078.86  3079.03  3079.37
eigval :     3079.70  3079.99  3080.03  3080.60  3080.61  3081.29
eigval :     3081.37  3081.98  3082.16  3083.42  3083.53  3085.24
eigval :     3087.19  3087.65  3087.83  3088.24  3089.06  3089.11
eigval :     3089.57  3090.55  3092.38  3092.76  3093.00  3093.68
eigval :     3094.84  3095.47  3096.19  3096.90  3097.60  3098.86
eigval :     3098.96  3099.70  3100.11  3100.37  3101.86  3102.24
eigval :     3118.91  3121.22  3132.07  3138.84  3146.15  3154.77

   temp. (K)  partition function   enthalpy   heat capacity  entropy
                                   cal/mol     cal/K/mol   cal/K/mol   J/K/mol
 298.15  VIB  0.646E+33            42394.075    270.593    263.934
         ROT  0.430E+09              888.752      2.981     42.487
         INT  0.278E+42            43282.827    273.574    306.421
         TR   0.389E+29             1481.254      4.968     47.037
         TOT                       44764.0812   278.5421   353.4579  1478.8677

       T/K    H(0)-H(T)+PV         H(T)/Eh          T*S/Eh         G(T)/Eh
   ------------------------------------------------------------------------
    298.15    0.713361E-01    0.116154E+01    0.167939E+00    0.993599E+00
   ------------------------------------------------------------------------

         :::::::::::::::::::::::::::::::::::::::::::::::::::::
         ::                  THERMODYNAMIC                  ::
         :::::::::::::::::::::::::::::::::::::::::::::::::::::
         :: total free energy        -229.380957273051 Eh   ::
         ::.................................................::
         :: total energy             -230.374555925449 Eh   ::
         :: zero point energy           1.090201780019 Eh   ::
         :: G(RRHO) w/o ZPVE           -0.096603127622 Eh   ::
         :: G(RRHO) contrib.            0.993598652398 Eh   ::
         :::::::::::::::::::::::::::::::::::::::::::::::::::::

           -------------------------------------------------
          | TOTAL ENERGY             -230.374555925449 Eh   |
          | TOTAL ENTHALPY           -229.213018041297 Eh   |
          | TOTAL FREE ENERGY        -229.380957273051 Eh   |
          | GRADIENT NORM               0.000099812778 Eh/α |
          | HOMO-LUMO GAP               0.423573447634 eV   |
           -------------------------------------------------

 * finished run on 2025/09/02 at 10:10:16.964
