   * xtb version 6.7.1 (edcfbbe) compiled by 'albert@albert-system' on 2024-07-22

   ID    Z sym.   atoms
    1    6 C      1, 2, 4-7, 9-13, 15-33
    2    7 N      3, 8, 14, 34
    3    1 H      35-58

          program call               : xtb data2507/toluene/Me-DMAC/Me-DMAC_toluene_S0_crest.xyz --gfn 2 --gbsa toluene --ohess vtight --parallel 40 --molden --ceasefiles --namespace data2507/toluene/Me-DMAC/Me-DMAC_toluene_S0_finalOpt
      * Solvation model:               GBSA
        Solvent                        toluene
        Solvent mass                       9.2140E+01 g/mol
          :  Hamiltonian                  GFN2-xTB          :
 * total energy  :   -88.1827861 Eh     change       -0.1379931E-08 Eh
 * total energy  :   -88.1828187 Eh     change       -0.3262010E-04 Eh
 * total energy  :   -88.1828242 Eh     change       -0.5437649E-05 Eh
 * total energy  :   -88.1828365 Eh     change       -0.1236954E-04 Eh
 * total energy  :   -88.1828486 Eh     change       -0.1203899E-04 Eh
 * total energy  :   -88.1828546 Eh     change       -0.6020770E-05 Eh
 * total energy  :   -88.1828587 Eh     change       -0.4139748E-05 Eh
 * total energy  :   -88.1828585 Eh     change        0.1925607E-06 Eh
 * total energy  :   -88.1828639 Eh     change       -0.5360763E-05 Eh
 * total energy  :   -88.1828653 Eh     change       -0.1424014E-05 Eh
 * total energy  :   -88.1828822 Eh     change       -0.7245799E-06 Eh
 * total energy  :   -88.1828831 Eh     change       -0.9512933E-06 Eh
 * total energy  :   -88.1828842 Eh     change       -0.1039326E-05 Eh
 * total energy  :   -88.1828849 Eh     change       -0.7606767E-06 Eh
 * total energy  :   -88.1828853 Eh     change       -0.3833737E-06 Eh
 * total energy  :   -88.1828855 Eh     change       -0.1808490E-06 Eh
 * total energy  :   -88.1828857 Eh     change       -0.1427721E-06 Eh
 * total energy  :   -88.1828857 Eh     change        0.9024177E-09 Eh
 * total energy  :   -88.1828857 Eh     change       -0.7422869E-07 Eh
   *** GEOMETRY OPTIMIZATION CONVERGED AFTER 45 ITERATIONS ***

 final structure:
================
58
 xtb: 6.7.1 (edcfbbe)
C            6.50527940892721        2.34547901629778        0.48422001433341
C            5.68560044271313        1.12631442831732        0.23419416879938
N            6.33579617304899       -0.00062138780498        0.00152585949722
C            5.68453577155584       -1.12664286756778       -0.23258027393711
C            6.50299057647671       -2.34710461418718       -0.48030464126388
C            4.27644732631376       -1.17168347421896       -0.24522806618034
C            3.62068541174859       -2.40340482286294       -0.45004923605552
N            3.12544552633962       -3.42853284248076       -0.59824151826609
C            3.54828907653381        0.00135410239664       -0.00157759906800
C            2.08022467430263        0.00209872453352       -0.00287941599560
C            1.37583272507926        0.54643779107869        1.06926072734842
C           -0.00435335518949        0.53789359613854        1.07285414447571
C           -0.70358478954515        0.00193912386792       -0.00443931070002
N           -2.12032528358316        0.00130012360985       -0.00490759223303
C           -2.79646979781663        1.20068528323703       -0.19145486371887
C           -2.07501645273719        2.37617533613008       -0.42184208540086
C           -2.71868906655846        3.58276450072871       -0.60191225598286
C           -4.10028905519210        3.63838122508522       -0.56466150770336
C           -4.81667274253885        2.47271784098266       -0.36559700165081
C           -4.19467179879058        1.24446113589287       -0.18354620452488
C           -5.04404101081938        0.00016086842245       -0.00416379340138
C           -5.92619234536117       -0.17647689846173       -1.25457736197795
C           -5.92364035672947        0.17629899099379        1.24813383217808
C           -4.19360267846866       -1.24363495994483        0.17370592570794
C           -4.81459275011972       -2.47246249152947        0.35536093477279
C           -4.09724968936335       -3.63769213943902        0.55350641817517
C           -2.71568587818391       -3.58100422703720        0.59038138564573
C           -2.07301028907806       -2.37380869465151        0.41082337770039
C           -2.79542839719897       -1.19875272701789        0.18122973363861
C           -0.00308294005028       -0.53357716391581       -1.08113663672098
C            1.37709467675694       -0.54198994861768       -1.07598281469873
C            4.27754566553653        1.17337548808254        0.24365920100279
C            3.62302864362921        2.40599202004090        0.44702194287954
N            3.12875479994269        3.43175587576656        0.59398522131963
H            6.29706724883435        2.74452135954825        1.47643766231692
H            6.25981790969776        3.12254839788302       -0.23874909443716
H            7.55917412225413        2.09464120691571        0.40793556992557
H            7.55718895603478       -2.09667392893763       -0.40693339847927
H            6.25870377325518       -3.12130919124774        0.24616397870310
H            6.29231598814103       -2.74978504003519       -1.47049841678018
H            1.91091722879311        0.95238159324677        1.91519889527577
H           -0.54956109949035        0.94970686362318        1.90870039349765
H           -0.99699763745726        2.34497103435480       -0.46454599669407
H           -2.13644147674863        4.47626882674681       -0.77319942244299
H           -4.61658814378429        4.57702582817347       -0.69910010302048
H           -5.89468310447136        2.52683578770373       -0.35505189929025
H           -6.56133179352576       -1.05276089803836       -1.16000215437829
H           -5.29915021671733       -0.30001570742053       -2.13609636917629
H           -6.56308657848520        0.69051972869165       -1.40593680090132
H           -5.29477234625038        0.29977137601428        2.12836563706362
H           -6.55997181333849       -0.69092742092050        1.40061019963280
H           -6.55912035446830        1.05250583299888        1.15507304878004
H           -5.89256686357096       -2.52736484700505        0.34532928982231
H           -4.61276947240157       -4.57681631936206        0.68758005586954
H           -2.13266943564608       -4.47413264794306        0.76101490794812
H           -0.99501097111378       -2.34183658298219        0.45333324551943
H           -0.54730616281166       -0.94539990820987       -1.91761835521866
H            1.91317698459053       -0.94784100706429       -1.92133408973084

          :  Hamiltonian                  GFN2-xTB          :
         :: gradient norm              0.000083110355 Eh/a0 ::
         :: HOMO-LUMO gap              1.312412701538 eV    ::
         :: SCC energy               -89.816984721419 Eh    ::
         :: -> dispersion             -0.077716706190 Eh    ::
         :: -> Gsolv                  -0.039733167584 Eh    ::
         :: repulsion energy           1.634098992439 Eh    ::

    * Orbital Energies and Occupations

         #    Occupation            Energy/Eh            Energy/eV
      -------------------------------------------------------------
         1        2.0000           -0.7025221             -19.1166
       ...           ...                  ...                  ...
        70        2.0000           -0.4398603             -11.9692
        71        2.0000           -0.4371085             -11.8943
        72        2.0000           -0.4295249             -11.6880
        73        2.0000           -0.4288859             -11.6706
        74        2.0000           -0.4277165             -11.6388
        75        2.0000           -0.4194448             -11.4137
        76        2.0000           -0.4084722             -11.1151
        77        2.0000           -0.4072407             -11.0816
        78        2.0000           -0.4037919             -10.9877
        79        2.0000           -0.3985253             -10.8444
        80        2.0000           -0.3978937             -10.8272
        81        2.0000           -0.3925655             -10.6823
        82        2.0000           -0.3479310              -9.4677 (HOMO)
        83                         -0.2997008              -8.1553 (LUMO)
        84                         -0.2982762              -8.1165
        85                         -0.2489340              -6.7738
        86                         -0.2422940              -6.5932
        87                         -0.2271851              -6.1820
        88                         -0.2266218              -6.1667
        89                         -0.2246082              -6.1119
        90                         -0.2231236              -6.0715
        91                         -0.2193041              -5.9676
        92                         -0.2183618              -5.9419
        93                         -0.1904292              -5.1818
       ...                                ...                  ...
       160                          1.1463202              31.1930
      -------------------------------------------------------------
                  HL-Gap            0.0482302 Eh            1.3124 eV

     #   Z          covCN         q      C6AA      α(0)
     1   6 C        3.760    -0.122    22.892     6.821
     2   6 C        2.944     0.118    25.407     8.267
     3   7 N        1.849    -0.239    27.097     7.715
     4   6 C        2.944     0.118    25.407     8.267
     5   6 C        3.760    -0.122    22.892     6.821
     6   6 C        2.973    -0.015    28.382     8.739
     7   6 C        1.909     0.121    28.139     8.567
     8   7 N        0.911    -0.262    26.782     7.485
     9   6 C        2.990     0.037    27.155     8.548
    10   6 C        2.977     0.003    27.943     8.671
    11   6 C        2.923    -0.027    28.680     8.782
    12   6 C        2.921    -0.035    28.876     8.812
    13   6 C        2.927     0.076    26.299     8.410
    14   7 N        2.753    -0.073    22.647     7.068
    15   6 C        2.927     0.058    26.703     8.474
    16   6 C        2.924    -0.059    29.475     8.903
    17   6 C        2.919    -0.034    28.852     8.808
    18   6 C        2.917    -0.045    29.130     8.850
    19   6 C        2.928    -0.037    28.930     8.821
    20   6 C        2.979    -0.013    28.337     8.732
    21   6 C        3.909     0.021    20.164     6.383
    22   6 C        3.761    -0.104    22.529     6.766
    23   6 C        3.761    -0.104    22.529     6.766
    24   6 C        2.979    -0.013    28.337     8.732
    25   6 C        2.928    -0.037    28.930     8.821
    26   6 C        2.917    -0.045    29.130     8.850
    27   6 C        2.919    -0.034    28.852     8.808
    28   6 C        2.924    -0.059    29.475     8.903
    29   6 C        2.927     0.058    26.703     8.474
    30   6 C        2.921    -0.035    28.876     8.812
    31   6 C        2.923    -0.027    28.680     8.782
    32   6 C        2.973    -0.015    28.382     8.739
    33   6 C        1.909     0.121    28.139     8.567
    34   7 N        0.911    -0.262    26.782     7.485
    35   1 H        0.925     0.072     2.065     2.247
    36   1 H        0.925     0.071     2.077     2.254
    37   1 H        0.925     0.080     1.977     2.199
    38   1 H        0.925     0.080     1.977     2.199
    39   1 H        0.925     0.071     2.075     2.253
    40   1 H        0.925     0.072     2.066     2.248
    41   1 H        0.926     0.042     2.416     2.431
    42   1 H        0.926     0.054     2.276     2.359
    43   1 H        0.926     0.022     2.699     2.569
    44   1 H        0.926     0.028     2.617     2.530
    45   1 H        0.926     0.027     2.626     2.534
    46   1 H        0.926     0.034     2.528     2.486
    47   1 H        0.925     0.042     2.416     2.431
    48   1 H        0.925     0.030     2.586     2.515
    49   1 H        0.925     0.042     2.419     2.432
    50   1 H        0.925     0.030     2.586     2.515
    51   1 H        0.925     0.042     2.419     2.432
    52   1 H        0.925     0.042     2.417     2.431
    53   1 H        0.926     0.034     2.528     2.486
    54   1 H        0.926     0.027     2.626     2.534
    55   1 H        0.926     0.028     2.617     2.530
    56   1 H        0.926     0.022     2.699     2.569
    57   1 H        0.926     0.054     2.276     2.359
    58   1 H        0.926     0.042     2.416     2.431

molecular dipole:
                 x           y           z       tot (Debye)
 q only:        0.841      -0.001       0.002
   full:        0.912      -0.001       0.002       2.317

 projected vibrational frequencies (cm⁻¹)
eigval :       -0.00    -0.00    -0.00    -0.00     0.00     0.00
eigval :       11.19    17.63    19.38    35.76    53.80    54.17
eigval :       59.25    63.41    65.28    71.69    95.83    97.19
eigval :      106.86   112.02   119.81   148.15   150.34   182.05
eigval :      184.49   204.64   217.02   219.32   227.64   233.94
eigval :      257.01   276.28   296.58   305.15   330.33   341.93
eigval :      345.07   374.26   379.06   388.59   394.50   399.03
eigval :      406.71   422.42   451.22   473.68   474.51   483.82
eigval :      491.72   508.43   511.34   513.36   546.22   556.36
eigval :      574.80   586.80   591.11   611.92   617.19   620.30
eigval :      631.51   661.59   674.46   681.16   692.12   694.68
eigval :      718.56   737.70   776.26   777.25   808.65   825.49
eigval :      862.04   866.06   867.17   868.22   878.61   910.89
eigval :      912.02   912.57   916.97   920.35   920.87   923.46
eigval :      927.47   939.36   958.08   986.92  1005.64  1012.70
eigval :     1019.36  1019.58  1034.74  1075.78  1085.16  1109.38
eigval :     1113.81  1119.05  1132.29  1139.83  1153.59  1158.67
eigval :     1172.00  1183.98  1186.63  1187.50  1208.12  1243.71
eigval :     1249.80  1262.36  1266.05  1266.59  1269.91  1293.24
eigval :     1305.94  1314.48  1323.28  1332.16  1333.99  1349.81
eigval :     1386.51  1388.86  1392.76  1399.96  1409.49  1412.10
eigval :     1418.56  1434.76  1438.55  1443.91  1447.27  1448.22
eigval :     1454.59  1475.65  1484.04  1486.34  1486.56  1494.33
eigval :     1496.37  1501.76  1503.98  1529.79  1556.11  1573.94
eigval :     1585.65  1590.29  1590.60  1600.37  2351.73  2357.75
eigval :     3006.94  3007.36  3021.65  3021.79  3021.81  3024.28
eigval :     3039.40  3041.34  3047.85  3051.78  3065.61  3066.21
eigval :     3073.64  3073.70  3080.41  3080.50  3080.80  3082.70
eigval :     3090.27  3090.51  3096.15  3097.11  3097.24  3098.76

   temp. (K)  partition function   enthalpy   heat capacity  entropy
                                   cal/mol     cal/K/mol   cal/K/mol   J/K/mol
 298.15  VIB  0.789E+14            17793.028    107.629    112.558
         ROT  0.142E+08              888.752      2.981     35.702
         INT  0.112E+22            18681.780    110.610    148.261
         TR   0.895E+28             1481.254      4.968     44.118
         TOT                       20163.0338   115.5777   192.3785   804.9116

       T/K    H(0)-H(T)+PV         H(T)/Eh          T*S/Eh         G(T)/Eh
   ------------------------------------------------------------------------
    298.15    0.321318E-01    0.481065E+00    0.914052E-01    0.389660E+00
   ------------------------------------------------------------------------

         :::::::::::::::::::::::::::::::::::::::::::::::::::::
         ::                  THERMODYNAMIC                  ::
         :::::::::::::::::::::::::::::::::::::::::::::::::::::
         :: total free energy         -87.793226177030 Eh   ::
         ::.................................................::
         :: total energy              -88.182885731177 Eh   ::
         :: zero point energy           0.448932943516 Eh   ::
         :: G(RRHO) w/o ZPVE           -0.059273389369 Eh   ::
         :: G(RRHO) contrib.            0.389659554147 Eh   ::
         :::::::::::::::::::::::::::::::::::::::::::::::::::::

           -------------------------------------------------
          | TOTAL ENERGY              -88.182885731177 Eh   |
          | TOTAL ENTHALPY            -87.701820948005 Eh   |
          | TOTAL FREE ENERGY         -87.793226177030 Eh   |
          | GRADIENT NORM               0.000083269026 Eh/α |
          | HOMO-LUMO GAP               1.312410813188 eV   |
           -------------------------------------------------

 * finished run on 2025/09/09 at 05:33:25.908
