   * xtb version 6.7.1 (edcfbbe) compiled by 'albert@albert-system' on 2024-07-22

   ID    Z sym.   atoms
    1    6 C      1, 2, 4-7, 9-13, 15-33
    2    7 N      3, 8, 14, 34
    3    1 H      35-58

          program call               : xtb data2507/toluene/Me-DMAC/Me-DMAC.xyz --gfn 2 --gbsa toluene --ohess vtight --parallel 40 --molden --ceasefiles --namespace data2507/toluene/Me-DMAC/Me-DMAC_toluene_S0_preOpt
      * Solvation model:               GBSA
        Solvent                        toluene
        Solvent mass                       9.2140E+01 g/mol
          :  Hamiltonian                  GFN2-xTB          :
 * total energy  :   -88.1633172 Eh     change       -0.1363517E-08 Eh
 * total energy  :   -88.1771160 Eh     change       -0.1379872E-01 Eh
 * total energy  :   -88.1804908 Eh     change       -0.3374881E-02 Eh
 * total energy  :   -88.1809276 Eh     change       -0.4368022E-03 Eh
 * total energy  :   -88.1812044 Eh     change       -0.2767697E-03 Eh
 * total energy  :   -88.1812709 Eh     change       -0.6645608E-04 Eh
 * total energy  :   -88.1812852 Eh     change       -0.1435589E-04 Eh
 * total energy  :   -88.1813200 Eh     change       -0.3479471E-04 Eh
 * total energy  :   -88.1813117 Eh     change        0.8293273E-05 Eh
 * total energy  :   -88.1813279 Eh     change       -0.1612522E-04 Eh
 * total energy  :   -88.1813302 Eh     change       -0.2353369E-05 Eh
 * total energy  :   -88.1813316 Eh     change       -0.1441978E-05 Eh
 * total energy  :   -88.1813318 Eh     change       -0.1243615E-06 Eh
 * total energy  :   -88.1813318 Eh     change       -0.7683971E-07 Eh
   *** GEOMETRY OPTIMIZATION CONVERGED AFTER 14 ITERATIONS ***

 final structure:
================
58
 xtb: 6.7.1 (edcfbbe)
C            6.86561660127875        2.39782646737029       -0.00007146122535
C            6.04983062490841        1.15143101563689       -0.00007767120229
N            6.69888019733223        0.00000203199301       -0.00007857565019
C            6.04984017150808       -1.15143253154899       -0.00001995395868
C            6.86563588883953       -2.39782166892494       -0.00004766644440
C            4.64138728877422       -1.19725109393118        0.00006082716361
C            3.95668762279458       -2.43038645588967        0.00025089160268
N            3.40581836811774       -3.43703212391189        0.00024041757476
C            3.91904485520982       -0.00000900814128       -0.00000198187322
C            2.44054553528927       -0.00001346172031        0.00001373790350
C            1.74380066613537       -0.00010341923334        1.20275883991385
C            0.36194662318784       -0.00009740737096        1.20286762697228
C           -0.33398919630672       -0.00000681858950        0.00006057884487
N           -1.75611574402511       -0.00000261351158        0.00007587178109
C           -2.42782762441329        1.21280940108899        0.00007485698002
C           -1.69937045796377        2.40610970582932        0.00014978037520
C           -2.33925882444124        3.62815388631737        0.00015880361647
C           -3.72159488559876        3.68104510054947        0.00009671421447
C           -4.44345279786443        2.50121844492285        0.00002588755348
C           -3.82615450594267        1.25765872010572        0.00001345139968
C           -4.67604485105086        0.00000894259623       -0.00006355607242
C           -5.55760364079503        0.00002990151761       -1.26325411199861
C           -5.55777958293638       -0.00000499691024        1.26300364009564
C           -3.82616451892718       -1.25764762734558       -0.00002219349556
C           -4.44347288981477       -2.50120240215595       -0.00005472216012
C           -3.72162453858617       -3.68103490811375       -0.00002266193628
C           -2.33928803348928       -3.62815483737277        0.00004679450429
C           -1.69938971965370       -2.40611575978390        0.00008107775704
C           -2.42783718563703       -1.21280943317599        0.00004578413093
C            0.36190778314980        0.00007969313472       -1.20276896077715
C            1.74376219472926        0.00007420509532       -1.20270900956562
C            4.64137708360675        1.19724033620879       -0.00007314826924
C            3.95667221560040        2.43036584075296       -0.00016807181779
N            3.40579751021624        3.43700028689816       -0.00008195633250
H            6.63561076077581        3.00014292304612        0.87818468908515
H            6.63561756471476        3.00016398932896       -0.87831341136430
H            7.92086096523487        2.14130736383727       -0.00006819323788
H            7.92087767287537       -2.14129366773668       -0.00013221698090
H            6.63570308626009       -3.00012985480598        0.87823246038896
H            6.63557431642356       -3.00017157284140       -0.87826543978508
H            2.28449903818099       -0.00017359177421        2.13822195091982
H           -0.18366935864035       -0.00016254222562        2.13443945371886
H           -0.62021723938679        2.37396355386139        0.00020210623131
H           -1.75383283403265        4.53596519127064        0.00021434549061
H           -4.23498668972003        4.63095345310198        0.00010563196888
H           -5.52153566624034        2.55778060685343       -0.00002131326223
H           -6.19350165521985       -0.88041415078475       -1.29194182596112
H           -4.93072991101766        0.00003054986610       -2.15353829780119
H           -6.19348139024354        0.88048904171159       -1.29192664501400
H           -4.93102737936529       -0.00000717558854        2.15337359334584
H           -6.19366701772825       -0.88045933590145        1.29159035247210
H           -6.19367766452905        0.88044127623875        1.29160186810945
H           -5.52155623084555       -2.55775595852569       -0.00010840557784
H           -4.23502409333959       -4.63093909815642       -0.00005197549314
H           -1.75386957161195       -4.53597103443691        0.00007178097662
H           -0.62023616414882       -2.37397817203496        0.00013511571339
H           -0.18374227049273        0.00014643528475       -2.13432111276929
H            2.28442449886490        0.00014435802577       -2.13819339077849

          :  Hamiltonian                  GFN2-xTB          :
         :: gradient norm              0.000047707978 Eh/a0 ::
         :: HOMO-LUMO gap              1.198326748303 eV    ::
         :: SCC energy               -89.817665836849 Eh    ::
         :: -> dispersion             -0.077555929904 Eh    ::
         :: -> Gsolv                  -0.040836520128 Eh    ::
         :: repulsion energy           1.636333988058 Eh    ::

    * Orbital Energies and Occupations

         #    Occupation            Energy/Eh            Energy/eV
      -------------------------------------------------------------
         1        2.0000           -0.7047736             -19.1779
       ...           ...                  ...                  ...
        70        2.0000           -0.4385657             -11.9340
        71        2.0000           -0.4372293             -11.8976
        72        2.0000           -0.4307750             -11.7220
        73        2.0000           -0.4296677             -11.6919
        74        2.0000           -0.4271844             -11.6243
        75        2.0000           -0.4201033             -11.4316
        76        2.0000           -0.4073385             -11.0842
        77        2.0000           -0.4061457             -11.0518
        78        2.0000           -0.4022821             -10.9467
        79        2.0000           -0.3997167             -10.8768
        80        2.0000           -0.3966934             -10.7946
        81        2.0000           -0.3913722             -10.6498
        82        2.0000           -0.3458440              -9.4109 (HOMO)
        83                         -0.3018063              -8.2126 (LUMO)
        84                         -0.2932134              -7.9787
        85                         -0.2503319              -6.8119
        86                         -0.2478834              -6.7453
        87                         -0.2314545              -6.2982
        88                         -0.2285877              -6.2202
        89                         -0.2238906              -6.0924
        90                         -0.2230283              -6.0689
        91                         -0.2179569              -5.9309
        92                         -0.2169896              -5.9046
        93                         -0.1890045              -5.1431
       ...                                ...                  ...
       160                          1.1480136              31.2390
      -------------------------------------------------------------
                  HL-Gap            0.0440377 Eh            1.1983 eV

     #   Z          covCN         q      C6AA      α(0)
     1   6 C        3.760    -0.123    22.901     6.822
     2   6 C        2.941     0.119    25.389     8.264
     3   7 N        1.849    -0.236    27.024     7.704
     4   6 C        2.941     0.119    25.389     8.264
     5   6 C        3.760    -0.123    22.901     6.822
     6   6 C        2.973    -0.013    28.341     8.732
     7   6 C        1.909     0.121    28.138     8.567
     8   7 N        0.911    -0.257    26.678     7.470
     9   6 C        2.995     0.039    27.113     8.541
    10   6 C        2.978     0.005    27.907     8.665
    11   6 C        2.923    -0.029    28.726     8.789
    12   6 C        2.922    -0.034    28.854     8.809
    13   6 C        2.928     0.075    26.319     8.413
    14   7 N        2.754    -0.076    22.725     7.080
    15   6 C        2.928     0.058    26.690     8.472
    16   6 C        2.924    -0.060    29.488     8.905
    17   6 C        2.919    -0.034    28.859     8.809
    18   6 C        2.917    -0.047    29.155     8.854
    19   6 C        2.928    -0.038    28.938     8.822
    20   6 C        2.978    -0.014    28.363     8.736
    21   6 C        3.908     0.021    20.167     6.383
    22   6 C        3.761    -0.103    22.522     6.765
    23   6 C        3.761    -0.103    22.522     6.765
    24   6 C        2.978    -0.014    28.363     8.736
    25   6 C        2.928    -0.038    28.938     8.822
    26   6 C        2.917    -0.047    29.155     8.854
    27   6 C        2.919    -0.034    28.859     8.809
    28   6 C        2.924    -0.060    29.488     8.905
    29   6 C        2.928     0.058    26.690     8.472
    30   6 C        2.922    -0.034    28.854     8.809
    31   6 C        2.923    -0.029    28.726     8.789
    32   6 C        2.973    -0.013    28.341     8.732
    33   6 C        1.909     0.121    28.138     8.567
    34   7 N        0.911    -0.257    26.678     7.470
    35   1 H        0.925     0.073     2.056     2.242
    36   1 H        0.925     0.073     2.056     2.242
    37   1 H        0.925     0.081     1.966     2.193
    38   1 H        0.925     0.081     1.966     2.193
    39   1 H        0.925     0.073     2.056     2.242
    40   1 H        0.925     0.073     2.056     2.242
    41   1 H        0.926     0.042     2.428     2.437
    42   1 H        0.926     0.053     2.282     2.362
    43   1 H        0.926     0.021     2.724     2.581
    44   1 H        0.926     0.027     2.627     2.534
    45   1 H        0.926     0.026     2.642     2.542
    46   1 H        0.926     0.033     2.546     2.495
    47   1 H        0.925     0.042     2.425     2.435
    48   1 H        0.925     0.030     2.593     2.518
    49   1 H        0.925     0.042     2.425     2.435
    50   1 H        0.925     0.030     2.593     2.518
    51   1 H        0.925     0.042     2.425     2.435
    52   1 H        0.925     0.042     2.425     2.435
    53   1 H        0.926     0.033     2.546     2.495
    54   1 H        0.926     0.026     2.642     2.542
    55   1 H        0.926     0.027     2.627     2.534
    56   1 H        0.926     0.021     2.724     2.581
    57   1 H        0.926     0.053     2.282     2.362
    58   1 H        0.926     0.042     2.428     2.437

molecular dipole:
                 x           y           z       tot (Debye)
 q only:        1.281       0.000      -0.000
   full:        1.376       0.000      -0.000       3.498

 projected vibrational frequencies (cm⁻¹)
eigval :       -0.00    -0.00    -0.00    -0.00     0.00     0.00
eigval :      -33.94    -2.00    21.13    23.95    38.84    54.92
eigval :       55.69    56.10    61.53    70.51    93.73    93.95
eigval :       98.79   106.32   126.63   140.87   143.51   187.51
eigval :      188.35   195.58   212.21   220.32   222.14   231.51
eigval :      255.78   268.06   295.97   302.96   329.72   344.00
eigval :      344.38   364.35   376.38   389.61   393.13   399.51
eigval :      403.49   420.38   450.19   474.35   480.66   487.53
eigval :      493.90   507.56   513.52   513.96   546.22   555.86
eigval :      579.15   579.19   591.50   612.86   618.54   621.41
eigval :      632.43   660.09   674.39   680.85   691.92   699.40
eigval :      717.11   737.45   777.63   778.69   806.45   824.92
eigval :      861.93   867.75   868.01   871.80   875.90   911.93
eigval :      912.49   912.65   918.72   921.58   921.60   926.73
eigval :      927.43   939.08   957.06   986.76  1005.91  1010.98
eigval :     1019.89  1021.24  1034.60  1075.64  1085.94  1111.52
eigval :     1112.93  1117.87  1130.84  1138.79  1155.44  1158.51
eigval :     1171.54  1184.17  1185.27  1185.77  1207.00  1243.02
eigval :     1248.28  1262.23  1263.80  1264.23  1267.54  1292.74
eigval :     1299.26  1317.27  1323.53  1333.07  1338.87  1350.78
eigval :     1386.91  1389.57  1397.53  1399.15  1404.44  1415.85
eigval :     1418.32  1435.49  1440.29  1443.46  1447.13  1448.07
eigval :     1455.73  1477.17  1486.33  1486.88  1487.34  1496.28
eigval :     1496.97  1502.09  1511.03  1532.17  1561.92  1573.77
eigval :     1588.75  1590.22  1596.44  1601.64  2357.73  2364.27
eigval :     3006.64  3007.07  3021.20  3021.21  3021.34  3023.76
eigval :     3038.72  3040.33  3047.08  3050.72  3065.87  3066.47
eigval :     3072.29  3072.34  3077.11  3078.63  3078.80  3079.15
eigval :     3088.14  3088.28  3094.71  3094.98  3095.48  3097.06

   temp. (K)  partition function   enthalpy   heat capacity  entropy
                                   cal/mol     cal/K/mol   cal/K/mol   J/K/mol
 298.15  VIB  0.977E+14            17344.777    105.981    110.564
         ROT  0.140E+08              888.752      2.981     35.687
         INT  0.137E+22            18233.529    108.962    146.251
         TR   0.895E+28             1481.254      4.968     44.118
         TOT                       19714.7830   113.9303   190.3692   796.5048

       T/K    H(0)-H(T)+PV         H(T)/Eh          T*S/Eh         G(T)/Eh
   ------------------------------------------------------------------------
    298.15    0.314175E-01    0.480129E+00    0.904506E-01    0.389679E+00
   ------------------------------------------------------------------------

         :::::::::::::::::::::::::::::::::::::::::::::::::::::
         ::                  THERMODYNAMIC                  ::
         :::::::::::::::::::::::::::::::::::::::::::::::::::::
         :: total free energy         -87.791653210526 Eh   ::
         ::.................................................::
         :: total energy              -88.181331848788 Eh   ::
         :: zero point energy           0.448711684630 Eh   ::
         :: G(RRHO) w/o ZPVE           -0.059033046369 Eh   ::
         :: G(RRHO) contrib.            0.389678638262 Eh   ::
         :::::::::::::::::::::::::::::::::::::::::::::::::::::

           -------------------------------------------------
          | TOTAL ENERGY              -88.181331848788 Eh   |
          | TOTAL ENTHALPY            -87.701202657642 Eh   |
          | TOTAL FREE ENERGY         -87.791653210526 Eh   |
          | GRADIENT NORM               0.000047658054 Eh/α |
          | HOMO-LUMO GAP               1.198326780378 eV   |
           -------------------------------------------------

 * finished run on 2025/09/09 at 05:31:35.985
