   * xtb version 6.7.1 (edcfbbe) compiled by 'albert@albert-system' on 2024-07-22

   ID    Z sym.   atoms
    1    6 C      1, 2, 4-7, 9-13, 15-33
    2    7 N      3, 8, 14, 34
    3    1 H      35-58

          program call               : xtb data2507/toluene/Me-DMAC/Me-DMAC_toluene_S0_finalOpt.xtbopt.xyz --gfn 2 --uhf 2 --gbsa toluene --ohess vtight --parallel 40 --molden --ceasefiles --namespace data2507/toluene/Me-DMAC/Me-DMAC_toluene_T1_preOpt
      * Solvation model:               GBSA
        Solvent                        toluene
        Solvent mass                       9.2140E+01 g/mol
          :  Hamiltonian                  GFN2-xTB          :
 * total energy  :   -88.0960648 Eh     change       -0.7599681E-09 Eh
 * total energy  :   -88.0991522 Eh     change       -0.3087447E-02 Eh
 * total energy  :   -88.1000299 Eh     change       -0.8776695E-03 Eh
 * total energy  :   -88.1009348 Eh     change       -0.9049385E-03 Eh
 * total energy  :   -88.1016817 Eh     change       -0.7468079E-03 Eh
 * total energy  :   -88.1025575 Eh     change       -0.8758543E-03 Eh
 * total energy  :   -88.1028648 Eh     change       -0.3072488E-03 Eh
 * total energy  :   -88.1031423 Eh     change       -0.2775908E-03 Eh
 * total energy  :   -88.1034427 Eh     change       -0.3003167E-03 Eh
 * total energy  :   -88.1035978 Eh     change       -0.1551666E-03 Eh
 * total energy  :   -88.1041155 Eh     change       -0.3158836E-05 Eh
 * total energy  :   -88.1041167 Eh     change       -0.1198063E-05 Eh
 * total energy  :   -88.1041178 Eh     change       -0.1101902E-05 Eh
 * total energy  :   -88.1041188 Eh     change       -0.9738573E-06 Eh
 * total energy  :   -88.1041194 Eh     change       -0.6029268E-06 Eh
 * total energy  :   -88.1041198 Eh     change       -0.4160450E-06 Eh
 * total energy  :   -88.1041200 Eh     change       -0.2147351E-06 Eh
 * total energy  :   -88.1041202 Eh     change       -0.1484039E-06 Eh
 * total energy  :   -88.1041202 Eh     change       -0.4534684E-08 Eh
   *** GEOMETRY OPTIMIZATION CONVERGED AFTER 68 ITERATIONS ***

 final structure:
================
58
 xtb: 6.7.1 (edcfbbe)
C            6.52880672448635        2.22181452624878        0.89581058152846
C            5.68844014286020        1.06990026214515        0.43782706642533
N            6.35078679502464        0.00087262275539        0.00126382580997
C            5.68921905224875       -1.06810830864998       -0.43662825873082
C            6.53040363413437       -2.22004186349078       -0.89305315390025
C            4.29750881584904       -1.12223638885507       -0.46160863196862
C            3.72565381100712       -2.34475791264375       -0.82439302886827
N            3.32816348281026       -3.39499725034643       -1.09612872388423
C            3.51704883231913        0.00088729423956       -0.00135428213234
C            2.09750781161474        0.00076779190033       -0.00240884519809
C            1.34667148194357        0.73837704826838        0.95519626312770
C           -0.01919325053219        0.74239051056029        0.95104215007601
C           -0.73475887751037       -0.00028877860528       -0.00411171401444
N           -2.14613315929188       -0.00024657256130       -0.00496941799279
C           -2.81693822493936        1.18220166538815       -0.23773605164523
C           -2.09011201143520        2.34629471223612       -0.54828437293425
C           -2.73021064937422        3.54705214911872       -0.74421072391628
C           -4.11482609012617        3.61527290311045       -0.65400807685942
C           -4.84013259666547        2.46430523596745       -0.40580199151649
C           -4.22368088341636        1.23619091539172       -0.20630764303702
C           -5.06836633744617        0.00094660783945       -0.00404618250116
C           -5.95405360439531       -0.19104090655739       -1.25283685131149
C           -5.95147590509327        0.19383692175273        1.24644425901136
C           -4.22453409923554       -1.23512337964769        0.19678276832823
C           -4.84191604781282       -2.46277642711612        0.39626645132341
C           -4.11743649427230       -3.61448261222434        0.64343793193563
C           -2.73269938384405       -3.54749905287005        0.73262221795085
C           -2.09169544359783       -2.34719123247205        0.53684846807716
C           -2.81771971394836       -1.18231215649692        0.22739837333501
C           -0.01756940953918       -0.74226696767442       -0.95856873340842
C            1.34831185228861       -0.73717105350905       -0.96104397168059
C            4.29668325896647        1.12408537441862        0.46013913433796
C            3.72410896410075        2.34669845046656        0.82155337967204
N            3.32593597879303        3.39687926287547        1.09235878523367
H            6.31981503602044        2.45630585008802        1.93920538624665
H            6.30975745257503        3.11217434928629        0.30702876144182
H            7.57874679430875        1.96436770666830        0.78636942336169
H            7.58015388864219       -1.96215726651757       -0.78282938251562
H            6.31115346934529       -3.11001949669454       -0.30375690316541
H            6.32240311621156       -2.45543007002510       -1.93643874610362
H            1.86900219155393        1.26769404196849        1.73658660098452
H           -0.56222038034363        1.28239429860777        1.71335901147625
H           -1.01762453175210        2.29444735260755       -0.64287877595346
H           -2.15194991560726        4.42842006648579       -0.97443888022364
H           -4.62425089682915        4.55530122345150       -0.79865824604678
H           -5.91583190192897        2.52944618975437       -0.37259137570524
H           -6.58985602242106       -1.06359159410245       -1.14123361985847
H           -5.33041277232448       -0.32787818266336       -2.13402792864566
H           -6.58811044228536        0.67561753939397       -1.41082980319487
H           -5.32601285430194        0.33032769572644        2.12640000842575
H           -6.58587740704210       -0.67232190221858        1.40581894419118
H           -6.58676971283547        1.06690086460828        1.13590647611947
H           -5.91770470721824       -2.52693910784824        0.36398748242369
H           -4.62758845194115       -4.55410712580668        0.78815746829677
H           -2.15503342356750       -4.42948913246888        0.96196657233169
H           -1.01909701438195       -2.29635837374221        0.63070184150248
H           -0.55921181133396       -1.28244832059951       -1.72174209272160
H            1.87200839989898       -1.26574909185415       -1.74202202559469

          :  Hamiltonian                  GFN2-xTB          :
         :: gradient norm              0.000117593662 Eh/a0 ::
         :: HOMO-LUMO gap              0.378152555506 eV    ::
         :: SCC energy               -89.715581116770 Eh    ::
         :: -> dispersion             -0.077294419802 Eh    ::
         :: -> Gsolv                  -0.052442570430 Eh    ::
         :: repulsion energy           1.611460954991 Eh    ::

    * Orbital Energies and Occupations

         #    Occupation            Energy/Eh            Energy/eV
      -------------------------------------------------------------
         1        2.0000           -0.6990185             -19.0213
       ...           ...                  ...                  ...
        71        2.0000           -0.4299677             -11.7000
        72        2.0000           -0.4282599             -11.6535
        73        2.0000           -0.4238696             -11.5341
        74        2.0000           -0.4234327             -11.5222
        75        2.0000           -0.4223486             -11.4927
        76        2.0000           -0.4169307             -11.3453
        77        2.0000           -0.4125137             -11.2251
        78        2.0000           -0.4093304             -11.1384
        79        2.0000           -0.4000204             -10.8851
        80        2.0000           -0.3929909             -10.6938
        81        1.8724           -0.3757815             -10.2255
        82        1.1276           -0.3721289             -10.1261
        83        0.9993           -0.2816393              -7.6638 (HOMO)
        84        0.0007           -0.2677426              -7.2856 (LUMO)
        85                         -0.2543202              -6.9204
        86                         -0.2436976              -6.6313
        87                         -0.2432202              -6.6184
        88                         -0.2275880              -6.1930
        89                         -0.2240247              -6.0960
        90                         -0.2090521              -5.6886
        91                         -0.1998960              -5.4394
        92                         -0.1991018              -5.4178
        93                         -0.1957058              -5.3254
        94                         -0.1300004              -3.5375
       ...                                ...                  ...
       160                          1.1543019              31.4102
      -------------------------------------------------------------
                  HL-Gap            0.0138967 Eh            0.3781 eV

     #   Z          covCN         q      C6AA      α(0)
     1   6 C        3.760    -0.111    22.676     6.789
     2   6 C        2.947     0.105    25.680     8.311
     3   7 N        1.848    -0.277    28.045     7.849
     4   6 C        2.947     0.105    25.680     8.311
     5   6 C        3.760    -0.111    22.676     6.789
     6   6 C        2.965    -0.032    28.807     8.804
     7   6 C        1.918     0.113    28.318     8.594
     8   7 N        0.911    -0.330    28.474     7.718
     9   6 C        2.972    -0.019    28.480     8.754
    10   6 C        2.966    -0.003    28.106     8.696
    11   6 C        2.919    -0.044    29.097     8.846
    12   6 C        2.912    -0.038    28.947     8.822
    13   6 C        2.930     0.027    27.392     8.583
    14   7 N        2.753     0.018    20.933     6.795
    15   6 C        2.930     0.060    26.646     8.465
    16   6 C        2.921    -0.040    28.988     8.829
    17   6 C        2.917    -0.023    28.584     8.767
    18   6 C        2.917    -0.022    28.561     8.764
    19   6 C        2.924    -0.030    28.744     8.792
    20   6 C        2.978     0.007    27.867     8.659
    21   6 C        3.910     0.026    20.073     6.368
    22   6 C        3.761    -0.110    22.655     6.785
    23   6 C        3.761    -0.110    22.655     6.785
    24   6 C        2.978     0.007    27.867     8.659
    25   6 C        2.924    -0.030    28.744     8.792
    26   6 C        2.917    -0.022    28.561     8.764
    27   6 C        2.917    -0.023    28.584     8.767
    28   6 C        2.921    -0.040    28.989     8.829
    29   6 C        2.930     0.060    26.645     8.465
    30   6 C        2.912    -0.038    28.947     8.822
    31   6 C        2.919    -0.044    29.097     8.846
    32   6 C        2.965    -0.032    28.807     8.804
    33   6 C        1.918     0.113    28.318     8.594
    34   7 N        0.911    -0.330    28.474     7.718
    35   1 H        0.925     0.051     2.301     2.372
    36   1 H        0.925     0.052     2.297     2.370
    37   1 H        0.925     0.063     2.160     2.299
    38   1 H        0.925     0.063     2.160     2.299
    39   1 H        0.925     0.052     2.297     2.370
    40   1 H        0.925     0.051     2.302     2.373
    41   1 H        0.926     0.028     2.616     2.529
    42   1 H        0.926     0.039     2.464     2.454
    43   1 H        0.926     0.051     2.306     2.375
    44   1 H        0.926     0.051     2.313     2.378
    45   1 H        0.926     0.055     2.257     2.350
    46   1 H        0.926     0.062     2.180     2.309
    47   1 H        0.925     0.059     2.215     2.327
    48   1 H        0.925     0.041     2.430     2.438
    49   1 H        0.925     0.058     2.220     2.330
    50   1 H        0.925     0.041     2.430     2.438
    51   1 H        0.925     0.058     2.220     2.330
    52   1 H        0.925     0.059     2.215     2.327
    53   1 H        0.926     0.062     2.180     2.309
    54   1 H        0.926     0.055     2.257     2.350
    55   1 H        0.926     0.051     2.313     2.378
    56   1 H        0.926     0.051     2.306     2.375
    57   1 H        0.926     0.039     2.463     2.454
    58   1 H        0.926     0.028     2.616     2.529

molecular dipole:
                 x           y           z       tot (Debye)
 q only:       -6.754      -0.000      -0.002
   full:       -6.462      -0.000      -0.002      16.424

 projected vibrational frequencies (cm⁻¹)
eigval :       -0.00    -0.00     0.00     0.00     0.00     0.00
eigval :       15.43    20.34    23.22    29.55    60.43    65.17
eigval :       68.44    69.00    70.79    72.84   101.21   103.17
eigval :      115.06   134.53   141.32   162.24   164.59   179.45
eigval :      196.88   211.76   211.82   216.38   238.26   243.32
eigval :      262.95   289.80   298.14   303.37   324.57   333.64
eigval :      339.80   374.25   389.18   389.45   392.64   394.77
eigval :      404.31   414.52   444.81   450.65   459.55   460.78
eigval :      478.96   497.74   505.50   511.19   534.16   544.62
eigval :      553.13   575.98   579.70   583.63   603.09   620.57
eigval :      623.60   642.48   647.39   660.92   665.94   691.14
eigval :      706.92   731.34   773.19   775.52   788.82   826.04
eigval :      826.46   856.85   873.70   874.63   881.45   891.48
eigval :      901.23   908.84   909.23   917.63   917.73   928.54
eigval :      928.83   935.11   959.21   972.21   991.51  1003.97
eigval :     1010.91  1013.21  1022.68  1070.05  1080.47  1090.71
eigval :     1104.42  1108.18  1117.96  1135.86  1137.41  1138.69
eigval :     1165.22  1180.80  1181.02  1184.11  1211.87  1216.99
eigval :     1233.52  1236.53  1252.60  1259.86  1269.08  1288.78
eigval :     1292.91  1297.62  1319.86  1326.91  1329.58  1337.45
eigval :     1339.86  1383.29  1390.46  1392.01  1395.60  1400.84
eigval :     1406.14  1413.70  1416.07  1421.86  1445.52  1456.33
eigval :     1456.51  1462.37  1463.26  1463.66  1465.00  1465.13
eigval :     1476.49  1479.60  1487.20  1493.79  1501.64  1536.33
eigval :     1545.87  1562.35  1569.65  1581.73  2257.34  2293.67
eigval :     3000.86  3001.25  3015.14  3015.37  3032.30  3033.86
eigval :     3053.61  3054.32  3055.14  3056.95  3061.32  3065.15
eigval :     3073.18  3075.17  3092.47  3092.57  3099.43  3099.50
eigval :     3100.36  3102.67  3107.91  3108.16  3115.70  3116.03

   temp. (K)  partition function   enthalpy   heat capacity  entropy
                                   cal/mol     cal/K/mol   cal/K/mol   J/K/mol
 298.15  VIB  0.185E+14            17768.880    109.267    110.773
         ROT  0.144E+08              888.752      2.981     35.741
         INT  0.266E+21            18657.632    112.248    146.514
         TR   0.895E+28             1481.254      4.968     44.118
         TOT                       20138.8858   117.2164   190.6318   797.6036

       T/K    H(0)-H(T)+PV         H(T)/Eh          T*S/Eh         G(T)/Eh
   ------------------------------------------------------------------------
    298.15    0.320934E-01    0.478408E+00    0.905753E-01    0.387833E+00
   ------------------------------------------------------------------------

         :::::::::::::::::::::::::::::::::::::::::::::::::::::
         ::                  THERMODYNAMIC                  ::
         :::::::::::::::::::::::::::::::::::::::::::::::::::::
         :: total free energy         -87.716287361746 Eh   ::
         ::.................................................::
         :: total energy              -88.104120163861 Eh   ::
         :: zero point energy           0.446314782055 Eh   ::
         :: G(RRHO) w/o ZPVE           -0.058481979940 Eh   ::
         :: G(RRHO) contrib.            0.387832802115 Eh   ::
         :::::::::::::::::::::::::::::::::::::::::::::::::::::

           -------------------------------------------------
          | TOTAL ENERGY              -88.104120163861 Eh   |
          | TOTAL ENTHALPY            -87.625712024456 Eh   |
          | TOTAL FREE ENERGY         -87.716287361746 Eh   |
          | GRADIENT NORM               0.000118051651 Eh/α |
          | HOMO-LUMO GAP               0.378149424947 eV   |
           -------------------------------------------------

 * finished run on 2025/09/09 at 05:33:31.517
