   * xtb version 6.7.1 (edcfbbe) compiled by 'albert@albert-system' on 2024-07-22

   ID    Z sym.   atoms
    1    6 C      1, 2, 4-7, 9-13, 15-33
    2    7 N      3, 8, 14, 34
    3    1 H      35-58

          program call               : xtb data2507/toluene/Me-DMAC/Me-DMAC_toluene_T1_crest.xyz --gfn 2 --uhf 2 --gbsa toluene --ohess vtight --parallel 40 --molden --ceasefiles --namespace data2507/toluene/Me-DMAC/Me-DMAC_toluene_T1_finalOpt
      * Solvation model:               GBSA
        Solvent                        toluene
        Solvent mass                       9.2140E+01 g/mol
          :  Hamiltonian                  GFN2-xTB          :
 * total energy  :   -88.1039498 Eh     change       -0.1153492E-07 Eh
 * total energy  :   -88.1040954 Eh     change       -0.1455812E-03 Eh
 * total energy  :   -88.1041417 Eh     change       -0.4632055E-04 Eh
 * total energy  :   -88.1041463 Eh     change       -0.4544454E-05 Eh
 * total energy  :   -88.1041432 Eh     change        0.3037119E-05 Eh
 * total energy  :   -88.1041502 Eh     change       -0.6978194E-05 Eh
 * total energy  :   -88.1041514 Eh     change       -0.1252063E-05 Eh
 * total energy  :   -88.1041511 Eh     change        0.3611387E-06 Eh
 * total energy  :   -88.1041526 Eh     change       -0.1551914E-05 Eh
 * total energy  :   -88.1041530 Eh     change       -0.3447124E-06 Eh
 * total energy  :   -88.1041534 Eh     change       -0.4578380E-06 Eh
 * total energy  :   -88.1041537 Eh     change       -0.2975754E-06 Eh
 * total energy  :   -88.1041540 Eh     change       -0.2605587E-06 Eh
 * total energy  :   -88.1041543 Eh     change       -0.3390110E-06 Eh
 * total energy  :   -88.1041546 Eh     change       -0.3037192E-06 Eh
 * total energy  :   -88.1041548 Eh     change       -0.1432187E-06 Eh
 * total energy  :   -88.1041549 Eh     change       -0.7664750E-07 Eh
   *** GEOMETRY OPTIMIZATION CONVERGED AFTER 17 ITERATIONS ***

 final structure:
================
58
 xtb: 6.7.1 (edcfbbe)
C            6.52233109835620        2.26927886774065        0.76360096759303
C            5.68201007868240        1.09203335102788        0.37530357827182
N            6.34430508952734        0.00030483535844       -0.00104350773812
C            5.68214739867051       -1.09132127699765       -0.37786950331018
C            6.52281346399552       -2.26627594321812       -0.77229225855122
C            4.29036782676211       -1.14752629430189       -0.39664627755137
C            3.71846852784256       -2.38878271239973       -0.68883040802911
N            3.32056172400079       -3.45278970129971       -0.89954270019898
C            3.51006162295584       -0.00030177130657        0.00030238483334
C            2.09059857737211       -0.00043056168852        0.00141666751113
C            1.34112624647421        0.79239158946402        0.91514282584281
C           -0.02472093969324        0.79711450370510        0.91235614232596
C           -0.74205587463770        0.00051906361320        0.00287403200480
N           -2.15313389970984        0.00085986535116        0.00264765579454
C           -2.82472297346093        1.16926790619943       -0.29155811791658
C           -2.09870986944711        2.31642186679170       -0.66148514644162
C           -2.73945788009610        3.50533160084070       -0.91830148358599
C           -4.12408054194338        3.57721778265934       -0.83163583664173
C           -4.84867405392548        2.43956647264976       -0.52648389432361
C           -4.23159256139755        1.22353378980864       -0.26423761306722
C           -5.07554487123738       -0.00179410087619       -0.00564476778219
C           -5.95537837412047       -0.25286466567653       -1.24807107361937
C           -5.96511835744659        0.24722827765175        1.23025646408829
C           -4.23094226352183       -1.22526313982104        0.25928976159395
C           -4.84715164647256       -2.44230824423694        0.51879388719065
C           -4.12210115454528       -3.57815759611103        0.82958170167912
C           -2.73816876289967       -3.50333299147013        0.92481472790506
C           -2.09828244831629       -2.31343376918001        0.67053242877661
C           -2.82439922737329       -1.16821512899354        0.29480915932206
C           -0.02607832410069       -0.79708095638901       -0.90687285678999
C            1.33973093541561       -0.79324905267833       -0.91111595786773
C            4.29027539041716        1.14753432933949        0.39547035852913
C            3.71820383426343        2.38894843669674        0.68676396267390
N            3.31991349837084        3.45288268424338        0.89701440975448
H            6.31986867189791        3.11438544377811        0.10605974552871
H            7.57222648506728        1.99894408304324        0.69110179010001
H            6.29681420520818        2.58198520168610        1.78262203232442
H            7.57226222069524       -2.01248315799864       -0.65039268310389
H            6.28331244399182       -3.13246099214031       -0.15629519146432
H            6.33499910876917       -2.53754089830506       -1.81088055260780
H            1.86478626090939        1.36612029543618        1.66359089530989
H           -0.56614582479036        1.38117407200466        1.64264985047052
H           -1.02630284033341        2.26049056249709       -0.75455509773954
H           -2.16162980787710        4.37398559308783       -1.19347943701085
H           -4.63422159668251        4.50815771803614       -1.02452305241220
H           -5.92449120931718        2.50530387511586       -0.49857869568433
H           -6.57940237445656       -1.12932392937317       -1.10499980800024
H           -5.32806562577073       -0.41375994555737       -2.12258614879546
H           -6.60075864629755        0.59857568261555       -1.43940017005541
H           -5.34460080543700        0.40937391556028        2.10938246535798
H           -6.61006604375299       -0.60560837463119        1.41672313647468
H           -6.58998045652130        1.12233491797385        1.08270177393703
H           -5.92261761707425       -2.51039540030029        0.48396058275166
H           -4.63149296768533       -4.50999853205193        1.02007989037256
H           -2.16030754890251       -4.37047111025600        1.20466019016804
H           -1.02658243219814       -2.25502133367856        0.77016676417776
H           -0.56869968517417       -1.38116886149739       -1.63625184909633
H            1.86219949837099       -1.36765564984137       -1.65985675427870

          :  Hamiltonian                  GFN2-xTB          :
         :: gradient norm              0.000046091355 Eh/a0 ::
         :: HOMO-LUMO gap              0.380275202440 eV    ::
         :: SCC energy               -89.715462982591 Eh    ::
         :: -> dispersion             -0.077298160882 Eh    ::
         :: -> Gsolv                  -0.052468825170 Eh    ::
         :: repulsion energy           1.611308122862 Eh    ::

    * Orbital Energies and Occupations

         #    Occupation            Energy/Eh            Energy/eV
      -------------------------------------------------------------
         1        2.0000           -0.6990048             -19.0209
       ...           ...                  ...                  ...
        71        2.0000           -0.4299297             -11.6990
        72        2.0000           -0.4282595             -11.6535
        73        2.0000           -0.4238885             -11.5346
        74        2.0000           -0.4234135             -11.5217
        75        2.0000           -0.4223711             -11.4933
        76        2.0000           -0.4168827             -11.3440
        77        2.0000           -0.4125394             -11.2258
        78        2.0000           -0.4093516             -11.1390
        79        2.0000           -0.4000210             -10.8851
        80        2.0000           -0.3930968             -10.6967
        81        1.8743           -0.3757317             -10.2242
        82        1.1257           -0.3720472             -10.1239
        83        0.9994           -0.2817262              -7.6662 (HOMO)
        84        0.0006           -0.2677516              -7.2859 (LUMO)
        85                         -0.2543200              -6.9204
        86                         -0.2436852              -6.6310
        87                         -0.2432122              -6.6181
        88                         -0.2276147              -6.1937
        89                         -0.2241484              -6.0994
        90                         -0.2089543              -5.6859
        91                         -0.1999080              -5.4398
        92                         -0.1991327              -5.4187
        93                         -0.1957139              -5.3256
        94                         -0.1300329              -3.5384
       ...                                ...                  ...
       160                          1.1542310              31.4082
      -------------------------------------------------------------
                  HL-Gap            0.0139747 Eh            0.3803 eV

     #   Z          covCN         q      C6AA      α(0)
     1   6 C        3.760    -0.111    22.676     6.789
     2   6 C        2.947     0.105    25.679     8.311
     3   7 N        1.848    -0.278    28.052     7.850
     4   6 C        2.947     0.105    25.679     8.311
     5   6 C        3.760    -0.111    22.677     6.789
     6   6 C        2.965    -0.033    28.807     8.804
     7   6 C        1.918     0.113    28.318     8.594
     8   7 N        0.911    -0.330    28.476     7.718
     9   6 C        2.972    -0.019    28.478     8.753
    10   6 C        2.966    -0.003    28.103     8.695
    11   6 C        2.919    -0.044    29.097     8.846
    12   6 C        2.912    -0.038    28.946     8.822
    13   6 C        2.930     0.027    27.391     8.583
    14   7 N        2.753     0.018    20.932     6.795
    15   6 C        2.930     0.060    26.647     8.466
    16   6 C        2.921    -0.040    28.989     8.829
    17   6 C        2.917    -0.023    28.585     8.767
    18   6 C        2.917    -0.022    28.562     8.764
    19   6 C        2.924    -0.030    28.744     8.792
    20   6 C        2.978     0.007    27.867     8.659
    21   6 C        3.910     0.026    20.072     6.368
    22   6 C        3.761    -0.110    22.655     6.785
    23   6 C        3.761    -0.110    22.655     6.785
    24   6 C        2.978     0.007    27.867     8.659
    25   6 C        2.924    -0.030    28.744     8.792
    26   6 C        2.917    -0.022    28.562     8.764
    27   6 C        2.917    -0.023    28.585     8.767
    28   6 C        2.921    -0.040    28.988     8.829
    29   6 C        2.930     0.060    26.647     8.466
    30   6 C        2.912    -0.038    28.946     8.822
    31   6 C        2.919    -0.044    29.097     8.846
    32   6 C        2.965    -0.032    28.807     8.804
    33   6 C        1.918     0.113    28.318     8.594
    34   7 N        0.911    -0.329    28.472     7.717
    35   1 H        0.925     0.052     2.294     2.368
    36   1 H        0.925     0.063     2.160     2.299
    37   1 H        0.925     0.051     2.306     2.375
    38   1 H        0.925     0.063     2.161     2.299
    39   1 H        0.925     0.051     2.302     2.372
    40   1 H        0.925     0.052     2.297     2.370
    41   1 H        0.926     0.028     2.615     2.529
    42   1 H        0.926     0.039     2.461     2.453
    43   1 H        0.926     0.051     2.305     2.374
    44   1 H        0.926     0.051     2.313     2.378
    45   1 H        0.926     0.055     2.258     2.350
    46   1 H        0.926     0.062     2.180     2.309
    47   1 H        0.925     0.059     2.216     2.328
    48   1 H        0.925     0.041     2.430     2.438
    49   1 H        0.925     0.058     2.219     2.329
    50   1 H        0.925     0.041     2.430     2.438
    51   1 H        0.925     0.058     2.219     2.329
    52   1 H        0.925     0.059     2.216     2.328
    53   1 H        0.926     0.062     2.180     2.309
    54   1 H        0.926     0.055     2.258     2.350
    55   1 H        0.926     0.051     2.313     2.378
    56   1 H        0.926     0.051     2.306     2.375
    57   1 H        0.926     0.039     2.462     2.454
    58   1 H        0.926     0.028     2.614     2.528

molecular dipole:
                 x           y           z       tot (Debye)
 q only:       -6.753       0.001      -0.004
   full:       -6.462       0.002      -0.006      16.424

 projected vibrational frequencies (cm⁻¹)
eigval :       -0.00    -0.00    -0.00     0.00     0.00     0.00
eigval :      -49.92    15.73    17.05    21.05    31.54    57.21
eigval :       59.40    68.44    69.52    71.84    91.54   100.47
eigval :      108.78   116.36   142.93   162.32   165.59   175.03
eigval :      179.87   212.46   212.57   216.68   237.05   245.81
eigval :      263.29   290.66   298.90   300.70   324.82   333.90
eigval :      339.50   374.07   389.09   391.65   392.69   394.26
eigval :      405.41   414.59   446.32   449.19   459.55   460.07
eigval :      480.84   497.34   505.82   511.11   532.94   543.79
eigval :      553.11   576.27   580.07   583.56   603.03   620.67
eigval :      623.64   642.85   647.32   661.43   666.04   690.26
eigval :      706.14   731.25   772.58   774.74   791.64   826.15
eigval :      829.32   857.23   873.29   874.02   881.68   895.16
eigval :      903.68   909.31   910.62   917.06   917.35   928.13
eigval :      928.42   934.81   958.82   971.98   992.72  1002.22
eigval :     1010.44  1010.87  1019.84  1069.73  1080.53  1090.80
eigval :     1104.56  1108.63  1118.31  1135.57  1137.45  1141.41
eigval :     1165.56  1181.38  1181.61  1185.89  1212.97  1218.08
eigval :     1233.79  1236.93  1252.86  1262.14  1269.25  1288.70
eigval :     1292.83  1298.07  1320.28  1326.60  1329.15  1336.86
eigval :     1339.72  1383.84  1388.74  1390.72  1395.15  1400.64
eigval :     1406.25  1413.25  1416.08  1421.72  1445.69  1456.66
eigval :     1457.01  1461.93  1462.28  1463.11  1463.68  1464.62
eigval :     1474.99  1477.44  1488.34  1489.53  1501.72  1536.22
eigval :     1545.75  1562.49  1568.94  1581.28  2257.59  2293.77
eigval :     3000.27  3001.13  3014.30  3015.23  3031.75  3033.41
eigval :     3053.51  3054.30  3055.38  3057.33  3061.66  3065.60
eigval :     3073.74  3075.73  3092.45  3092.51  3099.45  3099.50
eigval :     3100.89  3103.20  3108.03  3108.29  3115.67  3116.06

   temp. (K)  partition function   enthalpy   heat capacity  entropy
                                   cal/mol     cal/K/mol   cal/K/mol   J/K/mol
 298.15  VIB  0.985E+13            17345.419    107.356    107.864
         ROT  0.289E+08              888.752      2.981     37.118
         INT  0.284E+21            18234.171    110.337    144.983
         TR   0.895E+28             1481.254      4.968     44.118
         TOT                       19715.4250   115.3054   189.1007   791.1972

       T/K    H(0)-H(T)+PV         H(T)/Eh          T*S/Eh         G(T)/Eh
   ------------------------------------------------------------------------
    298.15    0.314185E-01    0.477429E+00    0.898478E-01    0.387581E+00
   ------------------------------------------------------------------------

         :::::::::::::::::::::::::::::::::::::::::::::::::::::
         ::                  THERMODYNAMIC                  ::
         :::::::::::::::::::::::::::::::::::::::::::::::::::::
         :: total free energy         -87.716573864220 Eh   ::
         ::.................................................::
         :: total energy              -88.104154859144 Eh   ::
         :: zero point energy           0.446010290810 Eh   ::
         :: G(RRHO) w/o ZPVE           -0.058429295886 Eh   ::
         :: G(RRHO) contrib.            0.387580994925 Eh   ::
         :::::::::::::::::::::::::::::::::::::::::::::::::::::

           -------------------------------------------------
          | TOTAL ENERGY              -88.104154859144 Eh   |
          | TOTAL ENTHALPY            -87.626726038642 Eh   |
          | TOTAL FREE ENERGY         -87.716573864220 Eh   |
          | GRADIENT NORM               0.000045596862 Eh/α |
          | HOMO-LUMO GAP               0.380269676142 eV   |
           -------------------------------------------------

 * finished run on 2025/09/09 at 05:35:49.390
