   * xtb version 6.7.1 (edcfbbe) compiled by 'albert@albert-system' on 2024-07-22

   ID    Z sym.   atoms
    1    6 C      1-13, 15-19, 21-25, 27-42, 44-48, 50-65, 67-69
    2    7 N      14, 20, 26, 43, 49, 66
    3    1 H      70-117

          program call               : xtb data2507/gas/MeCZ-TRZ/MeCZ-TRZ_gas_T1_crest.xyz --gfn 2 --spinpol --tblite --uhf 2 --ohess vtight --parallel 40 --molden --ceasefiles --namespace data2507/gas/MeCZ-TRZ/MeCZ-TRZ_gas_T1_finalOpt
 * total energy  :  -177.0340460 Eh     change       -0.1203861E-07 Eh
 * total energy  :  -177.0340738 Eh     change       -0.2780145E-04 Eh
 * total energy  :  -177.0340873 Eh     change       -0.1349158E-04 Eh
 * total energy  :  -177.0340901 Eh     change       -0.2737446E-05 Eh
 * total energy  :  -177.0340977 Eh     change       -0.7594802E-05 Eh
 * total energy  :  -177.0341100 Eh     change       -0.1230541E-04 Eh
 * total energy  :  -177.0341290 Eh     change       -0.1904982E-04 Eh
 * total energy  :  -177.0341249 Eh     change        0.4146670E-05 Eh
 * total energy  :  -177.0341678 Eh     change       -0.4290568E-04 Eh
 * total energy  :  -177.0341953 Eh     change       -0.2749515E-04 Eh
 * total energy  :  -177.0343518 Eh     change        0.1801445E-07 Eh
 * total energy  :  -177.0343520 Eh     change       -0.1740418E-06 Eh
 * total energy  :  -177.0343521 Eh     change       -0.1525264E-06 Eh
 * total energy  :  -177.0343522 Eh     change       -0.2853233E-07 Eh
 * total energy  :  -177.0343523 Eh     change       -0.1801646E-06 Eh
 * total energy  :  -177.0343525 Eh     change       -0.1373232E-06 Eh
 * total energy  :  -177.0343523 Eh     change        0.2093914E-06 Eh
 * total energy  :  -177.0343526 Eh     change       -0.2886723E-06 Eh
 * total energy  :  -177.0343526 Eh     change       -0.5811279E-07 Eh
   *** GEOMETRY OPTIMIZATION CONVERGED AFTER 54 ITERATIONS ***

 final structure:
================
117
 xtb: 6.7.1 (edcfbbe)
C           -6.44113773912339       -9.07256890025784        3.10238790682286
C           -5.53691895738877       -8.30080799498918        2.18887817676267
C           -5.08150825178000       -7.03695836256380        2.58310478498878
C           -4.25324011045520       -6.27330697105709        1.78716302971344
C           -3.88055436031108       -6.79394232998673        0.55459358859284
C           -4.30673543673452       -8.07972133435351        0.14786081492768
C           -5.13964239865059       -8.82543962748029        0.96933463298949
C           -3.69847386444347       -8.31983101620902       -1.13244576178419
C           -3.72933688508950       -9.37695127046308       -2.03030018227354
C           -3.00666149414327       -9.26969141152373       -3.20418079178558
C           -2.26507364124135       -8.12566106572749       -3.49212176040419
C           -2.21929706006034       -7.05813363869679       -2.61608540013896
C           -2.93480387477759       -7.16590406988481       -1.43169223030217
N           -3.06632133946150       -6.25334590021316       -0.41133991683217
C           -2.45867126081482       -4.98286088813758       -0.36887267122670
C           -1.06790016110832       -4.89847913101564       -0.30421024175802
C           -0.44410303250913       -3.67556761373674       -0.25663126393044
C           -1.20619226929340       -2.49732549711160       -0.27124193966619
C           -0.56953201363665       -1.21495487691558       -0.21142001634606
N            0.79776585405331       -1.15576109038826       -0.14516841625578
C            1.35528369345657        0.04061184192861       -0.09633977700708
C            2.81545265644453        0.12156846905290       -0.04655308832982
C            3.58527685774598       -1.03985486827427       -0.03440633964686
C            4.95954365429563       -0.94825682193423       -0.00093126224909
C            5.58304831653845        0.29676352229719        0.02240164292769
N            6.98820863493130        0.35492740332317        0.04770349213383
C            7.79619979081978        0.89096730132669       -0.92933253762255
C            7.44688576964433        1.43080704329510       -2.15905649335590
C            8.46568347409118        1.88924052727761       -2.97208099906513
C            9.80038243274225        1.80442207940681       -2.58144417754088
C           10.15477223820362        1.24031752145556       -1.37115631505554
C            9.14995494509564        0.77260931639667       -0.53553775631248
C            9.14432527135910        0.11889891728587        0.74419320885805
C           10.14253779296819       -0.26599553559934        1.62910476606183
C            9.79385522837194       -0.89047231711600        2.81454471712027
C           10.84195853186675       -1.32506364216469        3.79528559335164
C            8.44440984087553       -1.11834112455999        3.10863294903544
C            7.43129523585775       -0.74458069473828        2.24975777590377
C            7.78961859012736       -0.13027002957563        1.05835876978950
C            4.82409389262885        1.47352564099693        0.04316824965796
C            5.48096535560297        2.81605039867691        0.14640820654101
C            3.44503379265658        1.36254216609157       -0.00147984715815
N            0.66643868295354        1.16575626476842       -0.08610164547253
C           -0.69906604410541        1.07082100150094       -0.15641920535683
C           -1.47876802687520        2.27220474394266       -0.15794994512331
C           -2.88034414607676        2.22013992502984       -0.22159536054285
C           -3.61139095737825        3.38201196603840       -0.22900067100750
C           -2.97391993777224        4.62255264753945       -0.17302661336440
N           -3.75565191267326        5.79477171232920       -0.18715586550902
C           -3.77327187320929        6.74502502400229       -1.18002468653291
C           -3.09279961030363        6.76204284296147       -2.38996182505567
C           -3.29751991299692        7.84233302915148       -3.22671514173017
C           -4.16313999098557        8.87686124592849       -2.87766707098702
C           -4.86297945383784        8.85159335688027       -1.68556407388159
C           -4.67520267808115        7.77786935795391       -0.82745456136776
C           -5.23289332115249        7.40921028797952        0.44528322998773
C           -6.15530593613957        7.99934755719880        1.29716951724672
C           -6.48328301236168        7.36613372146062        2.48546192730781
C           -7.47865922528710        7.96903791773588        3.43073470066209
C           -5.87789734118341        6.14711978849352        2.81422926092103
C           -4.95632975092377        5.53810275606485        1.98817889885189
C           -4.64048668635906        6.17335195714787        0.79443229210344
C           -1.57669005346801        4.70009576402696       -0.07876209846576
C           -0.89089234267637        6.02659719496318        0.05652736026905
C           -0.85314468468839        3.52580999754949       -0.08076927395320
N           -1.29486581498878       -0.10947066280608       -0.22501789716063
C           -2.60302803776619       -2.59736713839236       -0.35738567022048
C           -3.24077671584934       -3.81836208060375       -0.41541724235005
C           -4.73058426752254       -3.90241040510611       -0.56153171264254
H           -6.69222109568249      -10.04029275292984        2.67592026805697
H           -7.36426537851919       -8.52080865772084        3.27817976149710
H           -5.96168003092011       -9.23165870859143        4.06772310198309
H           -5.38821162415064       -6.65438548016291        3.54607106944581
H           -3.89226920157108       -5.31007962186271        2.11558426993450
H           -5.46988716642419       -9.80669519273067        0.66144859135777
H           -4.30729986607521      -10.26303716653741       -1.81467935680085
H           -3.01700314783199      -10.08312623394305       -3.91440246433203
H           -1.71615599920415       -8.07238860782285       -4.42065066464596
H           -1.65013498493066       -6.16852992642025       -2.84054758740011
H           -0.49186143822973       -5.81266750726920       -0.28240893337058
H            0.63023277786664       -3.59967711395999       -0.20133007710210
H            3.09026218284126       -1.99763504080506       -0.05879358383686
H            5.57165859576338       -1.83845660187578       -0.00221218259583
H            6.41531800543966        1.47300028501882       -2.47590062958843
H            8.22324091818892        2.31710503472126       -3.93374511255149
H           10.56770907195712        2.17559786466563       -3.24443759556060
H           11.19121726457890        1.15775600246418       -1.08041669164855
H           11.17944147916797       -0.07749686479721        1.39252444838410
H           11.83768750751902       -1.07914438362359        3.43541501387400
H           10.78764365140329       -2.40102751852669        3.95815768925359
H           10.68958030351186       -0.83608629333155        4.75697693581195
H            8.19295869109946       -1.60174491036841        4.04173149798463
H            6.39474802083680       -0.92135463715058        2.49546018314195
H            4.77569481147762        3.55186738339301        0.52418003858774
H            6.34014201565116        2.77345636641257        0.81397376565218
H            5.83711016947200        3.15314758439499       -0.82692006923491
H            2.82909501087177        2.24902635873821        0.01101874153115
H           -3.36335530023554        1.25723369705124       -0.26997751898160
H           -4.69017745537311        3.35482585197789       -0.28816898116401
H           -2.43969771297214        5.94922425877930       -2.67075093138062
H           -2.77994292487437        7.88419311115529       -4.17377908406521
H           -4.29490898102133        9.70532707762234       -3.55769950534568
H           -5.54579373413000        9.64706854768038       -1.42740773051884
H           -6.61105699417362        8.94296972358648        1.03520964911662
H           -7.85110281446938        8.91735860721680        3.05203638023921
H           -8.32374659652543        7.29592647518986        3.57261654858811
H           -7.02328804004009        8.13862033953454        4.40593518976348
H           -6.14412255932325        5.67326734837714        3.74810256295442
H           -4.49292625182053        4.60075371222085        2.25702078094213
H           -0.83293428222091        6.53726841416457       -0.90467384775183
H            0.11997030702800        5.89172946351929        0.43276302431172
H           -1.43808625586749        6.67399562650582        0.74060870620783
H            0.22350012540144        3.55216099319914       -0.00755615842534
H           -3.17642143934260       -1.68351218542746       -0.39288123107657
H           -5.20318183456452       -4.16082867747732        0.38600788643006
H           -5.00278838766663       -4.66977268444401       -1.28513208986300
H           -5.13074625715770       -2.94791271908443       -0.89349846307102

 projected vibrational frequencies (cm⁻¹)
eigval :       -0.00    -0.00     0.00     0.00     0.00     0.00
eigval :        5.73     7.64     7.75     8.18    12.41    12.58
eigval :       20.49    21.00    32.19    37.80    38.20    40.02
eigval :       42.04    44.09    45.24    48.37    48.61    50.90
eigval :       84.34    86.75    88.49    90.63    92.16    92.65
eigval :       97.80   105.92   107.52   109.11   114.12   120.85
eigval :      128.99   131.27   135.56   145.99   151.49   165.66
eigval :      178.54   181.92   184.60   188.00   195.25   200.71
eigval :      202.00   211.15   218.99   244.71   247.14   250.44
eigval :      256.53   277.93   289.44   295.69   300.15   307.29
eigval :      315.52   320.65   327.29   335.48   339.44   346.98
eigval :      355.51   374.48   381.70   385.28   387.12   394.06
eigval :      396.18   396.68   405.04   407.84   413.29   416.00
eigval :      418.61   421.57   424.32   425.72   428.44   444.69
eigval :      463.85   470.09   474.37   484.04   500.86   503.49
eigval :      506.03   517.94   520.12   521.08   522.98   546.97
eigval :      550.63   556.38   557.57   560.46   561.63   562.37
eigval :      563.74   571.25   576.61   579.77   585.20   597.69
eigval :      604.27   604.97   610.24   621.31   629.75   631.69
eigval :      663.28   664.95   667.24   672.45   673.27   673.28
eigval :      679.44   682.67   691.35   700.65   707.52   708.14
eigval :      708.39   728.20   729.67   733.80   738.74   744.10
eigval :      772.88   774.87   775.97   812.70   812.75   816.39
eigval :      817.91   819.26   834.16   845.28   860.12   861.27
eigval :      862.53   864.33   867.37   869.35   871.94   873.24
eigval :      873.53   874.57   875.06   885.24   897.03   901.35
eigval :      902.91   903.30   907.24   907.77   910.60   912.21
eigval :      912.56   914.47   915.89   919.10   920.47   921.06
eigval :      921.65   922.71   932.54   934.91   936.51   950.69
eigval :      957.69   983.63  1009.31  1009.42  1010.03  1014.29
eigval :     1016.00  1019.72  1029.57  1030.22  1030.93  1031.08
eigval :     1031.11  1032.68  1033.23  1033.80  1034.74  1067.43
eigval :     1067.58  1068.96  1081.91  1092.19  1096.83  1102.06
eigval :     1115.93  1132.19  1135.73  1139.75  1148.69  1148.91
eigval :     1151.40  1154.38  1175.27  1175.54  1176.85  1179.70
eigval :     1181.08  1183.77  1192.72  1194.45  1196.30  1202.72
eigval :     1212.76  1226.74  1229.28  1235.03  1236.16  1240.63
eigval :     1241.90  1245.02  1245.15  1246.86  1255.50  1277.62
eigval :     1285.07  1287.58  1288.44  1304.78  1306.67  1311.77
eigval :     1323.59  1325.94  1328.90  1341.78  1348.99  1351.20
eigval :     1353.50  1353.83  1355.38  1357.55  1359.95  1362.02
eigval :     1371.04  1375.49  1394.94  1405.02  1405.12  1405.57
eigval :     1407.95  1408.48  1408.86  1414.10  1417.96  1419.17
eigval :     1420.95  1424.59  1433.45  1436.87  1438.50  1442.30
eigval :     1467.64  1467.98  1470.95  1472.70  1475.58  1479.12
eigval :     1480.39  1480.52  1481.10  1481.15  1481.37  1482.13
eigval :     1482.21  1483.10  1483.50  1484.62  1485.07  1493.87
eigval :     1498.46  1498.54  1500.50  1524.92  1525.89  1557.50
eigval :     1565.74  1565.98  1568.30  1570.12  1574.71  1583.03
eigval :     1583.18  1585.33  1588.43  1589.17  1589.44  1597.03
eigval :     1607.20  1607.33  1612.50  3000.95  3001.44  3001.86
eigval :     3002.06  3002.67  3003.59  3015.58  3015.66  3015.99
eigval :     3020.18  3020.26  3026.19  3045.24  3045.60  3045.73
eigval :     3045.94  3046.34  3046.61  3075.64  3076.17  3076.49
eigval :     3076.51  3076.66  3076.69  3077.46  3077.91  3079.91
eigval :     3080.16  3080.64  3081.66  3081.98  3083.03  3083.92
eigval :     3087.81  3088.36  3088.43  3088.68  3089.82  3090.76
eigval :     3092.23  3093.49  3095.20  3095.44  3095.49  3096.13
eigval :     3103.96  3105.43  3107.88

   temp. (K)  partition function   enthalpy   heat capacity  entropy
                                   cal/mol     cal/K/mol   cal/K/mol   J/K/mol
 298.15  VIB  0.160E+32            36178.721    216.340    231.922
         ROT  0.467E+09              888.752      2.981     42.648
         INT  0.746E+40            37067.473    219.321    274.570
         TR   0.256E+29             1481.254      4.968     46.210
         TOT                       38548.7271   224.2889   320.7798  1342.1427

       T/K    H(0)-H(T)+PV         H(T)/Eh          T*S/Eh         G(T)/Eh
   ------------------------------------------------------------------------
    298.15    0.614313E-01    0.969798E+00    0.152413E+00    0.817385E+00
   ------------------------------------------------------------------------

         :::::::::::::::::::::::::::::::::::::::::::::::::::::
         ::                  THERMODYNAMIC                  ::
         :::::::::::::::::::::::::::::::::::::::::::::::::::::
         :: total free energy        -176.216967495842 Eh   ::
         ::.................................................::
         :: total energy             -177.034352658018 Eh   ::
         :: zero point energy           0.908366696476 Eh   ::
         :: G(RRHO) w/o ZPVE           -0.090981534300 Eh   ::
         :: G(RRHO) contrib.            0.817385162176 Eh   ::
         :::::::::::::::::::::::::::::::::::::::::::::::::::::

           -------------------------------------------------
          | TOTAL ENERGY             -177.034352658018 Eh   |
          | TOTAL ENTHALPY           -176.064554654573 Eh   |
          | TOTAL FREE ENERGY        -176.216967495842 Eh   |
          | GRADIENT NORM               0.000083489792 Eh/α |
           -------------------------------------------------

 * finished run on 2025/08/25 at 15:36:00.165
