   * xtb version 6.7.1 (edcfbbe) compiled by 'albert@albert-system' on 2024-07-22

   ID    Z sym.   atoms
    1    6 C      1-13, 15-19, 21-25, 27-42, 44-48, 50-65, 67-69
    2    7 N      14, 20, 26, 43, 49, 66
    3    1 H      70-117

          program call               : xtb data2507/gas/MeCZ-TRZ/MeCZ-TRZ_gas_S0_finalOpt.xtbopt.xyz --gfn 2 --spinpol --tblite --uhf 2 --ohess vtight --parallel 40 --molden --ceasefiles --namespace data2507/gas/MeCZ-TRZ/MeCZ-TRZ_gas_T1_preOpt
 * total energy  :  -177.0315872 Eh     change       -0.2738037E-07 Eh
 * total energy  :  -177.0333388 Eh     change       -0.1751577E-02 Eh
 * total energy  :  -177.0339589 Eh     change       -0.6201077E-03 Eh
 * total energy  :  -177.0339856 Eh     change       -0.2672864E-04 Eh
 * total energy  :  -177.0340091 Eh     change       -0.2349026E-04 Eh
 * total energy  :  -177.0340185 Eh     change       -0.9386395E-05 Eh
 * total energy  :  -177.0340403 Eh     change       -0.2178513E-04 Eh
 * total energy  :  -177.0340510 Eh     change       -0.1068106E-04 Eh
 * total energy  :  -177.0340635 Eh     change       -0.1250711E-04 Eh
 * total energy  :  -177.0341176 Eh     change       -0.5407501E-04 Eh
 * total energy  :  -177.0343625 Eh     change       -0.3921033E-06 Eh
 * total energy  :  -177.0343630 Eh     change       -0.4365613E-06 Eh
 * total energy  :  -177.0343632 Eh     change       -0.2758632E-06 Eh
 * total energy  :  -177.0343634 Eh     change       -0.1880594E-06 Eh
 * total energy  :  -177.0343638 Eh     change       -0.3457074E-06 Eh
 * total energy  :  -177.0343642 Eh     change       -0.4099121E-06 Eh
 * total energy  :  -177.0343647 Eh     change       -0.5155922E-06 Eh
 * total energy  :  -177.0343652 Eh     change       -0.5148356E-06 Eh
 * total energy  :  -177.0343652 Eh     change       -0.3327582E-07 Eh
   *** GEOMETRY OPTIMIZATION CONVERGED AFTER 44 ITERATIONS ***

 final structure:
================
117
 xtb: 6.7.1 (edcfbbe)
C           -8.49920680356006       -7.10559660248208        3.11300719443627
C           -7.41042198485812       -6.61195805709830        2.20743735985395
C           -6.67149554534689       -5.48240285692092        2.57742453474433
C           -5.66149297243561       -4.97319154730660        1.78714409416401
C           -5.39639099379158       -5.61387251445171        0.58487006415829
C           -6.10865025556808       -6.77372387979274        0.20569766922136
C           -7.11960536659174       -7.26392447813533        1.02115755572020
C           -5.54157183436651       -7.20817923639821       -1.04122934110720
C           -5.80743963106334       -8.26359814377618       -1.90284315709724
C           -5.05006689324199       -8.38694201580494       -3.05164902525657
C           -4.04321327999490       -7.47161982136056       -3.35190314014605
C           -3.76016788481874       -6.41125627464985       -2.51255265028924
C           -4.51013074538029       -6.29103624901103       -1.35164646701064
N           -4.44548119487353       -5.32762028882492       -0.36935451302195
C           -3.54951035459945       -4.24367887147918       -0.34679645187375
C           -2.18280142744695       -4.49964776802586       -0.26913936654825
C           -1.27920411761631       -3.46017271665580       -0.23698904526304
C           -1.73739082255835       -2.14494024225200       -0.27861322474465
C           -0.79026906275385       -1.03062003867337       -0.23033492347690
N            0.49933567493631       -1.30915406865276       -0.18556133730461
C            1.37363595583740       -0.25547155509463       -0.12614049896076
C            2.78000903166023       -0.52471072997620       -0.07805734065991
C            3.25605643491267       -1.84483413491351       -0.09823442811630
C            4.60727046639960       -2.08912594877208       -0.06526449480076
C            5.51748999286734       -1.03360973780542       -0.00983124198433
N            6.89679279610013       -1.32001999677674        0.01484678035149
C            7.80793853428529       -1.00060234804513       -0.96354095643776
C            7.59852282405762       -0.38484391529783       -2.19003708967912
C            8.69645008827908       -0.18770955160645       -3.00542717877058
C            9.97037531621872       -0.59940941784916       -2.61948092293590
C           10.17965011542287       -1.23702890019679       -1.41068885381182
C            9.09360419967427       -1.44716375308690       -0.57352956703148
C            8.92956128167651       -2.07999167041293        0.70687701855503
C            9.80052223092327       -2.70249510575957        1.58930068858053
C            9.30752284548754       -3.22264964992320        2.77546983165536
C           10.21509265716522       -3.90772295312550        3.75257088771847
C            7.94376441669543       -3.10824074709244        3.07151166105191
C            7.05504276353042       -2.49298359774478        2.21465812349852
C            7.55445678723379       -1.98388320389891        1.02312879168553
C            5.06500882003646        0.29387857288148        0.04393767825306
C            6.03580066879934        1.42818585487115        0.18184203015749
C            3.70665417854562        0.52600473712029        0.00036734525965
N            0.93203590322616        0.99131843357597       -0.10997961047474
C           -0.36854116868634        1.22937540863496       -0.17006288872028
C           -0.85685128051352        2.57600953222408       -0.16366169044866
C           -2.23525910646486        2.83686010335853       -0.20908776498942
C           -2.69047377362880        4.13272992020209       -0.21355240222766
C           -1.79272935102784        5.19942616863239       -0.17373872416572
N           -2.29305460328702        6.51676680636687       -0.18804695524629
C           -2.12036727141030        7.43711788299327       -1.19414256877727
C           -1.47699382192598        7.29097877813358       -2.41562145124996
C           -1.45513465186333        8.38114695021268       -3.26425709485486
C           -2.06398162945674        9.58489225243135       -2.91535095480086
C           -2.72743640790892        9.72738272809069       -1.71078173807641
C           -2.76398495963681        8.64757514819711       -0.84061419657723
C           -3.36252534899615        8.42482199422519        0.44731088976559
C           -4.11274312834887        9.21376192061761        1.30724855611487
C           -4.54716393264466        8.68165447091147        2.51084167089173
C           -5.36279617838114        9.50080086296956        3.46561150235200
C           -4.22037642199886        7.36207463443586        2.84627585700256
C           -3.47485402157521        6.55505166575595        2.01228024701062
C           -3.05129539412062        7.09203800350983        0.80374446699547
C           -0.41117275924888        4.96418484995483       -0.09804533598616
C            0.55284645521897        6.10662087762943        0.01805868988776
C            0.03327495249957        3.65919139131955       -0.10134167368974
N           -1.26967716508749        0.19872514273309       -0.23797490743253
C           -3.10371128673984       -1.89673291426481       -0.37718018491917
C           -4.02516612235475       -2.92876358002836       -0.42359221013586
C           -5.48658773554604       -2.64293103386147       -0.58774364807672
H           -8.96770889655711       -7.99859709238992        2.70746002928523
H           -9.26410728128094       -6.33995830139895        3.24009781983008
H           -8.09823877938355       -7.34044398150401        4.09843993472824
H           -6.89954689127388       -5.00029821126761        3.51731728799037
H           -5.08426512765069       -4.11646749941491        2.10185199039666
H           -7.66787617446086       -8.14877733181787        0.73293094899959
H           -6.59160398254444       -8.97048542057225       -1.67702391631415
H           -5.24040110008802       -9.20262951419059       -3.73325614253980
H           -3.47336523517199       -7.59300848626877       -4.26124967441091
H           -2.98469457354772       -5.69821653699549       -2.74989815694966
H           -1.84549049083016       -5.52504172810015       -0.22508286463188
H           -0.21864794461162       -3.64433842945905       -0.17150662758726
H            2.54452088620285       -2.65370782492274       -0.14757910887061
H            4.98569726938314       -3.10110605706364       -0.09231570653763
H            6.60787484700001       -0.08665484896516       -2.49944503792676
H            8.56455782517755        0.29102878097666       -3.96457297530488
H           10.80386959825000       -0.42531448156762       -3.28366252058644
H           11.16577132514899       -1.56998289580641       -1.12370171582126
H           10.85159079692461       -2.77909241584423        1.35237513459253
H           11.24365133610513       -3.89937115764702        3.40123668969343
H            9.90600792417485       -4.94272950576637        3.89644352375747
H           10.17442027193456       -3.41238517627325        4.72211729749375
H            7.58153318584875       -3.51587344434277        4.00432270527963
H            6.00684945957281       -2.40666296044479        2.45854151194150
H            6.51485652630122        1.65220678351924       -0.77119289506612
H            5.52296201151362        2.32316050655705        0.52461388480706
H            6.82098114589316        1.17717595368358        0.89388635476876
H            3.32726215518768        1.53574986799214        0.04046458235086
H           -2.92076129974146        2.00516365079221       -0.24553541864739
H           -3.74914494113084        4.34564618770395       -0.25827397453055
H           -1.02425941669826        6.35141316016586       -2.69552257042962
H           -0.96002340729523        8.29794295073340       -4.22054193684253
H           -2.02347846030492       10.41486453237119       -3.60503991181145
H           -3.21209662551238       10.65680448707012       -1.45202452359649
H           -4.35341555427267       10.23221597795865        1.03969268245855
H           -6.33232944896975        9.03328368177742        3.63530597101447
H           -4.85889547351588        9.57680046583451        4.42865804169492
H           -5.52485627357457       10.50357200860295        3.07878059488810
H           -4.56482715671098        6.96890458954728        3.79195800031947
H           -3.22533047542266        5.54097907749111        2.28627177416332
H            1.51827179329224        5.75117215648813        0.36879630384412
H            0.17841837385885        6.85555096672788        0.71486281555146
H            0.69734588647325        6.59609092801988       -0.94504205443839
H            1.08972543367992        3.44563971955120       -0.04287252975811
H           -3.43533447653970       -0.87085925103532       -0.43249295257904
H           -6.00445045283585       -2.69049953204566        0.37004567982422
H           -5.94958474225718       -3.37423038185660       -1.24839737900123
H           -5.63086632975730       -1.64911109276008       -1.00372095938984

 projected vibrational frequencies (cm⁻¹)
eigval :       -0.00    -0.00    -0.00     0.00     0.00     0.00
eigval :        5.79     7.43     7.97     8.21    12.41    12.60
eigval :       20.56    20.90    32.11    38.13    38.66    39.38
eigval :       41.92    44.15    45.16    48.02    48.60    50.78
eigval :       83.73    87.36    88.64    91.10    91.68    93.87
eigval :       97.35   105.51   106.12   108.81   113.61   120.72
eigval :      129.73   132.67   134.27   146.30   154.37   161.61
eigval :      179.09   181.78   184.11   187.24   193.64   199.61
eigval :      202.12   205.52   226.19   244.31   247.17   249.53
eigval :      256.32   278.11   290.09   293.34   303.35   309.98
eigval :      314.71   322.11   329.56   334.53   339.88   345.51
eigval :      364.63   370.92   382.61   383.06   387.70   393.69
eigval :      396.77   397.19   404.22   410.23   413.54   417.23
eigval :      418.25   421.90   424.63   426.12   427.77   439.07
eigval :      460.87   468.10   475.57   485.28   501.07   503.69
eigval :      505.80   518.11   519.73   521.76   522.91   548.22
eigval :      551.71   554.00   557.22   560.99   561.16   562.62
eigval :      564.94   573.08   577.65   580.85   583.59   597.90
eigval :      604.04   605.18   611.99   622.91   629.46   630.91
eigval :      664.23   664.57   665.98   672.41   673.24   673.31
eigval :      679.30   682.55   692.38   699.82   707.69   708.10
eigval :      708.26   727.55   730.05   733.54   738.05   750.92
eigval :      773.77   774.83   774.96   812.53   812.72   816.52
eigval :      817.37   818.49   834.06   842.29   860.19   861.16
eigval :      864.11   864.24   869.11   869.94   871.88   871.97
eigval :      873.43   873.67   876.29   885.34   901.94   902.84
eigval :      902.95   906.11   906.58   909.49   911.70   912.09
eigval :      912.87   914.48   915.93   918.15   921.22   921.59
eigval :      921.73   922.39   931.62   934.52   937.55   948.83
eigval :      959.81   987.77  1009.40  1009.43  1009.81  1014.01
eigval :     1016.73  1020.99  1029.97  1030.09  1030.24  1031.07
eigval :     1031.09  1032.62  1033.22  1033.38  1035.35  1067.51
eigval :     1067.61  1068.84  1081.61  1091.98  1096.79  1100.73
eigval :     1117.06  1132.31  1136.44  1139.17  1148.54  1149.05
eigval :     1150.88  1155.70  1175.35  1175.41  1176.54  1179.82
eigval :     1180.49  1183.94  1193.27  1194.21  1196.07  1203.13
eigval :     1212.50  1227.12  1228.54  1235.07  1237.46  1240.05
eigval :     1241.76  1244.36  1244.59  1246.89  1255.20  1274.45
eigval :     1284.54  1285.94  1288.47  1305.57  1307.48  1310.17
eigval :     1323.45  1325.58  1326.99  1341.32  1350.00  1350.75
eigval :     1352.67  1353.39  1355.42  1357.79  1359.62  1362.86
eigval :     1370.71  1375.99  1401.69  1405.05  1405.10  1405.73
eigval :     1407.96  1408.38  1408.92  1415.79  1417.50  1417.94
eigval :     1419.69  1423.84  1433.17  1435.78  1436.05  1440.92
eigval :     1467.13  1467.32  1469.75  1472.81  1475.65  1478.94
eigval :     1479.52  1481.05  1481.15  1481.39  1481.71  1481.72
eigval :     1482.43  1482.54  1483.98  1484.70  1484.87  1493.98
eigval :     1498.21  1498.32  1500.27  1524.68  1525.91  1557.84
eigval :     1565.44  1565.65  1568.30  1570.07  1575.24  1582.97
eigval :     1583.19  1585.06  1588.40  1588.97  1589.21  1596.94
eigval :     1606.53  1608.20  1612.87  3000.95  3001.30  3001.95
eigval :     3001.96  3002.12  3003.69  3015.24  3015.37  3015.44
eigval :     3019.43  3020.01  3026.02  3045.41  3045.45  3045.50
eigval :     3045.68  3046.12  3046.37  3074.31  3075.75  3076.25
eigval :     3076.31  3076.38  3076.56  3077.39  3077.63  3079.76
eigval :     3079.90  3080.03  3081.58  3081.69  3081.73  3083.74
eigval :     3086.19  3087.95  3088.11  3088.35  3090.26  3090.53
eigval :     3092.50  3094.04  3094.72  3094.93  3095.16  3095.55
eigval :     3103.39  3103.85  3107.54

   temp. (K)  partition function   enthalpy   heat capacity  entropy
                                   cal/mol     cal/K/mol   cal/K/mol   J/K/mol
 298.15  VIB  0.160E+32            36174.702    216.288    231.904
         ROT  0.466E+09              888.752      2.981     42.647
         INT  0.746E+40            37063.454    219.269    274.551
         TR   0.256E+29             1481.254      4.968     46.210
         TOT                       38544.7083   224.2374   320.7607  1342.0627

       T/K    H(0)-H(T)+PV         H(T)/Eh          T*S/Eh         G(T)/Eh
   ------------------------------------------------------------------------
    298.15    0.614249E-01    0.969787E+00    0.152404E+00    0.817383E+00
   ------------------------------------------------------------------------

         :::::::::::::::::::::::::::::::::::::::::::::::::::::
         ::                  THERMODYNAMIC                  ::
         :::::::::::::::::::::::::::::::::::::::::::::::::::::
         :: total free energy        -176.216981786915 Eh   ::
         ::.................................................::
         :: total energy             -177.034365152204 Eh   ::
         :: zero point energy           0.908362213995 Eh   ::
         :: G(RRHO) w/o ZPVE           -0.090978848707 Eh   ::
         :: G(RRHO) contrib.            0.817383365288 Eh   ::
         :::::::::::::::::::::::::::::::::::::::::::::::::::::

           -------------------------------------------------
          | TOTAL ENERGY             -177.034365152204 Eh   |
          | TOTAL ENTHALPY           -176.064578035659 Eh   |
          | TOTAL FREE ENERGY        -176.216981786915 Eh   |
          | GRADIENT NORM               0.000199647698 Eh/α |
           -------------------------------------------------

 * finished run on 2025/08/25 at 15:17:11.835
