   * xtb version 6.7.1 (edcfbbe) compiled by 'albert@albert-system' on 2024-07-22

   ID    Z sym.   atoms
    1    6 C      1-13, 15-19, 21-25, 27-42, 44-48, 50-65, 67-69
    2    7 N      14, 20, 26, 43, 49, 66
    3    1 H      70-117

          program call               : xtb data2507/gas/MeCZ-TRZ/MeCZ-TRZ_gas_S0_crest.xyz --gfn 2 --ohess vtight --parallel 40 --molden --ceasefiles --namespace data2507/gas/MeCZ-TRZ/MeCZ-TRZ_gas_S0_finalOpt
          :  Hamiltonian                  GFN2-xTB          :
 * total energy  :  -177.1089335 Eh     change       -0.1841045E-08 Eh
 * total energy  :  -177.1089349 Eh     change       -0.1378949E-05 Eh
 * total energy  :  -177.1089363 Eh     change       -0.1342921E-05 Eh
 * total energy  :  -177.1089381 Eh     change       -0.1849977E-05 Eh
 * total energy  :  -177.1089396 Eh     change       -0.1483366E-05 Eh
 * total energy  :  -177.1089413 Eh     change       -0.1712939E-05 Eh
 * total energy  :  -177.1089434 Eh     change       -0.2057176E-05 Eh
 * total energy  :  -177.1089456 Eh     change       -0.2258235E-05 Eh
 * total energy  :  -177.1089481 Eh     change       -0.2457886E-05 Eh
 * total energy  :  -177.1089506 Eh     change       -0.2544640E-05 Eh
 * total energy  :  -177.1089958 Eh     change       -0.6537582E-06 Eh
 * total energy  :  -177.1089962 Eh     change       -0.3880805E-06 Eh
 * total energy  :  -177.1089964 Eh     change       -0.2535451E-06 Eh
 * total energy  :  -177.1089966 Eh     change       -0.1705359E-06 Eh
 * total energy  :  -177.1089968 Eh     change       -0.1671118E-06 Eh
 * total energy  :  -177.1089970 Eh     change       -0.2276822E-06 Eh
 * total energy  :  -177.1089972 Eh     change       -0.2263382E-06 Eh
 * total energy  :  -177.1089975 Eh     change       -0.2872244E-06 Eh
 * total energy  :  -177.1089975 Eh     change       -0.4221278E-08 Eh
   *** GEOMETRY OPTIMIZATION CONVERGED AFTER 68 ITERATIONS ***

 final structure:
================
117
 xtb: 6.7.1 (edcfbbe)
C           -8.56180081839580       -7.08219046589307        3.07009070707313
C           -7.45562349059134       -6.59421846907945        2.18189641509071
C           -6.72223028117724       -5.46399244101657        2.55964095439057
C           -5.69690935263618       -4.95978009110195        1.78561197914375
C           -5.41133656027852       -5.60507360845272        0.59122156241988
C           -6.11523720005356       -6.76740371094928        0.20687378852798
C           -7.14218624290664       -7.25282563352492        1.00624747374518
C           -5.52294386450393       -7.21308055830601       -1.02354118856840
C           -5.77430269278906       -8.27577139819264       -1.88156392767340
C           -4.99523819796830       -8.41110887903063       -3.01334656705574
C           -3.98117304318562       -7.49973201869007       -3.30159926824261
C           -3.71262289054921       -6.43273828840540       -2.46615164125870
C           -4.48354159739645       -6.30130212267701       -1.32062659939339
N           -4.43919697399544       -5.32668746766120       -0.34645180362800
C           -3.54581436279239       -4.24350868283971       -0.31821631076541
C           -2.17837198634466       -4.49891455381354       -0.24493361474988
C           -1.27402834105142       -3.46019119449041       -0.21043364894677
C           -1.73256250298973       -2.14466932831258       -0.24690766819118
C           -0.78644224295106       -1.03192215412359       -0.20362594062486
N            0.51195869206931       -1.31823503507534       -0.16993117433891
C            1.33770753895166       -0.27620382273185       -0.13940206282937
C            2.77428006001085       -0.54147684984192       -0.09950103793791
C            3.24841432589968       -1.85192906770575       -0.10309689027045
C            4.60560055771535       -2.08631528739409       -0.06927722522412
C            5.50579353197612       -1.02396107708327       -0.03117280284002
N            6.88228541381289       -1.30067806992950        0.00114230249052
C            7.81124571469927       -0.93551831936831       -0.94813479145000
C            7.62041487332780       -0.29216611798002       -2.16250658939012
C            8.73238375861444       -0.06055657162411       -2.94908278812972
C           10.00312260226486       -0.46852672120377       -2.54888156896116
C           10.19309692637903       -1.13898127710650       -1.35688641409748
C            9.09167921407743       -1.38339991799880       -0.54738001696467
C            8.91136553716375       -2.06165761485613        0.70596213387274
C            9.77834516050927       -2.69850279530010        1.58494912872506
C            9.27509981701575       -3.26324788352945        2.74328368165352
C           10.17660236258853       -3.96336585741563        3.71683532174197
C            7.90536289491745       -3.17891321286903        3.01785028731542
C            7.02137384017519       -2.55031538847629        2.16479450780758
C            7.53171281537934       -1.99846304109360        0.99931136261702
C            5.04479119446731        0.29836771473731        0.00374735590806
C            5.99666317752248        1.44825526046027        0.12860540427092
C            3.67823903557362        0.51587862731138       -0.04076762523358
N            0.93635390857795        0.99206985693215       -0.14263640457961
C           -0.37920208514750        1.18625039276876       -0.16893379007740
C           -0.87037348023572        2.56285318642497       -0.16453096569973
C           -2.23967261917281        2.82123500952872       -0.14944914136673
C           -2.68835958360124        4.12383232189912       -0.15409686052732
C           -1.78368785305800        5.18277508036795       -0.17406756957715
N           -2.27651806219086        6.49788836071557       -0.18634431760548
C           -2.08374588945023        7.43092271557749       -1.18125766188671
C           -1.44119798416358        7.29246472177806       -2.40313434212407
C           -1.40682731013268        8.39155832755770       -3.23955988860593
C           -2.00638441849813        9.59693011128012       -2.88035888120647
C           -2.67570660298721        9.72926527043251       -1.67997894458623
C           -2.72417797601369        8.63943570715716       -0.82084444769133
C           -3.34084610617266        8.40777738445821        0.45562290853563
C           -4.09290314370017        9.19912713172838        1.31464837828370
C           -4.54807966450076        8.66304950351367        2.50601012938354
C           -5.36690080750917        9.48251019412199        3.45927086987462
C           -4.23905997850987        7.33787649898395        2.83327688191932
C           -3.49188607647351        6.52952373131678        2.00100796540858
C           -3.05084095789491        7.07015174037227        0.80244246668614
C           -0.40413467630823        4.94050188664409       -0.15600245596636
C            0.57987584754110        6.06809095703114       -0.09199390756308
C            0.02915171824131        3.62553687590149       -0.16064053486091
N           -1.27618814059121        0.20487651810188       -0.19938285244126
C           -3.09925860664852       -1.89579377213827       -0.34134261109494
C           -4.02111437323858       -2.92763079046899       -0.38881631434299
C           -5.48160097432640       -2.63849479783100       -0.55368038944791
H           -9.02690686269720       -7.97380414033842        2.65755711521643
H           -9.32584320264438       -6.31356803176196        3.18348561211765
H           -8.17835974580293       -7.31807879284332        4.06227321532827
H           -6.96628343850282       -4.97714845140679        3.49317923227500
H           -5.12312217812603       -4.10399723117055        2.10937933886996
H           -7.68390762446251       -8.14005102461161        0.71285534873889
H           -6.56495360962111       -8.97833868167454       -1.66491635410234
H           -5.17349221055552       -9.23234505358577       -3.69163412151220
H           -3.39400962632690       -7.62953235422513       -4.19883123021012
H           -2.93193580066977       -5.72286089292363       -2.69637522595060
H           -1.84107558488641       -5.52445492621283       -0.20600683397258
H           -0.21388298521978       -3.64486287307468       -0.14756278163703
H            2.54211313828308       -2.66542649865401       -0.13922421406723
H            4.99082714522845       -3.09549617150053       -0.08117741993600
H            6.63324127298336       -0.00133916231245       -2.49025745891877
H            8.61368909806450        0.44156034132340       -3.89813404869389
H           10.84752533733438       -0.26722388830587       -3.19129189862700
H           11.17536547335863       -1.47420653622187       -1.05955663001629
H           10.83438108849669       -2.74839370114027        1.36351819447672
H           11.20906636702505       -3.93868068039912        3.37784259515036
H            9.87500652809750       -5.00380090503839        3.83431801304988
H           10.12127960167772       -3.48911807991042        4.69621340126217
H            7.53259357594425       -3.62041302301782        3.93104593331269
H            5.96867542441143       -2.48734582597207        2.39759197191065
H            6.41334501838630        1.71962815204605       -0.84110343610555
H            5.48497752705625        2.31739383766531        0.53420264085876
H            6.82817238566138        1.18926210033810        0.78195740638310
H            3.28873199635575        1.52187892572340       -0.01422924960781
H           -2.92966180336360        1.99311329578433       -0.13981588228496
H           -3.74632835779061        4.34231105911591       -0.15251580329893
H           -1.00127197209523        6.35124236841424       -2.69824643822362
H           -0.91039818560374        8.31323229497622       -4.19575748946723
H           -1.95598906861357       10.43365353263479       -3.56121992405452
H           -3.15888780913903       10.65731397919671       -1.41372312289590
H           -4.31630013308161       10.22280894915621        1.05215998526933
H           -6.34322795399085        9.02400472454097        3.61367898411453
H           -4.87311601577950        9.54634875618998        4.42841057083946
H           -5.51425682699807       10.48991532383963        3.07856849167994
H           -4.59793366024717        6.93954398227323        3.77155483839313
H           -3.25591056432387        5.51169150816205        2.27431157287152
H            1.52718268378352        5.71796076442043        0.31015864027249
H            0.20240199367519        6.87182016692445        0.53800541262696
H            0.76313168358704        6.48540479220146       -1.08188448856328
H            1.08496938554830        3.40299781119715       -0.14776920000263
H           -3.43087908245219       -0.87026595599880       -0.39451324376132
H           -5.99844220693323       -2.67058944912201        0.40517352297992
H           -5.94851951163848       -3.37738775708868       -1.20279809032961
H           -5.62266392141903       -1.64992389647017       -0.98325079952949

          :  Hamiltonian                  GFN2-xTB          :
         :: gradient norm              0.000043594977 Eh/a0 ::
         :: HOMO-LUMO gap              1.934320921399 eV    ::
         :: SCC energy              -180.332867375066 Eh    ::
         :: -> dispersion             -0.160981578330 Eh    ::
         :: repulsion energy           3.223869849966 Eh    ::

    * Orbital Energies and Occupations

         #    Occupation            Energy/Eh            Energy/eV
      -------------------------------------------------------------
         1        2.0000           -0.6833554             -18.5950
       ...           ...                  ...                  ...
       153        2.0000           -0.4038610             -10.9896
       154        2.0000           -0.4032553             -10.9731
       155        2.0000           -0.3988989             -10.8546
       156        2.0000           -0.3985301             -10.8446
       157        2.0000           -0.3978876             -10.8271
       158        2.0000           -0.3748182             -10.1993
       159        2.0000           -0.3744497             -10.1893
       160        2.0000           -0.3742934             -10.1850
       161        2.0000           -0.3713230             -10.1042
       162        2.0000           -0.3709586             -10.0943
       163        2.0000           -0.3590337              -9.7698
       164        2.0000           -0.3586553              -9.7595
       165        2.0000           -0.3583764              -9.7519 (HOMO)
       166                         -0.2872914              -7.8176 (LUMO)
       167                         -0.2872261              -7.8158
       168                         -0.2497845              -6.7970
       169                         -0.2417062              -6.5772
       170                         -0.2413710              -6.5680
       171                         -0.2403192              -6.5394
       172                         -0.2320326              -6.3139
       173                         -0.2315939              -6.3020
       174                         -0.2312629              -6.2930
       175                         -0.2177730              -5.9259
       176                         -0.2174076              -5.9160
       ...                                ...                  ...
       324                          0.7476744              20.3453
      -------------------------------------------------------------
                  HL-Gap            0.0710850 Eh            1.9343 eV

     #   Z          covCN         q      C6AA      α(0)
     1   6 C        3.758    -0.107    22.603     6.778
     2   6 C        2.966     0.006    27.874     8.660
     3   6 C        2.930    -0.044    29.086     8.845
     4   6 C        2.908    -0.052    29.289     8.874
     5   6 C        3.081     0.044    26.935     8.508
     6   6 C        3.066    -0.019    28.423     8.742
     7   6 C        2.917    -0.043    29.072     8.842
     8   6 C        3.069    -0.018    28.383     8.736
     9   6 C        2.912    -0.033    28.828     8.804
    10   6 C        2.920    -0.042    29.034     8.836
    11   6 C        2.924    -0.034    28.835     8.806
    12   6 C        2.909    -0.051    29.275     8.872
    13   6 C        3.081     0.046    26.889     8.501
    14   7 N        2.804    -0.043    22.070     6.977
    15   6 C        2.918     0.060    26.663     8.468
    16   6 C        2.921    -0.041    29.027     8.835
    17   6 C        2.923    -0.029    28.716     8.788
    18   6 C        2.983    -0.005    28.133     8.701
    19   6 C        2.983     0.202    23.707     7.987
    20   7 N        1.844    -0.296    28.516     7.914
    21   6 C        2.983     0.202    23.709     7.987
    22   6 C        2.982    -0.005    28.132     8.700
    23   6 C        2.923    -0.029    28.715     8.788
    24   6 C        2.921    -0.041    29.024     8.835
    25   6 C        2.918     0.060    26.663     8.468
    26   7 N        2.804    -0.043    22.072     6.978
    27   6 C        3.079     0.047    26.852     8.495
    28   6 C        2.909    -0.051    29.264     8.870
    29   6 C        2.924    -0.034    28.854     8.809
    30   6 C        2.920    -0.042    29.037     8.837
    31   6 C        2.913    -0.033    28.823     8.804
    32   6 C        3.070    -0.018    28.380     8.735
    33   6 C        3.066    -0.020    28.427     8.743
    34   6 C        2.917    -0.043    29.076     8.842
    35   6 C        2.966     0.007    27.870     8.659
    36   6 C        3.758    -0.107    22.604     6.778
    37   6 C        2.930    -0.043    29.067     8.842
    38   6 C        2.908    -0.052    29.302     8.876
    39   6 C        3.082     0.042    26.973     8.514
    40   6 C        2.965     0.010    27.793     8.647
    41   6 C        3.757    -0.108    22.612     6.780
    42   6 C        2.930    -0.035    28.879     8.813
    43   7 N        1.844    -0.296    28.531     7.916
    44   6 C        2.983     0.202    23.711     7.987
    45   6 C        2.982    -0.005    28.131     8.700
    46   6 C        2.923    -0.029    28.719     8.788
    47   6 C        2.921    -0.041    29.027     8.835
    48   6 C        2.918     0.060    26.665     8.468
    49   7 N        2.804    -0.043    22.073     6.978
    50   6 C        3.080     0.047    26.852     8.495
    51   6 C        2.909    -0.051    29.264     8.870
    52   6 C        2.924    -0.034    28.853     8.809
    53   6 C        2.920    -0.042    29.037     8.837
    54   6 C        2.913    -0.033    28.823     8.804
    55   6 C        3.070    -0.018    28.381     8.735
    56   6 C        3.066    -0.020    28.427     8.743
    57   6 C        2.917    -0.043    29.076     8.842
    58   6 C        2.966     0.007    27.871     8.659
    59   6 C        3.758    -0.107    22.604     6.778
    60   6 C        2.930    -0.043    29.069     8.842
    61   6 C        2.908    -0.052    29.303     8.876
    62   6 C        3.082     0.042    26.974     8.514
    63   6 C        2.965     0.010    27.791     8.647
    64   6 C        3.757    -0.108    22.613     6.780
    65   6 C        2.930    -0.035    28.879     8.813
    66   7 N        1.844    -0.296    28.524     7.915
    67   6 C        2.930    -0.035    28.878     8.813
    68   6 C        2.965     0.010    27.789     8.647
    69   6 C        3.757    -0.108    22.617     6.780
    70   1 H        0.925     0.039     2.461     2.453
    71   1 H        0.925     0.042     2.418     2.432
    72   1 H        0.925     0.042     2.416     2.431
    73   1 H        0.926     0.029     2.604     2.523
    74   1 H        0.926     0.024     2.668     2.554
    75   1 H        0.926     0.030     2.586     2.515
    76   1 H        0.926     0.030     2.589     2.516
    77   1 H        0.926     0.027     2.632     2.537
    78   1 H        0.926     0.028     2.614     2.528
    79   1 H        0.926     0.025     2.657     2.549
    80   1 H        0.926     0.045     2.378     2.411
    81   1 H        0.926     0.059     2.210     2.325
    82   1 H        0.926     0.059     2.208     2.323
    83   1 H        0.926     0.046     2.376     2.410
    84   1 H        0.926     0.024     2.675     2.558
    85   1 H        0.926     0.027     2.627     2.535
    86   1 H        0.926     0.027     2.634     2.538
    87   1 H        0.926     0.030     2.588     2.516
    88   1 H        0.926     0.030     2.586     2.515
    89   1 H        0.925     0.039     2.461     2.453
    90   1 H        0.925     0.043     2.412     2.429
    91   1 H        0.925     0.042     2.417     2.431
    92   1 H        0.926     0.030     2.591     2.517
    93   1 H        0.926     0.025     2.652     2.547
    94   1 H        0.925     0.056     2.247     2.344
    95   1 H        0.925     0.047     2.354     2.399
    96   1 H        0.925     0.048     2.344     2.394
    97   1 H        0.926     0.060     2.204     2.322
    98   1 H        0.926     0.059     2.214     2.327
    99   1 H        0.926     0.045     2.380     2.413
   100   1 H        0.926     0.024     2.676     2.558
   101   1 H        0.926     0.027     2.626     2.534
   102   1 H        0.926     0.027     2.634     2.538
   103   1 H        0.926     0.030     2.588     2.516
   104   1 H        0.926     0.030     2.586     2.515
   105   1 H        0.925     0.043     2.413     2.429
   106   1 H        0.925     0.042     2.417     2.431
   107   1 H        0.925     0.039     2.461     2.453
   108   1 H        0.926     0.030     2.592     2.518
   109   1 H        0.926     0.025     2.653     2.547
   110   1 H        0.925     0.047     2.352     2.398
   111   1 H        0.925     0.048     2.344     2.394
   112   1 H        0.925     0.056     2.247     2.344
   113   1 H        0.926     0.060     2.202     2.320
   114   1 H        0.926     0.060     2.198     2.319
   115   1 H        0.925     0.056     2.246     2.343
   116   1 H        0.925     0.048     2.344     2.394
   117   1 H        0.925     0.048     2.346     2.395

molecular dipole:
                 x           y           z       tot (Debye)
 q only:       -0.101       0.358       0.503
   full:       -0.121       0.311       0.525       1.582

 projected vibrational frequencies (cm⁻¹)
eigval :       -0.00    -0.00    -0.00     0.00     0.00     0.00
eigval :        3.84     5.56     5.74     8.30    12.90    13.07
eigval :       20.55    20.70    31.84    40.38    41.34    41.76
eigval :       43.67    45.18    45.67    49.64    49.92    52.63
eigval :       82.44    83.07    89.33    90.74    91.37    92.43
eigval :       99.03   109.21   109.45   112.05   116.13   124.53
eigval :      132.74   134.90   138.78   149.58   152.09   154.10
eigval :      180.49   183.40   184.42   189.27   199.53   201.66
eigval :      204.79   206.20   216.44   248.01   250.80   252.57
eigval :      262.16   281.70   291.79   296.76   305.15   309.35
eigval :      311.01   324.15   336.53   339.76   346.68   351.33
eigval :      366.61   375.69   384.91   394.67   395.63   397.44
eigval :      400.01   401.54   411.38   415.04   418.25   421.72
eigval :      422.13   427.46   428.59   430.48   441.89   460.64
eigval :      475.00   489.07   490.62   494.22   504.41   507.50
eigval :      507.81   521.12   522.16   523.19   526.17   550.16
eigval :      553.98   558.57   561.40   562.23   562.52   566.08
eigval :      576.12   581.39   584.02   603.04   603.74   606.55
eigval :      616.78   621.72   632.46   657.41   658.10   671.92
eigval :      672.03   672.06   681.27   681.86   685.52   698.23
eigval :      707.08   707.11   707.44   710.76   710.84   734.10
eigval :      734.18   735.03   768.19   769.71   774.32   776.72
eigval :      776.79   782.80   812.48   812.56   816.59   838.02
eigval :      838.72   839.66   859.76   863.64   864.16   869.66
eigval :      870.82   874.17   874.26   876.18   876.39   877.71
eigval :      885.62   889.08   891.28   901.89   903.28   903.31
eigval :      910.37   910.46   914.25   914.97   916.89   920.25
eigval :      921.84   922.46   922.73   923.26   923.80   925.15
eigval :      934.90   936.54   938.89   971.92   975.58  1010.13
eigval :     1010.24  1010.27  1013.06  1017.94  1020.98  1030.48
eigval :     1031.19  1031.43  1033.75  1033.77  1033.83  1034.24
eigval :     1034.28  1035.87  1049.76  1069.68  1069.70  1069.81
eigval :     1094.93  1095.68  1096.02  1104.22  1131.62  1132.68
eigval :     1140.80  1152.52  1153.00  1153.77  1156.20  1160.13
eigval :     1177.32  1177.50  1177.57  1183.00  1184.15  1185.17
eigval :     1195.81  1196.59  1197.01  1208.38  1216.61  1227.18
eigval :     1227.45  1236.66  1237.58  1241.15  1244.98  1246.30
eigval :     1246.74  1249.60  1255.45  1260.19  1288.79  1289.43
eigval :     1290.56  1314.17  1316.01  1316.27  1325.24  1326.90
eigval :     1328.54  1347.32  1351.14  1352.91  1357.66  1359.52
eigval :     1362.93  1363.69  1364.24  1364.34  1379.75  1383.34
eigval :     1393.01  1406.18  1406.20  1406.24  1408.46  1408.62
eigval :     1409.28  1419.60  1422.35  1422.61  1423.21  1424.09
eigval :     1429.90  1434.84  1438.61  1440.60  1473.95  1474.96
eigval :     1474.97  1478.06  1478.18  1478.32  1480.96  1481.65
eigval :     1481.78  1483.54  1483.58  1483.71  1484.20  1484.53
eigval :     1484.70  1490.79  1492.03  1495.45  1502.04  1502.23
eigval :     1502.26  1510.69  1512.82  1562.53  1564.84  1567.69
eigval :     1573.56  1573.76  1574.01  1587.76  1587.96  1588.02
eigval :     1591.82  1591.98  1593.39  1603.29  1603.34  1603.53
eigval :     1619.83  1619.88  1620.01  3002.10  3002.45  3002.48
eigval :     3004.85  3005.01  3005.25  3015.27  3015.46  3015.48
eigval :     3028.38  3028.55  3028.64  3045.10  3045.14  3045.22
eigval :     3045.27  3045.52  3045.67  3072.57  3073.66  3073.71
eigval :     3074.30  3074.47  3075.05  3078.65  3078.72  3079.13
eigval :     3080.61  3080.65  3080.91  3085.03  3085.25  3085.43
eigval :     3085.66  3086.35  3086.44  3086.96  3087.15  3087.43
eigval :     3094.63  3094.69  3094.92  3101.23  3102.07  3103.38
eigval :     3113.84  3114.60  3115.83

   temp. (K)  partition function   enthalpy   heat capacity  entropy
                                   cal/mol     cal/K/mol   cal/K/mol   J/K/mol
 298.15  VIB  0.183E+32            35696.893    213.239    230.269
         ROT  0.464E+09              888.752      2.981     42.638
         INT  0.851E+40            36585.646    216.220    272.907
         TR   0.256E+29             1481.254      4.968     46.210
         TOT                       38066.8996   221.1883   319.1174  1335.1873

       T/K    H(0)-H(T)+PV         H(T)/Eh          T*S/Eh         G(T)/Eh
   ------------------------------------------------------------------------
    298.15    0.606635E-01    0.976087E+00    0.151623E+00    0.824464E+00
   ------------------------------------------------------------------------

         :::::::::::::::::::::::::::::::::::::::::::::::::::::
         ::                  THERMODYNAMIC                  ::
         :::::::::::::::::::::::::::::::::::::::::::::::::::::
         :: total free energy        -176.284533524953 Eh   ::
         ::.................................................::
         :: total energy             -177.108997525099 Eh   ::
         :: zero point energy           0.915423521433 Eh   ::
         :: G(RRHO) w/o ZPVE           -0.090959521287 Eh   ::
         :: G(RRHO) contrib.            0.824464000146 Eh   ::
         :::::::::::::::::::::::::::::::::::::::::::::::::::::

           -------------------------------------------------
          | TOTAL ENERGY             -177.108997525099 Eh   |
          | TOTAL ENTHALPY           -176.132910537708 Eh   |
          | TOTAL FREE ENERGY        -176.284533524953 Eh   |
          | GRADIENT NORM               0.000043595661 Eh/α |
          | HOMO-LUMO GAP               1.934320307424 eV   |
           -------------------------------------------------

 * finished run on 2025/08/25 at 15:16:31.847
