   * xtb version 6.7.1 (edcfbbe) compiled by 'albert@albert-system' on 2024-07-22

   ID    Z sym.   atoms
    1    6 C      1-13, 15-19, 21-25, 27-42, 44-48, 50-65, 67-69
    2    7 N      14, 20, 26, 43, 49, 66
    3    1 H      70-117

          program call               : xtb data2507/gas/MeCZ-TRZ/MeCZ-TRZ.xyz --gfn 2 --ohess vtight --parallel 40 --molden --ceasefiles --namespace data2507/gas/MeCZ-TRZ/MeCZ-TRZ_gas_S0_preOpt
          :  Hamiltonian                  GFN2-xTB          :
 * total energy  :  -177.0800796 Eh     change       -0.2908337E-08 Eh
 * total energy  :  -177.1004163 Eh     change       -0.2033667E-01 Eh
 * total energy  :  -177.1053093 Eh     change       -0.4893090E-02 Eh
 * total energy  :  -177.1065242 Eh     change       -0.1214817E-02 Eh
 * total energy  :  -177.1074901 Eh     change       -0.9658936E-03 Eh
 * total energy  :  -177.1079421 Eh     change       -0.4520360E-03 Eh
 * total energy  :  -177.1082068 Eh     change       -0.2647470E-03 Eh
 * total energy  :  -177.1083572 Eh     change       -0.1503111E-03 Eh
 * total energy  :  -177.1084213 Eh     change       -0.6415746E-04 Eh
 * total energy  :  -177.1084540 Eh     change       -0.3270893E-04 Eh
 * total energy  :  -177.1089764 Eh     change       -0.1295664E-05 Eh
 * total energy  :  -177.1089784 Eh     change       -0.2006982E-05 Eh
 * total energy  :  -177.1089801 Eh     change       -0.1713577E-05 Eh
 * total energy  :  -177.1089814 Eh     change       -0.1322729E-05 Eh
 * total energy  :  -177.1089820 Eh     change       -0.5948491E-06 Eh
 * total energy  :  -177.1089827 Eh     change       -0.6536149E-06 Eh
 * total energy  :  -177.1089829 Eh     change       -0.1956952E-06 Eh
 * total energy  :  -177.1089830 Eh     change       -0.1874247E-06 Eh
 * total energy  :  -177.1089831 Eh     change       -0.1272699E-07 Eh
   *** GEOMETRY OPTIMIZATION CONVERGED AFTER 72 ITERATIONS ***

 final structure:
================
117
 xtb: 6.7.1 (edcfbbe)
C           -4.37182898145355      -10.25192113239213        2.80748843260271
C           -3.66125382139141       -9.28958119574772        1.90214235950804
C           -3.45691615870535       -7.97232930886752        2.32766322369773
C           -2.81571481693157       -7.03634155012982        1.54185599187953
C           -2.37943393798102       -7.43579207506192        0.28698731882658
C           -2.54620474689569       -8.76821315397263       -0.15021052575823
C           -3.19468441949483       -9.68920651443120        0.66247561167989
C           -1.92457825715556       -8.85288031828135       -1.44237372721050
C           -1.76749685438150       -9.87609051064357       -2.36814366811686
C           -1.10279652437447       -9.60512429726893       -3.54752042934538
C           -0.60370101654085       -8.33191399157030       -3.81566357120696
C           -0.74886911344692       -7.29630281228396       -2.91289251951907
C           -1.40425364082689       -7.56773530067145       -1.72098855620403
N           -1.70113008355169       -6.71887068648295       -0.67610950452232
C           -1.35516026811948       -5.35918080128276       -0.60741167292325
C           -0.00821248422449       -5.00456788588988       -0.61394107308806
C            0.36626902257968       -3.68078750001072       -0.53942678395274
C           -0.61104761197771       -2.69062470072354       -0.45832632578036
C           -0.22886854625118       -1.28282232385346       -0.37008325167658
N            1.06784623269809       -0.99124901022747       -0.32098495072699
C            1.37195824077041        0.30063836755835       -0.23607607857661
C            2.78488912799338        0.66865489328570       -0.17313832267368
C            3.77026943197610       -0.31645343786690       -0.20171131207658
C            5.09854630285072        0.04555057572630       -0.15121537058233
C            5.46296543031339        1.38761517751399       -0.07025949889906
N            6.82668843414735        1.72009520793700       -0.02710657093600
C            7.51163148049667        2.47461666102888       -0.95412276825620
C            7.06346042073939        3.01653682165202       -2.15015921998959
C            7.97115657538665        3.72200263708492       -2.91647813620189
C            9.29627340061736        3.87652586755199       -2.51457006745154
C            9.75517172740482        3.31009007630192       -1.34196789362518
C            8.86256284178706        2.59641951303467       -0.55325153964895
C            8.98983102376781        1.86316679750356        0.67537186063000
C           10.04822550743541        1.62130963518174        1.54198803150157
C            9.83519173148391        0.85673916654944        2.67512204054241
C           10.95298188969442        0.56586261334695        3.63248286201343
C            8.55878375593205        0.34630233409171        2.93754832999335
C            7.48849408665582        0.57276760036237        2.09637145973686
C            7.71355518107261        1.32803760356148        0.95519518405669
C            4.48425198762114        2.38783341882884       -0.00630488499314
C            4.85779240566511        3.82801613984082        0.16791659276151
C            3.15464975336821        2.00699998729412       -0.06960737162255
N            0.46934116224253        1.27737450685874       -0.20657449933991
C           -0.80351359170723        0.89571144733942       -0.26471368341502
C           -1.83268332772942        1.93328257104376       -0.24419815661029
C           -3.17935096547233        1.59118727278140       -0.35176842549428
C           -4.13745652176833        2.58109782321338       -0.34672105287073
C           -3.77004993382582        3.91991938947004       -0.23217031059911
N           -4.77266423086645        4.90310207628587       -0.24036857302981
C           -4.91772408390099        5.91060575808949       -1.16879295698454
C           -4.18351636740114        6.15715411077743       -2.31995888011723
C           -4.55426821369548        7.23523355211191       -3.10042099078306
C           -5.63589803034915        8.04337312305163       -2.75645297030313
C           -6.39063787925620        7.78123286413034       -1.63036310758840
C           -6.03833104890843        6.70365394743765       -0.82857064512078
C           -6.59738153694031        6.12776324705321        0.36273300653541
C           -7.68158636266758        6.45435884167020        1.16739476368861
C           -7.95916669331555        5.67815460969815        2.27844193947040
C           -9.12555871987435        5.99184175654982        3.16826875139298
C           -7.14171372330717        4.58337156427185        2.58141321189284
C           -6.05665910813503        4.23726798823094        1.80211216745939
C           -5.79364718469287        5.01168736595921        0.68208614868176
C           -2.42357215268289        4.27791225878782       -0.08637127181852
C           -2.01909987025435        5.70444455100281        0.12676969047434
C           -1.47321136504186        3.27126428916872       -0.10618544036268
N           -1.19797945521148       -0.37202026101284       -0.34295174274472
C           -1.95621482088209       -3.04979955545858       -0.47536440822006
C           -2.35020802999121       -4.37448266194602       -0.55780062418059
C           -3.80165259055108       -4.73684397644589       -0.63271711068287
H           -4.42629017668145      -11.24026066451527        2.35829293546910
H           -5.38567779908595       -9.90681816056286        3.00906361874864
H           -3.85262889396220      -10.33233420812318        3.76197305783832
H           -3.80864116984851       -7.68505554538403        3.30841039158536
H           -2.64151059047679       -6.03262462553896        1.90063126923933
H           -3.32504457289134      -10.70837214697869        0.32927992178982
H           -2.16057453619988      -10.86119936841360       -2.16635243935643
H           -0.96868316805575      -10.38804634473353       -4.27919235619549
H           -0.09424407404154       -8.15070454605401       -4.75068219367406
H           -0.36860297575965       -6.30828595224103       -3.12657530815405
H            0.73618920465024       -5.78556945315445       -0.66828699501942
H            1.40535445360149       -3.39398093984797       -0.53684406561313
H            3.47590028505186       -1.35114433890689       -0.27028012953455
H            5.87551265461828       -0.70428764017515       -0.18373143039683
H            6.04507326944015        2.87347921611857       -2.48015576467443
H            7.64868119109381        4.15775094494688       -3.85084265380406
H            9.97465146248786        4.43682891699482       -3.14074353213537
H           10.78796133109258        3.41138328338355       -1.04412604700172
H           11.02573850150587        2.02932674233462        1.33051905518532
H           11.13635326626991       -0.50693093651230        3.68776175005758
H           10.69761756464447        0.91095657024447        4.63379355288766
H           11.87069843724849        1.05730063395915        3.31968424201816
H            8.41084692044800       -0.24271022114515        3.83140979978013
H            6.50849346528154        0.17781907336453        2.31984462467556
H            4.02598071753214        4.38298997569738        0.59434844613871
H            5.72157267308146        3.92400735836958        0.82367244037884
H            5.11809519938599        4.28434514122986       -0.78685063338749
H            2.37519167656565        2.75191397805983       -0.02452527096527
H           -3.45054276283862        0.55231846229609       -0.44750440002816
H           -5.18491526304675        2.33471680533994       -0.44243058519484
H           -3.36353829716323        5.51527711773664       -2.60645924721358
H           -3.99800958810252        7.45269378092680       -4.00052015334542
H           -5.89269562579468        8.87808535336793       -3.39169009863293
H           -7.24248102322296        8.39483047909619       -1.37841507213461
H           -8.29828497696633        7.30752801038845        0.92551531015459
H           -8.79437114774023        6.13430847486397        4.19629889837454
H           -9.63407711696414        6.89441036994633        2.83910684790125
H           -9.84083068132803        5.16960845643836        3.16076272528160
H           -7.37059654428149        3.99357732543319        3.45753008637546
H           -5.43169537029984        3.39413023074341        2.05679643740145
H           -1.04898294143132        5.75078307456547        0.61513620171802
H           -2.75149352372426        6.22336082240759        0.74290981684895
H           -1.94943723823576        6.23859126698688       -0.82054426938266
H           -0.42687360542542        3.51216094175393        0.00154688062983
H           -2.69657596389003       -2.26572548823748       -0.43554981502756
H           -4.17771846256431       -5.05172731062402        0.34044364107266
H           -3.95551173213158       -5.56209272200023       -1.32612252551210
H           -4.38627251443610       -3.88225724149485       -0.96362549836125

          :  Hamiltonian                  GFN2-xTB          :
         :: gradient norm              0.000149439197 Eh/a0 ::
         :: HOMO-LUMO gap              1.933039413541 eV    ::
         :: SCC energy              -180.332681970504 Eh    ::
         :: -> dispersion             -0.160968692860 Eh    ::
         :: repulsion energy           3.223698910734 Eh    ::

    * Orbital Energies and Occupations

         #    Occupation            Energy/Eh            Energy/eV
      -------------------------------------------------------------
         1        2.0000           -0.6833433             -18.5947
       ...           ...                  ...                  ...
       153        2.0000           -0.4038543             -10.9894
       154        2.0000           -0.4032345             -10.9726
       155        2.0000           -0.3989583             -10.8562
       156        2.0000           -0.3985453             -10.8450
       157        2.0000           -0.3978121             -10.8250
       158        2.0000           -0.3748943             -10.2014
       159        2.0000           -0.3744666             -10.1898
       160        2.0000           -0.3742068             -10.1827
       161        2.0000           -0.3713145             -10.1040
       162        2.0000           -0.3709514             -10.0941
       163        2.0000           -0.3591101              -9.7719
       164        2.0000           -0.3586480              -9.7593
       165        2.0000           -0.3583081              -9.7501 (HOMO)
       166                         -0.2872701              -7.8170 (LUMO)
       167                         -0.2872369              -7.8161
       168                         -0.2497859              -6.7970
       169                         -0.2417549              -6.5785
       170                         -0.2413412              -6.5672
       171                         -0.2403023              -6.5390
       172                         -0.2320171              -6.3135
       173                         -0.2315688              -6.3013
       174                         -0.2312736              -6.2933
       175                         -0.2178497              -5.9280
       176                         -0.2174278              -5.9165
       ...                                ...                  ...
       324                          0.7477726              20.3479
      -------------------------------------------------------------
                  HL-Gap            0.0710379 Eh            1.9330 eV

     #   Z          covCN         q      C6AA      α(0)
     1   6 C        3.758    -0.107    22.602     6.778
     2   6 C        2.966     0.006    27.875     8.660
     3   6 C        2.930    -0.044    29.086     8.845
     4   6 C        2.908    -0.052    29.291     8.874
     5   6 C        3.081     0.044    26.935     8.508
     6   6 C        3.066    -0.019    28.423     8.742
     7   6 C        2.917    -0.043    29.071     8.842
     8   6 C        3.069    -0.018    28.384     8.736
     9   6 C        2.912    -0.033    28.828     8.804
    10   6 C        2.920    -0.042    29.035     8.836
    11   6 C        2.924    -0.034    28.836     8.806
    12   6 C        2.909    -0.051    29.275     8.872
    13   6 C        3.081     0.046    26.888     8.501
    14   7 N        2.804    -0.043    22.074     6.978
    15   6 C        2.918     0.060    26.663     8.468
    16   6 C        2.921    -0.041    29.024     8.835
    17   6 C        2.923    -0.029    28.716     8.788
    18   6 C        2.982    -0.005    28.131     8.700
    19   6 C        2.983     0.202    23.707     7.987
    20   7 N        1.845    -0.296    28.516     7.914
    21   6 C        2.983     0.202    23.709     7.987
    22   6 C        2.982    -0.005    28.133     8.700
    23   6 C        2.923    -0.029    28.715     8.788
    24   6 C        2.921    -0.041    29.025     8.835
    25   6 C        2.918     0.060    26.663     8.468
    26   7 N        2.804    -0.043    22.071     6.977
    27   6 C        3.079     0.047    26.852     8.495
    28   6 C        2.909    -0.051    29.263     8.870
    29   6 C        2.924    -0.034    28.853     8.809
    30   6 C        2.920    -0.042    29.037     8.837
    31   6 C        2.913    -0.033    28.823     8.804
    32   6 C        3.070    -0.018    28.380     8.735
    33   6 C        3.066    -0.020    28.426     8.743
    34   6 C        2.917    -0.043    29.076     8.842
    35   6 C        2.966     0.007    27.870     8.659
    36   6 C        3.758    -0.107    22.604     6.778
    37   6 C        2.930    -0.043    29.067     8.842
    38   6 C        2.908    -0.052    29.301     8.876
    39   6 C        3.082     0.042    26.974     8.514
    40   6 C        2.965     0.010    27.794     8.647
    41   6 C        3.757    -0.108    22.613     6.780
    42   6 C        2.930    -0.035    28.879     8.813
    43   7 N        1.844    -0.296    28.530     7.916
    44   6 C        2.983     0.202    23.711     7.987
    45   6 C        2.982    -0.005    28.132     8.700
    46   6 C        2.923    -0.029    28.718     8.788
    47   6 C        2.921    -0.041    29.029     8.835
    48   6 C        2.918     0.060    26.665     8.468
    49   7 N        2.804    -0.043    22.071     6.977
    50   6 C        3.079     0.047    26.853     8.496
    51   6 C        2.909    -0.051    29.263     8.870
    52   6 C        2.924    -0.034    28.853     8.809
    53   6 C        2.920    -0.042    29.036     8.836
    54   6 C        2.913    -0.033    28.823     8.804
    55   6 C        3.070    -0.018    28.380     8.735
    56   6 C        3.066    -0.019    28.426     8.743
    57   6 C        2.917    -0.043    29.076     8.842
    58   6 C        2.966     0.007    27.870     8.659
    59   6 C        3.758    -0.107    22.604     6.778
    60   6 C        2.930    -0.043    29.069     8.842
    61   6 C        2.908    -0.052    29.303     8.876
    62   6 C        3.082     0.042    26.974     8.514
    63   6 C        2.965     0.010    27.793     8.647
    64   6 C        3.757    -0.108    22.613     6.780
    65   6 C        2.930    -0.035    28.878     8.813
    66   7 N        1.844    -0.296    28.524     7.915
    67   6 C        2.930    -0.035    28.878     8.813
    68   6 C        2.965     0.010    27.787     8.646
    69   6 C        3.757    -0.108    22.616     6.780
    70   1 H        0.925     0.039     2.461     2.453
    71   1 H        0.925     0.042     2.418     2.432
    72   1 H        0.925     0.042     2.418     2.432
    73   1 H        0.926     0.029     2.605     2.524
    74   1 H        0.926     0.024     2.670     2.555
    75   1 H        0.926     0.030     2.586     2.515
    76   1 H        0.926     0.030     2.590     2.516
    77   1 H        0.926     0.027     2.632     2.537
    78   1 H        0.926     0.028     2.614     2.529
    79   1 H        0.926     0.025     2.660     2.550
    80   1 H        0.926     0.045     2.378     2.411
    81   1 H        0.926     0.059     2.209     2.324
    82   1 H        0.926     0.059     2.208     2.323
    83   1 H        0.926     0.046     2.376     2.410
    84   1 H        0.926     0.024     2.674     2.557
    85   1 H        0.926     0.027     2.627     2.534
    86   1 H        0.926     0.027     2.634     2.538
    87   1 H        0.926     0.030     2.588     2.516
    88   1 H        0.926     0.030     2.586     2.515
    89   1 H        0.925     0.043     2.411     2.428
    90   1 H        0.925     0.042     2.419     2.432
    91   1 H        0.925     0.039     2.461     2.453
    92   1 H        0.926     0.030     2.591     2.517
    93   1 H        0.926     0.025     2.651     2.546
    94   1 H        0.925     0.047     2.353     2.399
    95   1 H        0.925     0.048     2.345     2.395
    96   1 H        0.925     0.056     2.247     2.344
    97   1 H        0.926     0.060     2.204     2.321
    98   1 H        0.926     0.059     2.215     2.327
    99   1 H        0.926     0.045     2.380     2.413
   100   1 H        0.926     0.024     2.673     2.557
   101   1 H        0.926     0.027     2.626     2.534
   102   1 H        0.926     0.027     2.633     2.538
   103   1 H        0.926     0.030     2.587     2.515
   104   1 H        0.926     0.030     2.586     2.515
   105   1 H        0.925     0.042     2.419     2.432
   106   1 H        0.925     0.039     2.460     2.453
   107   1 H        0.925     0.043     2.411     2.428
   108   1 H        0.926     0.030     2.592     2.518
   109   1 H        0.926     0.025     2.652     2.546
   110   1 H        0.925     0.047     2.352     2.398
   111   1 H        0.925     0.048     2.345     2.395
   112   1 H        0.925     0.056     2.246     2.344
   113   1 H        0.926     0.060     2.203     2.321
   114   1 H        0.926     0.060     2.198     2.318
   115   1 H        0.925     0.056     2.246     2.343
   116   1 H        0.925     0.048     2.342     2.393
   117   1 H        0.925     0.048     2.348     2.396

molecular dipole:
                 x           y           z       tot (Debye)
 q only:       -0.247       0.265       0.545
   full:       -0.244       0.211       0.561       1.644

 projected vibrational frequencies (cm⁻¹)
eigval :       -0.00    -0.00     0.00     0.00     0.00     0.00
eigval :        3.83     5.67     5.77     8.41    12.94    13.12
eigval :       20.62    20.81    31.91    42.56    43.10    43.71
eigval :       43.95    45.13    46.01    49.78    50.37    52.60
eigval :       82.50    83.43    89.29    90.50    90.99    92.39
eigval :       98.82   109.27   109.43   112.30   116.39   124.52
eigval :      132.28   134.85   138.48   149.67   152.23   154.40
eigval :      180.44   183.19   184.54   189.24   199.33   201.88
eigval :      204.85   206.37   216.75   247.81   250.79   252.64
eigval :      262.02   282.25   291.89   296.07   304.19   309.56
eigval :      311.76   324.12   336.92   339.57   345.86   352.16
eigval :      366.95   375.52   385.00   394.69   395.60   397.45
eigval :      400.05   401.60   411.11   415.05   418.26   421.64
eigval :      421.95   427.21   428.73   430.56   441.55   460.99
eigval :      477.05   486.81   491.44   493.28   504.71   507.62
eigval :      507.79   521.11   522.21   523.14   526.29   550.47
eigval :      553.53   559.23   561.57   562.16   563.26   565.08
eigval :      576.24   580.04   585.01   603.04   603.70   606.64
eigval :      616.86   621.62   632.49   657.61   658.07   671.89
eigval :      672.08   672.08   681.14   681.65   685.54   698.14
eigval :      707.09   707.10   707.43   710.84   710.92   734.07
eigval :      734.16   735.01   768.20   769.64   774.30   776.78
eigval :      776.84   782.91   812.49   812.58   816.46   837.98
eigval :      838.74   839.65   859.69   863.62   864.22   869.68
eigval :      870.68   874.21   874.31   876.25   876.47   877.68
eigval :      885.70   888.92   891.39   901.85   903.31   903.37
eigval :      910.35   910.45   914.19   914.86   916.85   920.29
eigval :      921.85   922.45   922.74   923.29   923.78   925.12
eigval :      934.90   936.50   938.85   971.81   975.55  1010.11
eigval :     1010.30  1010.42  1013.04  1018.13  1020.95  1030.39
eigval :     1031.22  1031.46  1033.71  1033.78  1033.83  1034.39
eigval :     1034.43  1035.90  1049.75  1069.66  1069.76  1069.82
eigval :     1095.00  1095.66  1096.00  1103.97  1131.68  1132.60
eigval :     1140.84  1152.56  1152.96  1153.83  1156.01  1159.95
eigval :     1177.37  1177.56  1177.66  1183.28  1184.14  1185.21
eigval :     1195.89  1196.65  1197.10  1208.23  1216.42  1227.17
eigval :     1227.40  1236.60  1237.52  1241.19  1245.05  1246.33
eigval :     1246.77  1249.52  1255.48  1260.03  1288.74  1289.39
eigval :     1290.46  1314.16  1315.83  1316.14  1325.10  1326.91
eigval :     1328.44  1347.24  1351.16  1352.86  1357.65  1359.46
eigval :     1362.92  1363.76  1364.20  1364.33  1379.63  1383.32
eigval :     1392.95  1406.24  1406.25  1406.36  1408.52  1408.63
eigval :     1409.33  1419.63  1422.34  1422.60  1423.15  1424.04
eigval :     1429.87  1434.88  1438.55  1440.53  1473.93  1474.87
eigval :     1474.97  1478.07  1478.12  1478.38  1480.97  1481.70
eigval :     1481.81  1483.63  1483.68  1483.72  1484.21  1484.51
eigval :     1484.65  1490.77  1491.96  1495.38  1501.96  1502.14
eigval :     1502.33  1510.55  1512.80  1562.39  1564.93  1567.57
eigval :     1573.60  1573.72  1574.03  1587.77  1587.94  1588.02
eigval :     1591.74  1592.04  1593.33  1603.26  1603.31  1603.51
eigval :     1619.80  1619.87  1620.03  3001.56  3001.58  3002.05
eigval :     3004.96  3004.98  3005.10  3014.95  3015.53  3015.70
eigval :     3027.74  3028.54  3028.80  3044.78  3044.85  3044.92
eigval :     3045.04  3045.33  3046.24  3072.35  3073.74  3073.82
eigval :     3074.32  3074.50  3074.97  3078.82  3078.85  3079.08
eigval :     3080.65  3080.70  3080.85  3084.77  3085.22  3085.29
eigval :     3085.57  3086.41  3086.51  3087.05  3087.16  3087.35
eigval :     3094.71  3094.76  3094.91  3101.09  3102.09  3103.22
eigval :     3113.88  3114.67  3115.90

   temp. (K)  partition function   enthalpy   heat capacity  entropy
                                   cal/mol     cal/K/mol   cal/K/mol   J/K/mol
 298.15  VIB  0.150E+32            35686.806    213.387    230.215
         ROT  0.464E+09              888.752      2.981     42.639
         INT  0.698E+40            36575.558    216.367    272.853
         TR   0.256E+29             1481.254      4.968     46.210
         TOT                       38056.8121   221.3356   319.0634  1334.9611

       T/K    H(0)-H(T)+PV         H(T)/Eh          T*S/Eh         G(T)/Eh
   ------------------------------------------------------------------------
    298.15    0.606474E-01    0.976077E+00    0.151597E+00    0.824480E+00
   ------------------------------------------------------------------------

         :::::::::::::::::::::::::::::::::::::::::::::::::::::
         ::                  THERMODYNAMIC                  ::
         :::::::::::::::::::::::::::::::::::::::::::::::::::::
         :: total free energy        -176.284503304182 Eh   ::
         ::.................................................::
         :: total energy             -177.108983059772 Eh   ::
         :: zero point energy           0.915429663274 Eh   ::
         :: G(RRHO) w/o ZPVE           -0.090949907684 Eh   ::
         :: G(RRHO) contrib.            0.824479755589 Eh   ::
         :::::::::::::::::::::::::::::::::::::::::::::::::::::

           -------------------------------------------------
          | TOTAL ENERGY             -177.108983059772 Eh   |
          | TOTAL ENTHALPY           -176.132906006052 Eh   |
          | TOTAL FREE ENERGY        -176.284503304182 Eh   |
          | GRADIENT NORM               0.000149363157 Eh/α |
          | HOMO-LUMO GAP               1.933040367442 eV   |
           -------------------------------------------------

 * finished run on 2025/08/25 at 15:06:19.314
