   * xtb version 6.7.1 (edcfbbe) compiled by 'albert@albert-system' on 2024-07-22

   ID    Z sym.   atoms
    1    7 N      1, 8, 18, 42, 61, 67
    2    6 C      2-7, 9-17, 19-41, 43-60, 62-66, 68-71
    3    1 H      72-113

          program call               : xtb data2507/gas/3,6-T2C/3,6-T2C_gas_T1_crest.xyz --gfn 2 --spinpol --tblite --uhf 2 --ohess vtight --parallel 40 --molden --ceasefiles --namespace data2507/gas/3,6-T2C/3,6-T2C_gas_T1_finalOpt
 * total energy  :  -178.0638970 Eh     change       -0.1555102E-07 Eh
 * total energy  :  -178.0639034 Eh     change       -0.6399100E-05 Eh
 * total energy  :  -178.0638984 Eh     change        0.5084669E-05 Eh
 * total energy  :  -178.0639060 Eh     change       -0.7636373E-05 Eh
 * total energy  :  -178.0639085 Eh     change       -0.2547161E-05 Eh
 * total energy  :  -178.0639094 Eh     change       -0.8579080E-06 Eh
 * total energy  :  -178.0639113 Eh     change       -0.1866776E-05 Eh
 * total energy  :  -178.0639129 Eh     change       -0.1660019E-05 Eh
 * total energy  :  -178.0639143 Eh     change       -0.1336910E-05 Eh
 * total energy  :  -178.0639163 Eh     change       -0.2081961E-05 Eh
 * total energy  :  -178.0639310 Eh     change       -0.2938461E-06 Eh
 * total energy  :  -178.0639311 Eh     change       -0.1720240E-06 Eh
 * total energy  :  -178.0639311 Eh     change        0.1271948E-07 Eh
 * total energy  :  -178.0639313 Eh     change       -0.1472920E-06 Eh
 * total energy  :  -178.0639315 Eh     change       -0.2655784E-06 Eh
 * total energy  :  -178.0639319 Eh     change       -0.3832378E-06 Eh
 * total energy  :  -178.0639321 Eh     change       -0.2038692E-06 Eh
 * total energy  :  -178.0639323 Eh     change       -0.1555219E-06 Eh
 * total energy  :  -178.0639323 Eh     change       -0.7258819E-08 Eh
   *** GEOMETRY OPTIMIZATION CONVERGED AFTER 44 ITERATIONS ***

 final structure:
================
113
 xtb: 6.7.1 (edcfbbe)
N           11.89609567803130       -4.85205812098266       -0.13092428091575
C           10.85486492950873       -4.36331255901063       -0.10203484548122
C            9.58453280609924       -3.76938037900252       -0.06442623836875
C            8.48895335931279       -4.46512455093969        0.47875950572754
C            7.25547621449736       -3.87696517369819        0.52095749526268
C            7.05276250094253       -2.55980342192010        0.04336472136019
C            5.73365545111732       -2.03671637932144        0.12115596487778
N            4.67180302363894       -2.83760423032326        0.21926766440032
C            3.59369521214797       -2.06478238641054        0.14285541976732
C            2.23496331213224       -2.47063261296898        0.14483296915140
C            1.88527887176366       -3.82549731362818        0.19094496619234
C            0.56781985742052       -4.21061346023109        0.16055224340641
C           -0.44060543482570       -3.24351752133240        0.09110394821647
C           -1.85034462709341       -3.62897179385313        0.06114357400309
C           -2.81827214531763       -2.87277330724886        0.72774121123040
C           -4.14689906843231       -3.23080928505449        0.70150415852806
C           -4.56455214947963       -4.35832040838764       -0.01090398965678
N           -5.91036194086339       -4.71362800462022       -0.05277549883043
C           -6.28207236760397       -6.06381776612134       -0.10174454901159
C           -5.57978417787439       -7.01745877871536        0.63471372143071
C           -5.95128219882526       -8.34675392681177        0.58162766665778
C           -7.02703288227956       -8.74408587701284       -0.19583711254752
C           -7.73059098462327       -7.79930303009416       -0.92521339202354
C           -7.36300471356405       -6.46847794564706       -0.88443649411689
C           -6.90161690101971       -3.72466860971874       -0.04405564499406
C           -8.09151142933765       -3.92564870624653        0.65551079722656
C           -9.06863908344308       -2.94948101478602        0.65898956762480
C           -8.87507929324672       -1.76002707505339       -0.02463653058616
C           -7.69455977314635       -1.55527208752764       -0.72034418811331
C           -6.71458878801858       -2.52843508962617       -0.73696497108942
C           -3.60233055253005       -5.12000170242199       -0.68000311304889
C           -2.27332576284717       -4.76383944496125       -0.63549086884758
C           -0.08638521208529       -1.89456976937568        0.05145748753748
C            1.23866105520514       -1.46836980969589        0.07833966968625
C            1.61819284891117       -0.05724880519452        0.06887747097805
C            0.66574865632052        0.94232290101816        0.05784262188539
C            0.97398604575486        2.31136936489170        0.12097503769719
C           -0.07174439317141        3.30701778871616        0.08900159749691
C            0.07495854396028        4.55179580618528        0.72617849599364
C           -0.92559027721119        5.49107487506991        0.70803999181116
C           -2.12965166670143        5.24079208002899        0.03705286875326
N           -3.14690213333769        6.18873278876804        0.01805461072741
C           -2.83712936030207        7.55450035312270        0.00530695632630
C           -1.75313267773634        8.02614877450742       -0.73553934425162
C           -1.45215445896874        9.37396923330391       -0.74269724642933
C           -2.22532119596102       10.26935184896925       -0.02107871470018
C           -3.30548723796879        9.80571071246649        0.71282334332139
C           -3.61188916533837        8.45921677214304        0.73153430944574
C           -4.48674096653288        5.78473753683227        0.00764722051844
C           -4.89658371078257        4.67311607298167        0.74506856365717
C           -6.21913464848456        4.27620231628898        0.72546930201658
C           -7.15231506029390        4.98060418364549       -0.01836333983796
C           -6.75146961090399        6.08914260828948       -0.74694198088000
C           -5.43012604684713        6.49046639756528       -0.74008813781548
C           -2.28380090703777        4.01091461760235       -0.61546080801933
C           -1.28423004523455        3.07152977916348       -0.58409487555836
C            2.33537987619670        2.66498279807798        0.24120167480963
C            3.30869801705619        1.71419113202777        0.21902485418523
C            3.00671025079870        0.32995824551545        0.09627980923200
C            3.96172733834539       -0.68342508758462        0.04325637201157
N            5.34367805783468       -0.69059549140297        0.02439067613777
C            6.20746238985984        0.40315367068375       -0.03135762237815
C            7.19125875796685        0.56773996406398        0.95130751700610
C            8.05254747805217        1.63784639939769        0.89495968100159
C            7.95423623491516        2.56495855199864       -0.15107503040126
C            8.83103908729724        3.66413164341403       -0.20988775644523
N            9.54077775754321        4.56641057165345       -0.25891958521892
C            6.97573907766152        2.39534571790144       -1.14007437391851
C            6.11155928651494        1.32764857145946       -1.07908445247664
C            8.15233754722757       -1.88830015845619       -0.53526975569679
C            9.38690315489106       -2.48100354269296       -0.58686206647390
H            8.63737309543708       -5.46427415529417        0.86171029809059
H            6.40584047395787       -4.39750885677723        0.93310303550220
H            2.68329400465924       -4.54900527168978        0.24794656380462
H            0.30572792574088       -5.25641448445757        0.21590379858393
H           -2.51687733567525       -2.01374507305419        1.30864935722620
H           -4.87546228626568       -2.64711087055074        1.24491577884175
H           -4.74910702264686       -6.70672322902407        1.25126085280920
H           -5.40204986084175       -9.07590117038978        1.15843256038215
H           -7.31566302828740       -9.78329604258160       -0.23255246527996
H           -8.56727559315939       -8.10151198188405       -1.53731977714675
H           -7.90562187926288       -5.73400238260635       -1.46141539336355
H           -8.23938773480973       -4.84762937472255        1.19831886832281
H           -9.98431232109493       -3.11576733699814        1.20666148641213
H           -9.63984462284002       -0.99853489956697       -0.01659737955091
H           -7.53856807879795       -0.63419320158052       -1.26235942093434
H           -5.80098293526231       -2.37315137930365       -1.29187705273408
H           -3.91183929909950       -5.98545201575587       -1.24722074905212
H           -1.55118790400639       -5.35157988997122       -1.18204369190425
H           -0.88677683701594       -1.17677673237481       -0.02945727227275
H           -0.37840583159746        0.67652529029401        0.04684528009784
H            0.97487594584576        4.76095237561669        1.28362516247836
H           -0.79845551343824        6.42648048209076        1.23317921374648
H           -1.15894007892595        7.33018925108948       -1.30922726994689
H           -0.61309934077283        9.72847995505390       -1.32244951097390
H           -1.98783807022565       11.32194630033977       -0.03096690262950
H           -3.90947623925127       10.49663913288988        1.28177657049727
H           -4.44686928028629        8.09672334586003        1.31305505051660
H           -4.17295282644531        4.13289780583922        1.33759129092335
H           -6.52480716208882        3.41591555592252        1.30231756375952
H           -8.18542285916603        4.66878231550317       -0.02899634657885
H           -7.47173132073850        6.64109374265174       -1.33216733340069
H           -5.11672040678556        7.34706212697288       -1.31848455704718
H           -3.19312712938632        3.81507459859412       -1.16499434432338
H           -1.41916437651348        2.15107495509387       -1.13153026365222
H            2.61432306269499        3.70486580398727        0.31693395684790
H            4.33816351268962        2.01584537723059        0.31915082746718
H            7.26119180552054       -0.15100557920610        1.75404023553793
H            8.80498319884983        1.77471089027775        1.65709636859171
H            6.91211807812233        3.10443312201403       -1.95213200625153
H            5.36026802985586        1.18538847178968       -1.84223006059784
H            8.02074186704184       -0.91791946080386       -0.98642409848691
H           10.22007676331878       -1.96273535088933       -1.03931531097713

 projected vibrational frequencies (cm⁻¹)
eigval :       -0.00    -0.00    -0.00    -0.00     0.00     0.00
eigval :        4.49     7.60     9.30    10.13    10.40    16.66
eigval :       22.77    25.43    31.14    34.48    37.94    42.60
eigval :       46.98    47.63    49.19    51.98    58.88    61.48
eigval :       68.30    72.93    78.37    82.20    91.77    95.11
eigval :      104.32   108.85   112.24   114.01   123.46   125.75
eigval :      135.98   139.81   150.22   157.77   181.28   189.90
eigval :      198.66   207.27   216.09   221.26   230.12   234.05
eigval :      241.12   245.63   251.22   268.74   273.04   295.16
eigval :      306.38   309.95   317.27   324.82   335.37   351.88
eigval :      357.24   364.54   369.38   371.01   377.65   377.81
eigval :      378.71   379.65   380.52   389.52   390.18   399.96
eigval :      401.01   402.30   409.38   413.93   425.53   431.69
eigval :      451.73   453.57   459.14   470.23   478.72   490.63
eigval :      493.12   504.90   510.84   512.89   514.06   521.20
eigval :      531.12   534.84   540.18   547.78   566.66   581.97
eigval :      583.07   583.88   586.67   588.91   592.67   593.58
eigval :      595.25   600.73   602.89   610.64   611.82   619.55
eigval :      624.72   630.77   644.32   652.43   659.40   660.14
eigval :      660.24   664.52   667.59   670.13   673.23   680.22
eigval :      684.17   693.36   693.56   715.96   720.12   724.73
eigval :      756.16   757.48   757.83   760.58   767.97   780.39
eigval :      797.86   802.40   809.26   810.66   813.72   820.59
eigval :      835.04   841.38   845.20   852.86   858.09   861.13
eigval :      862.16   868.30   873.41   873.77   874.41   875.54
eigval :      894.68   894.97   895.53   896.02   904.90   909.25
eigval :      909.57   909.91   911.31   912.97   914.28   915.92
eigval :      916.32   918.77   920.37   922.87   924.20   926.58
eigval :      928.15   928.37   929.32   929.53   929.77   929.89
eigval :      930.00   930.04   932.39   947.02   978.97   983.90
eigval :      990.37   998.49  1003.93  1004.83  1008.50  1014.92
eigval :     1028.39  1056.44  1070.75  1081.80  1082.56  1082.87
eigval :     1083.62  1090.97  1106.44  1121.69  1121.80  1123.77
eigval :     1123.88  1130.14  1135.15  1138.01  1146.27  1147.87
eigval :     1157.17  1169.65  1174.60  1179.68  1179.86  1180.14
eigval :     1180.56  1181.76  1185.00  1189.21  1193.18  1194.20
eigval :     1195.75  1197.71  1212.67  1217.44  1220.14  1228.41
eigval :     1234.66  1243.29  1250.49  1259.73  1262.16  1269.00
eigval :     1272.51  1273.94  1277.20  1277.51  1279.21  1280.30
eigval :     1289.48  1299.78  1305.83  1307.35  1309.43  1313.73
eigval :     1316.61  1316.87  1317.87  1322.49  1324.61  1325.79
eigval :     1327.02  1327.47  1330.11  1332.19  1345.50  1353.85
eigval :     1371.73  1393.85  1411.11  1412.90  1414.93  1421.73
eigval :     1426.11  1428.88  1431.99  1435.80  1437.51  1440.83
eigval :     1441.79  1443.41  1463.17  1464.84  1467.18  1467.24
eigval :     1467.60  1470.39  1470.53  1473.93  1490.54  1500.92
eigval :     1507.89  1510.53  1520.85  1530.06  1545.06  1549.93
eigval :     1555.46  1559.53  1572.00  1575.33  1576.32  1579.32
eigval :     1583.73  1586.32  1586.71  1590.36  1590.47  1593.34
eigval :     1597.90  2322.77  2342.20  3078.14  3078.32  3079.47
eigval :     3079.82  3079.99  3080.34  3080.55  3080.90  3080.99
eigval :     3081.64  3082.24  3082.47  3082.52  3082.68  3084.42
eigval :     3087.22  3087.40  3088.20  3088.29  3089.04  3089.20
eigval :     3089.89  3090.83  3091.80  3092.28  3092.50  3092.98
eigval :     3093.42  3094.78  3094.95  3098.41  3098.57  3098.94
eigval :     3099.79  3100.96  3101.14  3102.31  3108.01  3109.84
eigval :     3111.05  3114.19  3123.42

   temp. (K)  partition function   enthalpy   heat capacity  entropy
                                   cal/mol     cal/K/mol   cal/K/mol   J/K/mol
 298.15  VIB  0.565E+30            34761.391    211.938    222.025
         ROT  0.429E+09              888.752      2.981     42.480
         INT  0.242E+39            35650.143    214.919    264.506
         TR   0.264E+29             1481.254      4.968     46.270
         TOT                       37131.3973   219.8871   310.7754  1300.2842

       T/K    H(0)-H(T)+PV         H(T)/Eh          T*S/Eh         G(T)/Eh
   ------------------------------------------------------------------------
    298.15    0.591726E-01    0.914806E+00    0.147659E+00    0.767147E+00
   ------------------------------------------------------------------------

         :::::::::::::::::::::::::::::::::::::::::::::::::::::
         ::                  THERMODYNAMIC                  ::
         :::::::::::::::::::::::::::::::::::::::::::::::::::::
         :: total free energy        -177.296785464573 Eh   ::
         ::.................................................::
         :: total energy             -178.063932276409 Eh   ::
         :: zero point energy           0.855633576575 Eh   ::
         :: G(RRHO) w/o ZPVE           -0.088486764739 Eh   ::
         :: G(RRHO) contrib.            0.767146811836 Eh   ::
         :::::::::::::::::::::::::::::::::::::::::::::::::::::

           -------------------------------------------------
          | TOTAL ENERGY             -178.063932276409 Eh   |
          | TOTAL ENTHALPY           -177.149126051718 Eh   |
          | TOTAL FREE ENERGY        -177.296785464573 Eh   |
          | GRADIENT NORM               0.000064067160 Eh/α |
           -------------------------------------------------

 * finished run on 2025/08/25 at 04:18:42.934
