   * xtb version 6.7.1 (edcfbbe) compiled by 'albert@albert-system' on 2024-07-22

   ID    Z sym.   atoms
    1    7 N      1, 8, 18, 42, 61, 67
    2    6 C      2-7, 9-17, 19-41, 43-60, 62-66, 68-71
    3    1 H      72-113

          program call               : xtb data2507/gas/3,6-T2C/3,6-T2C.xyz --gfn 2 --ohess vtight --parallel 40 --molden --ceasefiles --namespace data2507/gas/3,6-T2C/3,6-T2C_gas_S0_preOpt
          :  Hamiltonian                  GFN2-xTB          :
 * total energy  :  -178.0971481 Eh     change       -0.6227793E-08 Eh
 * total energy  :  -178.1167682 Eh     change       -0.1962014E-01 Eh
 * total energy  :  -178.1247014 Eh     change       -0.7933115E-02 Eh
 * total energy  :  -178.1282594 Eh     change       -0.3558006E-02 Eh
 * total energy  :  -178.1305937 Eh     change       -0.2334368E-02 Eh
 * total energy  :  -178.1316363 Eh     change       -0.1042612E-02 Eh
 * total energy  :  -178.1318664 Eh     change       -0.2300689E-03 Eh
 * total energy  :  -178.1324346 Eh     change       -0.5681466E-03 Eh
 * total energy  :  -178.1327894 Eh     change       -0.3548166E-03 Eh
 * total energy  :  -178.1332323 Eh     change       -0.4429057E-03 Eh
 * total energy  :  -178.1353401 Eh     change       -0.1181045E-05 Eh
 * total energy  :  -178.1353401 Eh     change        0.3361635E-08 Eh
 * total energy  :  -178.1353404 Eh     change       -0.3008327E-06 Eh
 * total energy  :  -178.1353403 Eh     change        0.1210121E-06 Eh
 * total energy  :  -178.1353402 Eh     change        0.1110552E-06 Eh
 * total energy  :  -178.1353412 Eh     change       -0.9703510E-06 Eh
 * total energy  :  -178.1353413 Eh     change       -0.1114466E-06 Eh
 * total energy  :  -178.1353414 Eh     change       -0.1722196E-06 Eh
 * total energy  :  -178.1353415 Eh     change       -0.6768042E-07 Eh
   *** GEOMETRY OPTIMIZATION CONVERGED AFTER 129 ITERATIONS ***

 final structure:
================
113
 xtb: 6.7.1 (edcfbbe)
N           11.80216052031554       -6.33019424647146       -0.29829551152558
C           10.80462704738291       -5.76627205604745       -0.25819909429626
C            9.57642787892443       -5.06941528656780       -0.21180235450162
C            9.46256641321419       -3.90706028294726        0.55190902473361
C            8.26742319668985       -3.22010345875093        0.59065668299832
C            7.16730534674659       -3.67466276198639       -0.13910290883464
C            5.87797888163265       -3.00909039587645       -0.13633502415798
N            4.74770592781984       -3.66317180972331       -0.22619211334007
C            3.76322985475029       -2.73220778288471       -0.16181215662327
C            2.35771131637189       -2.94651823003172       -0.17287136898580
C            1.81718163835751       -4.23432517932281       -0.24860009351162
C            0.46020673103676       -4.42153774192376       -0.22273224911858
C           -0.39879448623620       -3.31907543468356       -0.11023426164875
C           -1.85367031052728       -3.51437943067865       -0.06403207890554
C           -2.65106122483069       -2.76929189519909        0.80345439384671
C           -4.01641501766809       -2.95372203057175        0.85174271732034
C           -4.63280336275885       -3.89564938267423        0.02724434767620
N           -6.01607750136066       -4.08694134496244        0.07419285892977
C           -6.69468318083626       -4.00302578746191        1.29553643601493
C           -7.96847660825624       -3.43852523249030        1.35902755641377
C           -8.63744314708462       -3.36431707163856        2.56516129868019
C           -8.04882943599951       -3.84064223239653        3.72520467806164
C           -6.78186696611021       -4.39795449538766        3.66841513485778
C           -6.10816564055346       -4.48460832358631        2.46578273592262
C           -6.72422067748594       -4.36898734802636       -1.09997270947922
C           -7.79127437307430       -5.26679239390387       -1.08438318345039
C           -8.49024163907692       -5.53692002229537       -2.24466430732593
C           -8.13501526159167       -4.92705567428015       -3.43669601614984
C           -7.07319060685328       -4.03770646861508       -3.45843973650306
C           -6.37336694051471       -3.75443526651463       -2.30185994839932
C           -3.84010282402477       -4.64347721589975       -0.84430904005422
C           -2.47530652807996       -4.45392439467490       -0.88515280502266
C            0.13883599436167       -2.04518651029500       -0.04219752609687
C            1.51886360902218       -1.81331268583575       -0.07887168114180
C            2.09432700819124       -0.47783522482774       -0.04963036519775
C            1.28713925198385        0.66393378857733       -0.04450014008970
C            1.80240906142976        1.94839703350334       -0.06119457065382
C            0.91262876851929        3.11413937642928       -0.05526811120284
C            1.23294033785259        4.25429730927201        0.68095349180161
C            0.39727480355189        5.34993479877307        0.69753212814413
C           -0.78739497372651        5.34892782674098       -0.04097667524280
N           -1.63219515716961        6.45912392457775       -0.03365881036717
C           -1.09520371742967        7.75092615764244        0.03598355228132
C            0.08063042474228        8.06646224974931       -0.64413210964096
C            0.60603340229702        9.34177059350796       -0.57019536261309
C           -0.03237720996554       10.32214938256101        0.17156360412038
C           -1.20343284606632       10.01503839018191        0.84485473558501
C           -1.73216717225874        8.74041672649597        0.78410063942821
C           -3.02062047290348        6.28760718333164       -0.09913426486998
C           -3.63570186209031        5.22904439665607        0.56865760909310
C           -5.00516811115768        5.06337797537963        0.49761753426179
C           -5.78290899231343        5.95057689552605       -0.22824376683919
C           -5.17743067678658        7.00711142112644       -0.88858129241313
C           -3.80770955220849        7.17595768508464       -0.83123899052354
C           -1.10817384713868        4.21394308256282       -0.78785319077162
C           -0.27513497577468        3.11632611042212       -0.78607060105487
C            3.19225107602123        2.11230450345983       -0.10217635415563
C            4.01787717791790        1.01858958022154       -0.10207785431032
C            3.50365500438510       -0.28544891977184       -0.05262407464226
C            4.31250449427810       -1.45513363113371       -0.04539710657130
N            5.67692398955951       -1.64648519661273       -0.01822072147015
C            6.69213888581667       -0.68429509743313        0.10282449975926
C            6.78984285608984        0.08445518878810        1.26270640302825
C            7.80706866940012        1.00609142611202        1.39333142583559
C            8.73857742828520        1.16255394133074        0.36450009448453
C            9.78291246599669        2.10693614029482        0.49948011477327
N           10.62743460260542        2.87339099955441        0.61106200239748
C            8.64154283954784        0.39121018798466       -0.79440553215760
C            7.62128804576755       -0.52874860315691       -0.92310323640178
C            7.28185229735429       -4.85652385594422       -0.87820217963935
C            8.47131055045736       -5.54820962973522       -0.91983007119311
H           10.31287134090182       -3.55410934907165        1.11673234522942
H            8.18742968734280       -2.34276881871963        1.21403062713207
H            2.50092671821891       -5.06620399725429       -0.31630730822404
H            0.04599218218796       -5.41798908599042       -0.26065677508115
H           -2.19208358572526       -2.04611961120947        1.46182915634941
H           -4.61870158966123       -2.36711131583084        1.53012037520218
H           -8.42600814951100       -3.05797312522796        0.45744249114766
H           -9.62289960889270       -2.92341005817851        2.60039841021833
H           -8.57372656828282       -3.77843575723121        4.66633599852064
H           -6.31712790736623       -4.77736290431919        4.56666332971119
H           -5.12472279235316       -4.92954144254251        2.42276020107181
H           -8.06415515281212       -5.75108619500408       -0.15813560743898
H           -9.31327258722168       -6.23594191126833       -2.21907866646788
H           -8.68171311198118       -5.14322210364788       -4.34194683742119
H           -6.79240117250910       -3.55301313164254       -4.38204831139712
H           -5.55218125181157       -3.05277540525951       -2.31943120268414
H           -4.30449123904393       -5.37745427768579       -1.48657599959763
H           -1.88125070479605       -5.03451254195949       -1.57554519421410
H           -0.54905904658551       -1.21755592004212        0.02467983998318
H            0.21505223935225        0.55770950535820       -0.01692502892072
H            2.13451168852217        4.26894476132046        1.27581847778070
H            0.65244393367041        6.21625432846453        1.29008469802519
H            0.57405392084301        7.30650426220695       -1.23238512567965
H            1.51617242173328        9.57380626257457       -1.10359715749931
H            0.37944963444254       11.31846503391355        0.22402185714793
H           -1.70560790810094       10.77180267663963        1.42940376924747
H           -2.64069567990743        8.50065041126452        1.31704260549230
H           -3.03271077054391        4.54249792669203        1.14490376576996
H           -5.46911867882287        4.24000630996613        1.02062306103846
H           -6.85314889032277        5.81976973605903       -0.27853477553975
H           -5.77520211450234        7.70130601579211       -1.46070742378092
H           -3.33685109300035        7.99506259551215       -1.35490826265797
H           -2.01376087090619        4.20466650402367       -1.37655393802322
H           -0.53179665156015        2.25834072430844       -1.39009401396677
H            3.61397133513807        3.10451562883066       -0.16227962737250
H            5.08418772818774        1.16837069894041       -0.16583209023071
H            6.06278394641974       -0.04829844065143        2.05026487359272
H            7.89129446962654        1.60507063301677        2.28760632734941
H            9.36437835497182        0.52068884640758       -1.58560152630808
H            7.53531806404513       -1.13210486961717       -1.81430002106287
H            6.41564316144055       -5.21206488423802       -1.41334147205408
H            8.56004680040091       -6.45720295723081       -1.49599999365384

          :  Hamiltonian                  GFN2-xTB          :
         :: gradient norm              0.000047878021 Eh/a0 ::
         :: HOMO-LUMO gap              1.441737640597 eV    ::
         :: SCC energy              -181.560119010868 Eh    ::
         :: -> dispersion             -0.162766313558 Eh    ::
         :: repulsion energy           3.424777496044 Eh    ::

    * Orbital Energies and Occupations

         #    Occupation            Energy/Eh            Energy/eV
      -------------------------------------------------------------
         1        2.0000           -0.7035677             -19.1451
       ...           ...                  ...                  ...
       154        2.0000           -0.4098297             -11.1520
       155        2.0000           -0.4088109             -11.1243
       156        2.0000           -0.4084803             -11.1153
       157        2.0000           -0.4081975             -11.1076
       158        2.0000           -0.4064651             -11.0605
       159        2.0000           -0.4056142             -11.0373
       160        2.0000           -0.4050247             -11.0213
       161        2.0000           -0.3978141             -10.8251
       162        2.0000           -0.3915084             -10.6535
       163        2.0000           -0.3886596             -10.5760
       164        2.0000           -0.3739548             -10.1758
       165        2.0000           -0.3523615              -9.5882
       166        2.0000           -0.3495505              -9.5118 (HOMO)
       167                         -0.2965677              -8.0700 (LUMO)
       168                         -0.2883232              -7.8457
       169                         -0.2676125              -7.2821
       170                         -0.2650335              -7.2119
       171                         -0.2558177              -6.9612
       172                         -0.2500909              -6.8053
       173                         -0.2449601              -6.6657
       174                         -0.2337824              -6.3615
       175                         -0.2316420              -6.3033
       176                         -0.2311005              -6.2886
       177                         -0.2306356              -6.2759
       ...                                ...                  ...
       326                          1.1680128              31.7832
      -------------------------------------------------------------
                  HL-Gap            0.0529829 Eh            1.4417 eV

     #   Z          covCN         q      C6AA      α(0)
     1   7 N        0.911    -0.230    26.028     7.379
     2   6 C        1.912     0.112    28.340     8.597
     3   6 C        2.973     0.020    27.554     8.610
     4   6 C        2.925    -0.020    28.516     8.757
     5   6 C        2.920    -0.033    28.816     8.803
     6   6 C        2.974     0.010    27.799     8.649
     7   6 C        3.187     0.125    24.839     8.132
     8   7 N        1.896    -0.283    28.196     7.872
     9   6 C        3.204     0.059    26.109     8.323
    10   6 C        2.986     0.000    28.018     8.683
    11   6 C        2.919    -0.032    28.789     8.799
    12   6 C        2.922    -0.034    28.854     8.809
    13   6 C        2.974     0.009    27.810     8.650
    14   6 C        2.977     0.001    28.006     8.681
    15   6 C        2.924    -0.035    28.862     8.810
    16   6 C        2.920    -0.049    29.214     8.863
    17   6 C        2.924     0.064    26.571     8.453
    18   7 N        2.752    -0.075    22.704     7.077
    19   6 C        2.924     0.065    26.542     8.449
    20   6 C        2.922    -0.048    29.183     8.859
    21   6 C        2.920    -0.029    28.732     8.790
    22   6 C        2.919    -0.038    28.955     8.824
    23   6 C        2.920    -0.029    28.731     8.790
    24   6 C        2.922    -0.048    29.182     8.859
    25   6 C        2.924     0.065    26.542     8.449
    26   6 C        2.922    -0.047    29.178     8.858
    27   6 C        2.920    -0.029    28.729     8.790
    28   6 C        2.919    -0.038    28.952     8.824
    29   6 C        2.920    -0.029    28.731     8.790
    30   6 C        2.922    -0.048    29.181     8.859
    31   6 C        2.920    -0.049    29.208     8.863
    32   6 C        2.924    -0.034    28.848     8.808
    33   6 C        2.928    -0.041    29.015     8.834
    34   6 C        2.978    -0.001    28.050     8.688
    35   6 C        2.979     0.003    27.957     8.673
    36   6 C        2.929    -0.040    28.997     8.831
    37   6 C        2.973     0.009    27.808     8.650
    38   6 C        2.976    -0.001    28.037     8.685
    39   6 C        2.924    -0.034    28.844     8.807
    40   6 C        2.920    -0.049    29.219     8.864
    41   6 C        2.924     0.065    26.555     8.451
    42   7 N        2.752    -0.074    22.683     7.073
    43   6 C        2.925     0.065    26.547     8.449
    44   6 C        2.922    -0.047    29.172     8.857
    45   6 C        2.920    -0.029    28.728     8.789
    46   6 C        2.919    -0.038    28.939     8.822
    47   6 C        2.920    -0.029    28.724     8.789
    48   6 C        2.922    -0.047    29.168     8.857
    49   6 C        2.924     0.065    26.546     8.449
    50   6 C        2.922    -0.047    29.175     8.858
    51   6 C        2.920    -0.029    28.729     8.790
    52   6 C        2.919    -0.038    28.942     8.822
    53   6 C        2.920    -0.029    28.724     8.789
    54   6 C        2.922    -0.047    29.171     8.857
    55   6 C        2.921    -0.049    29.215     8.864
    56   6 C        2.924    -0.034    28.855     8.809
    57   6 C        2.922    -0.036    28.903     8.816
    58   6 C        2.917    -0.041    29.013     8.833
    59   6 C        2.978    -0.006    28.161     8.705
    60   6 C        3.071     0.022    27.441     8.589
    61   7 N        2.840    -0.046    22.122     6.986
    62   6 C        2.912     0.076    26.293     8.408
    63   6 C        2.920    -0.034    28.848     8.808
    64   6 C        2.926    -0.019    28.476     8.751
    65   6 C        2.973     0.021    27.542     8.608
    66   6 C        1.912     0.112    28.327     8.595
    67   7 N        0.911    -0.220    25.813     7.348
    68   6 C        2.926    -0.017    28.444     8.746
    69   6 C        2.920    -0.036    28.889     8.814
    70   6 C        2.928    -0.025    28.627     8.774
    71   6 C        2.924    -0.018    28.464     8.749
    72   1 H        0.926     0.044     2.401     2.423
    73   1 H        0.926     0.031     2.577     2.510
    74   1 H        0.926     0.051     2.310     2.377
    75   1 H        0.926     0.035     2.522     2.483
    76   1 H        0.926     0.032     2.553     2.499
    77   1 H        0.926     0.032     2.562     2.503
    78   1 H        0.926     0.031     2.566     2.505
    79   1 H        0.926     0.031     2.567     2.506
    80   1 H        0.926     0.030     2.584     2.514
    81   1 H        0.926     0.031     2.566     2.505
    82   1 H        0.926     0.032     2.564     2.504
    83   1 H        0.926     0.032     2.562     2.503
    84   1 H        0.926     0.032     2.563     2.504
    85   1 H        0.926     0.030     2.582     2.513
    86   1 H        0.926     0.031     2.567     2.506
    87   1 H        0.926     0.031     2.570     2.507
    88   1 H        0.926     0.032     2.554     2.499
    89   1 H        0.926     0.034     2.527     2.486
    90   1 H        0.926     0.035     2.521     2.483
    91   1 H        0.926     0.039     2.463     2.454
    92   1 H        0.926     0.032     2.554     2.499
    93   1 H        0.926     0.033     2.550     2.497
    94   1 H        0.926     0.031     2.565     2.505
    95   1 H        0.926     0.032     2.556     2.500
    96   1 H        0.926     0.031     2.569     2.506
    97   1 H        0.926     0.032     2.553     2.499
    98   1 H        0.926     0.032     2.558     2.501
    99   1 H        0.926     0.031     2.565     2.505
   100   1 H        0.926     0.032     2.559     2.501
   101   1 H        0.926     0.031     2.572     2.508
   102   1 H        0.926     0.032     2.554     2.499
   103   1 H        0.926     0.032     2.559     2.501
   104   1 H        0.926     0.033     2.547     2.496
   105   1 H        0.926     0.033     2.540     2.492
   106   1 H        0.926     0.031     2.573     2.508
   107   1 H        0.926     0.021     2.720     2.579
   108   1 H        0.926     0.052     2.293     2.368
   109   1 H        0.926     0.052     2.289     2.366
   110   1 H        0.926     0.053     2.289     2.366
   111   1 H        0.926     0.048     2.351     2.398
   112   1 H        0.926     0.062     2.173     2.305
   113   1 H        0.926     0.049     2.335     2.390

molecular dipole:
                 x           y           z       tot (Debye)
 q only:       -2.048       0.694      -0.070
   full:       -2.659       1.046      -0.045       7.263

 projected vibrational frequencies (cm⁻¹)
eigval :       -0.00    -0.00    -0.00    -0.00     0.00     0.00
eigval :        5.76     8.94     9.24    10.56    10.94    17.72
eigval :       21.14    23.59    27.61    33.75    39.80    43.46
eigval :       44.70    48.82    50.29    52.33    57.67    60.84
eigval :       69.08    71.64    72.55    76.34    93.62    97.86
eigval :       99.34   103.55   108.94   118.41   122.41   124.38
eigval :      134.19   137.63   146.59   152.22   180.15   190.44
eigval :      199.02   205.80   214.36   220.46   229.31   235.10
eigval :      240.22   249.63   260.60   264.58   274.88   299.13
eigval :      308.20   310.01   320.82   328.54   346.16   352.22
eigval :      363.69   366.95   370.93   372.33   377.06   378.38
eigval :      378.41   379.64   381.13   387.33   389.81   393.42
eigval :      401.92   404.59   421.48   434.32   437.71   446.24
eigval :      457.09   461.68   470.45   477.09   486.01   491.83
eigval :      492.55   507.16   509.75   519.29   524.52   532.32
eigval :      535.29   544.14   548.75   564.00   569.93   583.53
eigval :      584.10   585.40   587.58   592.03   593.59   594.28
eigval :      597.80   606.64   608.35   614.19   616.22   631.01
eigval :      633.68   639.12   652.36   654.31   659.88   660.15
eigval :      665.60   668.19   673.28   681.99   686.75   692.76
eigval :      697.53   698.29   699.42   719.85   722.35   734.74
eigval :      756.98   757.32   758.17   760.81   772.70   790.62
eigval :      807.64   809.70   811.96   820.93   825.96   830.17
eigval :      837.61   858.42   865.01   868.12   868.72   868.95
eigval :      871.80   874.57   874.95   876.13   876.61   878.29
eigval :      892.02   892.81   892.97   893.71   909.99   910.16
eigval :      913.18   914.42   915.44   917.17   917.80   919.82
eigval :      923.69   925.63   926.09   926.60   927.54   927.57
eigval :      927.89   928.89   929.06   929.36   929.71   929.84
eigval :      930.61   931.32   951.40   966.87   983.78   985.44
eigval :     1004.14  1005.04  1005.21  1009.90  1020.10  1026.31
eigval :     1042.69  1071.09  1083.06  1083.16  1084.21  1084.22
eigval :     1084.81  1104.77  1121.84  1121.94  1124.03  1124.23
eigval :     1127.31  1133.19  1135.30  1143.14  1144.94  1158.17
eigval :     1177.83  1180.67  1180.72  1180.77  1180.81  1180.93
eigval :     1186.85  1187.45  1187.78  1195.55  1195.71  1195.94
eigval :     1198.34  1203.06  1216.88  1217.45  1227.71  1230.66
eigval :     1235.09  1249.20  1258.92  1265.05  1269.56  1272.85
eigval :     1277.57  1278.86  1279.95  1280.21  1283.14  1289.18
eigval :     1297.95  1306.54  1311.20  1313.56  1314.12  1318.96
eigval :     1319.37  1320.43  1321.48  1325.82  1326.86  1327.02
eigval :     1327.53  1331.86  1333.98  1339.00  1348.30  1374.83
eigval :     1396.37  1399.66  1401.87  1404.00  1416.48  1418.41
eigval :     1431.49  1435.42  1436.44  1436.62  1443.46  1443.68
eigval :     1461.96  1471.80  1472.52  1476.43  1476.75  1482.54
eigval :     1490.44  1492.43  1498.26  1518.43  1537.72  1542.63
eigval :     1549.92  1555.60  1556.88  1560.24  1566.85  1577.32
eigval :     1577.63  1581.20  1581.40  1583.21  1584.75  1586.21
eigval :     1590.61  1594.98  1595.19  1597.73  1599.53  1603.24
eigval :     1605.59  2372.47  2377.51  3075.40  3075.71  3075.95
eigval :     3075.99  3076.26  3076.62  3076.73  3077.12  3077.22
eigval :     3077.79  3078.48  3078.71  3084.98  3085.02  3085.79
eigval :     3086.04  3086.52  3086.67  3087.59  3088.08  3088.73
eigval :     3089.13  3089.64  3089.95  3090.09  3090.27  3091.03
eigval :     3091.09  3091.95  3092.52  3097.28  3097.82  3097.87
eigval :     3098.43  3098.82  3100.76  3101.81  3103.18  3104.32
eigval :     3109.45  3112.13  3113.91

   temp. (K)  partition function   enthalpy   heat capacity  entropy
                                   cal/mol     cal/K/mol   cal/K/mol   J/K/mol
 298.15  VIB  0.429E+30            34579.659    210.238    221.004
         ROT  0.436E+09              888.752      2.981     42.513
         INT  0.187E+39            35468.412    213.219    263.516
         TR   0.264E+29             1481.254      4.968     46.270
         TOT                       36949.6655   218.1872   309.7862  1296.1453

       T/K    H(0)-H(T)+PV         H(T)/Eh          T*S/Eh         G(T)/Eh
   ------------------------------------------------------------------------
    298.15    0.588830E-01    0.918285E+00    0.147189E+00    0.771095E+00
   ------------------------------------------------------------------------

         :::::::::::::::::::::::::::::::::::::::::::::::::::::
         ::                  THERMODYNAMIC                  ::
         :::::::::::::::::::::::::::::::::::::::::::::::::::::
         :: total free energy        -177.364246220247 Eh   ::
         ::.................................................::
         :: total energy             -178.135341514827 Eh   ::
         :: zero point energy           0.859401651397 Eh   ::
         :: G(RRHO) w/o ZPVE           -0.088306356817 Eh   ::
         :: G(RRHO) contrib.            0.771095294580 Eh   ::
         :::::::::::::::::::::::::::::::::::::::::::::::::::::

           -------------------------------------------------
          | TOTAL ENERGY             -178.135341514827 Eh   |
          | TOTAL ENTHALPY           -177.217056823404 Eh   |
          | TOTAL FREE ENERGY        -177.364246220247 Eh   |
          | GRADIENT NORM               0.000047823556 Eh/α |
          | HOMO-LUMO GAP               1.441736780193 eV   |
           -------------------------------------------------

 * finished run on 2025/08/25 at 03:40:35.143
