   * xtb version 6.7.1 (edcfbbe) compiled by 'albert@albert-system' on 2024-07-22

   ID    Z sym.   atoms
    1    7 N      1, 8, 18, 42, 61, 67
    2    6 C      2-7, 9-17, 19-41, 43-60, 62-66, 68-71
    3    1 H      72-113

          program call               : xtb data2507/gas/3,6-T2C/3,6-T2C_gas_S0_finalOpt.xtbopt.xyz --gfn 2 --spinpol --tblite --uhf 2 --ohess vtight --parallel 40 --molden --ceasefiles --namespace data2507/gas/3,6-T2C/3,6-T2C_gas_T1_preOpt
 * total energy  :  -178.0566027 Eh     change        0.1872061E-07 Eh
 * total energy  :  -178.0604209 Eh     change       -0.3818191E-02 Eh
 * total energy  :  -178.0619733 Eh     change       -0.1552343E-02 Eh
 * total energy  :  -178.0621185 Eh     change       -0.1451828E-03 Eh
 * total energy  :  -178.0624932 Eh     change       -0.3747362E-03 Eh
 * total energy  :  -178.0627130 Eh     change       -0.2198331E-03 Eh
 * total energy  :  -178.0629425 Eh     change       -0.2295130E-03 Eh
 * total energy  :  -178.0630566 Eh     change       -0.1140196E-03 Eh
 * total energy  :  -178.0631673 Eh     change       -0.1107108E-03 Eh
 * total energy  :  -178.0632602 Eh     change       -0.9290742E-04 Eh
 * total energy  :  -178.0639003 Eh     change       -0.8128044E-06 Eh
 * total energy  :  -178.0639010 Eh     change       -0.6747900E-06 Eh
 * total energy  :  -178.0639016 Eh     change       -0.5399904E-06 Eh
 * total energy  :  -178.0639020 Eh     change       -0.3867606E-06 Eh
 * total energy  :  -178.0639028 Eh     change       -0.8006845E-06 Eh
 * total energy  :  -178.0639036 Eh     change       -0.8897343E-06 Eh
 * total energy  :  -178.0639045 Eh     change       -0.8251638E-06 Eh
 * total energy  :  -178.0639052 Eh     change       -0.7820182E-06 Eh
 * total energy  :  -178.0639053 Eh     change       -0.1257908E-07 Eh
   *** GEOMETRY OPTIMIZATION CONVERGED AFTER 122 ITERATIONS ***

 final structure:
================
113
 xtb: 6.7.1 (edcfbbe)
N           12.11949449592654       -4.29497574581571       -0.20051602054891
C           11.05515615849565       -3.85886201274536       -0.16898586255428
C            9.75707723072724       -3.32882538385692       -0.12748131997335
C            8.69051954497920       -4.09523291285912        0.37716292529749
C            7.43010593147644       -3.56804081765321        0.42645112358290
C            7.16943294043746       -2.24506756090057       -0.00519325390687
C            5.82718465474073       -1.78681944848307        0.08065788974053
N            4.80303765522840       -2.63870733914769        0.14794010029119
C            3.69056728891210       -1.91472144202152        0.09174358526156
C            2.35185828647479       -2.38310537765977        0.08453883426519
C            2.06301654905800       -3.75301574724038        0.10019478405974
C            0.76345426332953       -4.19630642278451        0.07595906727892
C           -0.28736937242687       -3.27367900596772        0.04736267571682
C           -1.68147473358022       -3.71341450637356        0.03418954054224
C           -2.66049054831997       -3.01099189268260        0.74226975377624
C           -3.97763733562963       -3.40860538121747        0.72411416297758
C           -4.37285484959528       -4.52233132617949       -0.02201519135945
N           -5.71032099934009       -4.90827669723410       -0.06275862778312
C           -6.05345787408133       -6.26352731607214       -0.15325716980486
C           -5.31969624940157       -7.22660072408454        0.53891839921594
C           -5.66433743910314       -8.56091687685382        0.44567866779201
C           -6.74398554900704       -8.95435106418444       -0.32834498483893
C           -7.47849791740746       -8.00044312962190       -1.01402775741489
C           -7.13797849731276       -6.66430621031873       -0.93308070647007
C           -6.72205876230256       -3.94129807282920       -0.00962759019918
C           -7.89759068653578       -4.18864558304904        0.69914953757389
C           -8.89323093034654       -3.23254976180391        0.74833351223916
C           -8.73260599543563       -2.01772370289750        0.10181706279133
C           -7.56671823702618       -1.76715392089673       -0.60352160647801
C           -6.56864265496743       -2.71982070533929       -0.66585946170444
C           -3.39833449408359       -5.23469921123189       -0.72655197169639
C           -2.07968058391191       -4.83992899465644       -0.68947469784747
C            0.00635887738602       -1.90998342722992        0.03255950647675
C            1.31113493497951       -1.42562457753076        0.04831468498417
C            1.62523820705451        0.00105565398499        0.06172365793029
C            0.62786044951517        0.95547025548337        0.04809398848958
C            0.87078368951652        2.33579869827858        0.13924707851721
C           -0.22241142748929        3.27896596334367        0.10188858505639
C           -0.15702709440986        4.51399998420815        0.77023319217292
C           -1.20795003857840        5.39693088602286        0.75295586068053
C           -2.38241325821487        5.09722958464373        0.05053550337562
N           -3.45371094561169        5.98371952463122        0.03584641298347
C           -3.22810256636550        7.36530600958944        0.06822588434883
C           -2.15763168680390        7.92328297090505       -0.63117861651076
C           -1.93978952473731        9.28649750852763       -0.59319162947035
C           -2.78356782477598       10.11195843421663        0.13267372174560
C           -3.85081776783392        9.56248836590623        0.82505452089730
C           -4.07435837816623        8.19993646827222        0.79866104778526
C           -4.76594445754044        5.49914244056715       -0.01456271335670
C           -5.12190809916945        4.34669117628709        0.68729301913074
C           -6.41625169454929        3.86907213525728        0.62712046828773
C           -7.37466795592423        4.53220450401529       -0.12254780102520
C           -7.02779665971195        5.68106639045005       -0.81548168914039
C           -5.73462228939511        6.16337311311887       -0.76779888739376
C           -2.45314828992780        3.87922209278057       -0.63766372197317
C           -1.40423966592405        2.99552984860081       -0.60629877117967
C            2.21129375792893        2.74970571038561        0.29507691736510
C            3.22834989876963        1.84561485057458        0.27023117414770
C            2.99369587022521        0.45178755253043        0.11141677055874
C            3.99451489474957       -0.51498256713512        0.03745546530916
N            5.37535506122571       -0.45776590970696        0.02522466661345
C            6.18724197253600        0.67654927500594        0.01405250321834
C            7.15316390570183        0.85428411942638        1.01199303862648
C            7.96255545827327        1.96555334137322        1.00071139088625
C            7.82913859215597        2.92195519846402       -0.01457883994705
C            8.65182790877995        4.06368095765347       -0.02628920501369
N            9.31717622246979        5.00040275727620       -0.03647225810866
C            6.86943125634325        2.73920081283674       -1.01948802532991
C            6.05708899659835        1.62993732072537       -1.00356944009518
C            8.24111961175056       -1.50227843763209       -0.54826155640326
C            9.50298441436138       -2.03351531939524       -0.60674139077012
H            8.88268307166023       -5.09959431372770        0.72544417573290
H            6.60226452949919       -4.14279941295579        0.80988295991351
H            2.89293995868621       -4.44137698460038        0.13114833996129
H            0.54860928132015       -5.25384874630365        0.10749738138258
H           -2.37549210861130       -2.16298106856806        1.34713749470968
H           -4.71471294379998       -2.86606710168395        1.29782066223220
H           -4.48610394858051       -6.91949737384740        1.15334132775748
H           -5.09088763393672       -9.29746597250185        0.98851395437200
H           -7.01167048918629       -9.99758590103808       -0.39623484231165
H           -8.31848186470028       -8.29929690352925       -1.62326228496767
H           -7.70485999558569       -5.92233751151006       -1.47614653666931
H           -8.01960873012352       -5.13049910160821        1.21351197636649
H           -9.79734841250532       -3.43456969636802        1.30313024425816
H           -9.51155523916840       -1.27200273982317        0.14612128802000
H           -7.43631458589116       -0.82594768729583       -1.11703762167827
H           -5.66631162695459       -2.52837696867287       -1.22787967777394
H           -3.69040631812143       -6.09081404571903       -1.31672543101513
H           -1.34809292373431       -5.38828546968934       -1.26377355699904
H           -0.82659727073172       -1.22730823650870       -0.01622944382603
H           -0.40246855425029        0.64251553703733        0.01077879857318
H            0.71875070686251        4.75800033999859        1.35154578307564
H           -1.14403440771996        6.32409806435334        1.30357218808040
H           -1.50831738757416        7.28177486100122       -1.20858284354367
H           -1.11025049115219        9.70797344310609       -1.14094537214461
H           -2.61082122192689       11.17683120328528        0.15818515115369
H           -4.50975678434630       10.19863572749480        1.39690627313272
H           -4.89937214467460        7.77073552666626        1.34811376912449
H           -4.37918245487321        3.83788961952724        1.28399314217726
H           -6.68028232155299        2.97764620478637        1.17666104592442
H           -8.38572434772475        4.15720795842813       -0.16527802589188
H           -7.76790728505973        6.20130290717810       -1.40496958472230
H           -5.46245644048162        7.05168198237912       -1.31858032627018
H           -3.33784669255908        3.64858395442707       -1.21325963582152
H           -1.47546057019289        2.08378535780755       -1.17971620247655
H            2.43929175936754        3.79958230096662        0.39894113205387
H            4.24078053792736        2.19229383935668        0.39519586380288
H            7.25023831064447        0.11283294772161        1.79090395965920
H            8.70054197370426        2.11225177574775        1.77504915413814
H            6.77926660111245        3.47154040723103       -1.80805469155289
H            5.32060596095122        1.47788309602923       -1.77915174302040
H            8.06763494747688       -0.52377078277039       -0.96646332159119
H           10.31480352335892       -1.46043306572385       -1.03103041152341

 projected vibrational frequencies (cm⁻¹)
eigval :       -0.00    -0.00    -0.00    -0.00     0.00     0.00
eigval :        4.31     6.93     9.03    10.11    10.87    16.28
eigval :       22.84    25.70    31.08    34.09    38.18    42.63
eigval :       46.22    47.58    48.57    52.20    58.76    61.46
eigval :       67.72    72.69    78.32    81.95    91.26    94.95
eigval :      104.59   108.06   111.44   113.82   123.86   125.68
eigval :      136.91   139.21   150.03   157.75   181.05   189.93
eigval :      199.29   207.16   216.30   221.10   229.65   233.97
eigval :      240.65   245.19   251.17   268.13   272.60   294.82
eigval :      306.35   309.92   317.33   324.69   335.67   351.77
eigval :      357.28   364.46   369.36   371.13   377.72   377.88
eigval :      378.97   379.67   380.61   389.09   389.87   400.01
eigval :      400.76   402.20   409.34   413.68   424.97   431.67
eigval :      451.84   453.48   459.08   470.48   478.61   490.74
eigval :      493.32   504.92   510.54   512.90   514.21   521.18
eigval :      531.27   534.91   540.48   547.47   566.63   582.06
eigval :      583.03   583.98   586.71   588.99   592.70   593.59
eigval :      595.30   600.61   602.68   610.58   611.88   619.60
eigval :      624.95   630.57   644.30   652.33   659.42   659.94
eigval :      660.17   664.46   667.55   670.10   673.11   680.30
eigval :      684.23   693.28   693.77   716.10   719.87   724.58
eigval :      756.06   757.41   757.71   760.46   767.73   780.57
eigval :      797.76   802.16   809.30   810.38   813.91   820.49
eigval :      834.23   840.56   844.56   853.38   857.71   861.21
eigval :      862.48   868.38   873.52   874.38   874.70   875.76
eigval :      894.55   894.81   895.30   895.79   904.28   909.06
eigval :      909.38   909.90   911.18   912.81   914.48   915.39
eigval :      915.86   918.43   920.00   923.05   924.15   926.62
eigval :      928.16   928.34   929.42   929.52   929.72   929.87
eigval :      929.97   930.09   932.21   947.27   978.61   983.79
eigval :      990.01   998.36  1003.85  1004.76  1008.15  1014.84
eigval :     1028.23  1056.74  1070.82  1081.71  1082.45  1082.76
eigval :     1083.46  1091.45  1106.69  1121.53  1121.64  1123.60
eigval :     1123.74  1130.00  1135.01  1137.79  1146.12  1147.61
eigval :     1157.23  1169.00  1174.91  1179.28  1179.59  1179.87
eigval :     1180.47  1182.42  1185.40  1189.51  1193.27  1194.29
eigval :     1195.60  1197.58  1212.50  1217.24  1220.78  1228.90
eigval :     1234.38  1243.06  1250.33  1259.74  1262.36  1268.88
eigval :     1272.40  1273.79  1277.13  1277.52  1279.34  1280.28
eigval :     1289.69  1300.06  1306.30  1307.75  1309.74  1313.75
eigval :     1316.55  1316.93  1317.88  1323.02  1324.94  1326.00
eigval :     1327.04  1327.55  1330.42  1332.16  1345.47  1353.94
eigval :     1371.91  1394.05  1410.96  1412.91  1414.35  1421.74
eigval :     1426.18  1428.83  1431.85  1435.79  1437.31  1440.92
eigval :     1441.79  1443.70  1463.51  1464.97  1467.35  1467.58
eigval :     1467.70  1470.62  1470.81  1473.92  1490.75  1500.89
eigval :     1508.00  1510.78  1521.90  1530.19  1545.18  1550.10
eigval :     1556.08  1559.65  1571.95  1575.26  1576.26  1579.25
eigval :     1583.67  1586.68  1586.79  1590.31  1590.42  1593.13
eigval :     1598.28  2322.31  2341.95  3077.93  3078.36  3079.48
eigval :     3079.82  3079.85  3080.38  3080.59  3080.96  3081.05
eigval :     3081.70  3082.32  3082.44  3082.51  3082.80  3084.75
eigval :     3086.81  3087.46  3087.79  3088.27  3089.01  3089.15
eigval :     3089.94  3091.00  3091.82  3092.39  3092.52  3093.12
eigval :     3093.46  3094.69  3094.97  3098.64  3098.69  3099.52
eigval :     3099.72  3100.74  3101.18  3102.27  3108.00  3110.34
eigval :     3111.66  3114.62  3123.40

   temp. (K)  partition function   enthalpy   heat capacity  entropy
                                   cal/mol     cal/K/mol   cal/K/mol   J/K/mol
 298.15  VIB  0.684E+30            34771.470    211.914    222.236
         ROT  0.425E+09              888.752      2.981     42.464
         INT  0.291E+39            35660.223    214.895    264.700
         TR   0.264E+29             1481.254      4.968     46.270
         TOT                       37141.4767   219.8629   310.9696  1301.0968

       T/K    H(0)-H(T)+PV         H(T)/Eh          T*S/Eh         G(T)/Eh
   ------------------------------------------------------------------------
    298.15    0.591887E-01    0.914806E+00    0.147752E+00    0.767054E+00
   ------------------------------------------------------------------------

         :::::::::::::::::::::::::::::::::::::::::::::::::::::
         ::                  THERMODYNAMIC                  ::
         :::::::::::::::::::::::::::::::::::::::::::::::::::::
         :: total free energy        -177.296851363047 Eh   ::
         ::.................................................::
         :: total energy             -178.063905173319 Eh   ::
         :: zero point energy           0.855616790397 Eh   ::
         :: G(RRHO) w/o ZPVE           -0.088562980125 Eh   ::
         :: G(RRHO) contrib.            0.767053810272 Eh   ::
         :::::::::::::::::::::::::::::::::::::::::::::::::::::

           -------------------------------------------------
          | TOTAL ENERGY             -178.063905173319 Eh   |
          | TOTAL ENTHALPY           -177.149099672222 Eh   |
          | TOTAL FREE ENERGY        -177.296851363047 Eh   |
          | GRADIENT NORM               0.000134623239 Eh/α |
           -------------------------------------------------

 * finished run on 2025/08/25 at 03:57:30.091
