   * xtb version 6.7.1 (edcfbbe) compiled by 'albert@albert-system' on 2024-07-22

   ID    Z sym.   atoms
    1    7 N      1, 8, 18, 42, 61, 67
    2    6 C      2-7, 9-17, 19-41, 43-60, 62-66, 68-71
    3    1 H      72-113

          program call               : xtb data2507/gas/3,6-T2C/3,6-T2C_gas_S0_crest.xyz --gfn 2 --ohess vtight --parallel 40 --molden --ceasefiles --namespace data2507/gas/3,6-T2C/3,6-T2C_gas_S0_finalOpt
          :  Hamiltonian                  GFN2-xTB          :
 * total energy  :  -178.1358207 Eh     change       -0.4602526E-08 Eh
 * total energy  :  -178.1358209 Eh     change       -0.1445817E-06 Eh
 * total energy  :  -178.1358215 Eh     change       -0.6799524E-06 Eh
 * total energy  :  -178.1358229 Eh     change       -0.1357698E-05 Eh
 * total energy  :  -178.1358253 Eh     change       -0.2393897E-05 Eh
 * total energy  :  -178.1358271 Eh     change       -0.1837385E-05 Eh
 * total energy  :  -178.1358291 Eh     change       -0.2001852E-05 Eh
 * total energy  :  -178.1358326 Eh     change       -0.3441294E-05 Eh
 * total energy  :  -178.1358349 Eh     change       -0.2343456E-05 Eh
 * total energy  :  -178.1358364 Eh     change       -0.1500814E-05 Eh
 * total energy  :  -178.1358733 Eh     change       -0.7215722E-06 Eh
 * total energy  :  -178.1358745 Eh     change       -0.1233911E-05 Eh
 * total energy  :  -178.1358745 Eh     change        0.2163461E-07 Eh
 * total energy  :  -178.1358752 Eh     change       -0.7271401E-06 Eh
 * total energy  :  -178.1358758 Eh     change       -0.5649587E-06 Eh
 * total energy  :  -178.1358763 Eh     change       -0.4807489E-06 Eh
 * total energy  :  -178.1358768 Eh     change       -0.5204292E-06 Eh
 * total energy  :  -178.1358772 Eh     change       -0.3913124E-06 Eh
 * total energy  :  -178.1358773 Eh     change       -0.8515914E-07 Eh
   *** GEOMETRY OPTIMIZATION CONVERGED AFTER 34 ITERATIONS ***

 final structure:
================
113
 xtb: 6.7.1 (edcfbbe)
N           12.33651400488135       -3.98538626440425        0.20965746127260
C           11.25138929019368       -3.61644290922747        0.17799850966890
C            9.91506404764974       -3.15914352195046        0.14133846202829
C            8.92096491209650       -3.84106236266037        0.84744599968138
C            7.62350113594543       -3.38226593654694        0.81474573767479
C            7.28845306310430       -2.23604712196573        0.08667986470234
C            5.89780845978804       -1.82206526896312        0.09203531082636
N            4.90900405661628       -2.67557630582356        0.17739596214942
C            3.76804400586809       -1.94431822007510        0.12319895652335
C            2.42689135406683       -2.41875695853331        0.14512393376893
C            2.12342061120533       -3.78292061653591        0.21788376282573
C            0.81991496179763       -4.21044806395700        0.21816621866620
C           -0.22232678938223       -3.27637683605629        0.15360894800795
C           -1.63337192114129       -3.68187282072178        0.15768818059162
C           -2.56590252205190       -2.95760196517850        0.90036395137448
C           -3.90569335790967       -3.27311217414330        0.86225412938193
C           -4.36376726012533       -4.31774894490549        0.05799949130550
N           -5.73115194338121       -4.59110134926563       -0.02699159069472
C           -6.18299213995715       -5.90970957836219       -0.14864479858714
C           -5.53664243353919       -6.94394919099555        0.52792222468016
C           -5.98442603223257       -8.24443032788932        0.40183402706344
C           -7.08374707268775       -8.53504775970524       -0.38935812221640
C           -7.73197917774813       -7.51076290219028       -1.05994580023920
C           -7.28665100726809       -6.20821368434535       -0.94738559974642
C           -6.64997193054229       -3.53462209644576        0.01007050185692
C           -7.86769209900251       -3.67740125038161        0.67460541514574
C           -8.76617127449889       -2.62880860438940        0.71412832547694
C           -8.46566315648529       -1.42202257253937        0.10388435088890
C           -7.25760524529846       -1.27419449935809       -0.55785440460052
C           -6.35764977173273       -2.32056628527637       -0.61221631916092
C           -3.43206403886197       -5.06595080820002       -0.66270073363414
C           -2.08890038978083       -4.75586914265072       -0.60353627341765
C            0.08133390408306       -1.92846063864384        0.07519651805732
C            1.39678174531347       -1.45562464195452        0.07055224389702
C            1.71436011357123       -0.03895910299580        0.01772009641140
C            0.70556981171752        0.92580370917672       -0.01445716731311
C            0.96216868470096        2.28550427167488       -0.01127411952181
C           -0.16572693534436        3.22219046482000       -0.04915792447810
C           -0.19929813674275        4.36296147328820        0.75008379889334
C           -1.30989153610264        5.18080537188598        0.77507389930146
C           -2.42176572595441        4.88996985465114       -0.01690141520820
N           -3.57117952124738        5.68016054275533        0.03423882430857
C           -3.47147085737319        7.06429955604193        0.21617883160734
C           -2.43724635706566        7.78282289516647       -0.38301168525039
C           -2.34184766826757        9.14849785229495       -0.19965798701220
C           -3.27526267871406        9.82000607705970        0.57281582030426
C           -4.30679211588847        9.11136440642094        1.16680997285272
C           -4.40601468461321        7.74427282073827        0.99656072509314
C           -4.83023591595324        5.07833409390931       -0.09200854043964
C           -5.07585525572623        3.82654558892531        0.47275042024916
C           -6.31289853803280        3.22836134097436        0.33194391694799
C           -7.32697894297213        3.86997073456609       -0.36019823438480
C           -7.09218185482908        5.11801055935670       -0.91360158273107
C           -5.85477513080274        5.71925633477701       -0.78763569982054
C           -2.37135191001204        3.77702738755673       -0.85826046438018
C           -1.26658347159713        2.95577466515930       -0.86405299902354
C            2.29196794490627        2.71422414204070        0.05903562264263
C            3.31260495505570        1.79713949943803        0.07254131285474
C            3.06054118613117        0.41744008037903        0.02459982698932
C            4.07039605340831       -0.58493311002551        0.01726630064185
N            5.44644508822783       -0.51993197452044       -0.01322842376999
C            6.26424743991617        0.61585728584821       -0.12474581035794
C            7.15017681338382        0.93144690881815        0.90262940925580
C            7.98073818437826        2.02678493547481        0.78347091882984
C            7.92970017978862        2.81464629132943       -0.36724719663323
C            8.77914966006599        3.93873201408103       -0.49226406593914
N            9.46533388530808        4.85071133624151       -0.59542075086381
C            7.04154955926344        2.49780894686583       -1.39747994506555
C            6.21430168473059        1.40126855277894       -1.27638547850296
C            8.28215105193365       -1.57829285050961       -0.64089585487642
C            9.58428454729411       -2.03144626529494       -0.61113468727878
H            9.17938230393215       -4.72256451177698        1.41515645961454
H            6.84053478297691       -3.89718347048187        1.34854124435398
H            2.94448024967499       -4.48100786778266        0.27105267593458
H            0.58904467953540       -5.26320941546708        0.28712938918824
H           -2.22991714440075       -2.15084884859447        1.53553830013873
H           -4.61277171009677       -2.70787082308423        1.45167001143342
H           -4.68617929278548       -6.71829888765924        1.15464318373413
H           -5.47618897992621       -9.03571747821454        0.93315784569239
H           -7.43299751936634       -9.55211625997479       -0.48232138531275
H           -8.58691907333648       -7.72843650302140       -1.68318012715066
H           -7.78779882811199       -5.41267253399689       -1.47932551274291
H           -8.10008256897529       -4.61285611618276        1.16222165951148
H           -9.70438467606456       -2.75239304398164        1.23486760869846
H           -9.16838862871553       -0.60351040721956        0.14270642021887
H           -7.01682129022437       -0.33946806490789       -1.04344298486712
H           -5.42119478607535       -2.20559237205553       -1.13829898994887
H           -3.77222829779670       -5.88126460215157       -1.28430156191725
H           -1.38570173905968       -5.32834138969929       -1.19063112258624
H           -0.74440236445888       -1.24013732486340       -0.00315960932923
H           -0.32689174048131        0.61822832034901       -0.01428025485947
H            0.63824050754080        4.58762015186982        1.39428366708684
H           -1.33217708251186        6.04267486995179        1.42578396777244
H           -1.71504174858365        7.26286428948740       -0.99549483986093
H           -1.53742990174273        9.69359264440511       -0.67135448334780
H           -3.19938027014386       10.88779620187228        0.71082697063118
H           -5.03600810810502        9.62574255911342        1.77530896125222
H           -5.20573534400125        7.19236574128404        1.46854739332934
H           -4.29073496218320        3.32863395219498        1.02284434635959
H           -6.48799173149291        2.25782270966864        0.77324489555909
H           -8.29356478488778        3.40141746602716       -0.46674743037455
H           -7.87607096602970        5.62454110569449       -1.45723784171421
H           -5.67142345103214        6.68725800124838       -1.23057328933576
H           -3.21117757774934        3.56027465723568       -1.50198221499514
H           -1.24381704921834        2.10440707832655       -1.52864541515343
H            2.51620623094691        3.77031240744983        0.08434743745335
H            4.32991226549591        2.15024225477142        0.13709475943546
H            7.18026219242008        0.31338866988049        1.78737912193932
H            8.66856037150427        2.28052919208377        1.57578816582965
H            7.01035004809376        3.11129312779528       -2.28531303640937
H            5.52327025395286        1.14351397899136       -2.06537897526939
H            8.03807820965876       -0.72553510016997       -1.25569491921069
H           10.35199173389296       -1.52168741100051       -1.17450619235889

          :  Hamiltonian                  GFN2-xTB          :
         :: gradient norm              0.000191677313 Eh/a0 ::
         :: HOMO-LUMO gap              1.451671916538 eV    ::
         :: SCC energy              -181.560841123363 Eh    ::
         :: -> dispersion             -0.164261055394 Eh    ::
         :: repulsion energy           3.424963870699 Eh    ::

    * Orbital Energies and Occupations

         #    Occupation            Energy/Eh            Energy/eV
      -------------------------------------------------------------
         1        2.0000           -0.7036231             -19.1466
       ...           ...                  ...                  ...
       154        2.0000           -0.4100480             -11.1580
       155        2.0000           -0.4093010             -11.1376
       156        2.0000           -0.4085930             -11.1184
       157        2.0000           -0.4082693             -11.1096
       158        2.0000           -0.4069196             -11.0728
       159        2.0000           -0.4060478             -11.0491
       160        2.0000           -0.4054609             -11.0332
       161        2.0000           -0.3983291             -10.8391
       162        2.0000           -0.3917759             -10.6608
       163        2.0000           -0.3889116             -10.5828
       164        2.0000           -0.3742245             -10.1832
       165        2.0000           -0.3525806              -9.5942
       166        2.0000           -0.3499115              -9.5216 (HOMO)
       167                         -0.2965635              -8.0699 (LUMO)
       168                         -0.2883300              -7.8459
       169                         -0.2676267              -7.2825
       170                         -0.2649304              -7.2091
       171                         -0.2560499              -6.9675
       172                         -0.2500982              -6.8055
       173                         -0.2447194              -6.6592
       174                         -0.2338944              -6.3646
       175                         -0.2322204              -6.3190
       176                         -0.2313940              -6.2966
       177                         -0.2311695              -6.2904
       ...                                ...                  ...
       326                          1.1681580              31.7872
      -------------------------------------------------------------
                  HL-Gap            0.0533479 Eh            1.4517 eV

     #   Z          covCN         q      C6AA      α(0)
     1   7 N        0.911    -0.230    26.028     7.379
     2   6 C        1.912     0.112    28.340     8.597
     3   6 C        2.973     0.020    27.554     8.610
     4   6 C        2.924    -0.018    28.464     8.749
     5   6 C        2.928    -0.025    28.627     8.774
     6   6 C        2.974     0.010    27.800     8.649
     7   6 C        3.186     0.125    24.849     8.134
     8   7 N        1.896    -0.283    28.191     7.872
     9   6 C        3.202     0.059    26.120     8.327
    10   6 C        2.985     0.000    28.015     8.682
    11   6 C        2.918    -0.032    28.786     8.798
    12   6 C        2.921    -0.034    28.845     8.807
    13   6 C        2.975     0.009    27.810     8.650
    14   6 C        2.978     0.001    28.009     8.681
    15   6 C        2.925    -0.035    28.871     8.812
    16   6 C        2.921    -0.049    29.212     8.863
    17   6 C        2.924     0.064    26.575     8.454
    18   7 N        2.752    -0.075    22.692     7.075
    19   6 C        2.923     0.065    26.545     8.449
    20   6 C        2.922    -0.048    29.184     8.859
    21   6 C        2.920    -0.029    28.730     8.790
    22   6 C        2.919    -0.038    28.952     8.824
    23   6 C        2.920    -0.029    28.729     8.790
    24   6 C        2.922    -0.048    29.183     8.859
    25   6 C        2.925     0.065    26.538     8.448
    26   6 C        2.922    -0.047    29.175     8.858
    27   6 C        2.920    -0.029    28.731     8.790
    28   6 C        2.919    -0.038    28.952     8.824
    29   6 C        2.919    -0.029    28.735     8.790
    30   6 C        2.923    -0.047    29.177     8.858
    31   6 C        2.920    -0.049    29.213     8.863
    32   6 C        2.923    -0.034    28.839     8.807
    33   6 C        2.932    -0.041    29.030     8.836
    34   6 C        2.980    -0.001    28.051     8.688
    35   6 C        2.980     0.003    27.959     8.673
    36   6 C        2.932    -0.041    29.011     8.833
    37   6 C        2.974     0.009    27.808     8.650
    38   6 C        2.978    -0.000    28.033     8.685
    39   6 C        2.923    -0.033    28.834     8.806
    40   6 C        2.920    -0.049    29.214     8.863
    41   6 C        2.925     0.064    26.556     8.451
    42   7 N        2.752    -0.074    22.683     7.074
    43   6 C        2.924     0.065    26.548     8.450
    44   6 C        2.922    -0.048    29.181     8.859
    45   6 C        2.920    -0.029    28.728     8.789
    46   6 C        2.919    -0.038    28.944     8.822
    47   6 C        2.920    -0.029    28.724     8.789
    48   6 C        2.922    -0.047    29.176     8.858
    49   6 C        2.925     0.065    26.545     8.449
    50   6 C        2.923    -0.047    29.172     8.857
    51   6 C        2.919    -0.029    28.728     8.789
    52   6 C        2.919    -0.038    28.941     8.822
    53   6 C        2.920    -0.029    28.727     8.789
    54   6 C        2.922    -0.047    29.171     8.857
    55   6 C        2.921    -0.049    29.207     8.862
    56   6 C        2.925    -0.035    28.866     8.811
    57   6 C        2.920    -0.036    28.894     8.815
    58   6 C        2.917    -0.041    29.010     8.832
    59   6 C        2.977    -0.006    28.160     8.705
    60   6 C        3.070     0.022    27.443     8.590
    61   7 N        2.840    -0.046    22.118     6.985
    62   6 C        2.912     0.076    26.296     8.409
    63   6 C        2.920    -0.036    28.889     8.814
    64   6 C        2.926    -0.017    28.445     8.746
    65   6 C        2.973     0.021    27.541     8.608
    66   6 C        1.912     0.112    28.327     8.595
    67   7 N        0.911    -0.220    25.812     7.348
    68   6 C        2.926    -0.019    28.476     8.751
    69   6 C        2.920    -0.034    28.846     8.808
    70   6 C        2.920    -0.033    28.816     8.803
    71   6 C        2.925    -0.020    28.516     8.757
    72   1 H        0.926     0.049     2.335     2.390
    73   1 H        0.926     0.062     2.173     2.305
    74   1 H        0.926     0.051     2.313     2.378
    75   1 H        0.926     0.034     2.526     2.485
    76   1 H        0.926     0.032     2.554     2.499
    77   1 H        0.926     0.032     2.564     2.504
    78   1 H        0.926     0.032     2.562     2.503
    79   1 H        0.926     0.032     2.563     2.504
    80   1 H        0.926     0.030     2.581     2.512
    81   1 H        0.926     0.031     2.565     2.505
    82   1 H        0.926     0.031     2.567     2.506
    83   1 H        0.926     0.032     2.559     2.502
    84   1 H        0.926     0.032     2.563     2.503
    85   1 H        0.926     0.030     2.590     2.517
    86   1 H        0.926     0.031     2.568     2.506
    87   1 H        0.926     0.031     2.571     2.508
    88   1 H        0.926     0.033     2.550     2.497
    89   1 H        0.926     0.034     2.530     2.487
    90   1 H        0.926     0.035     2.514     2.479
    91   1 H        0.926     0.039     2.458     2.452
    92   1 H        0.926     0.033     2.549     2.497
    93   1 H        0.926     0.033     2.545     2.495
    94   1 H        0.926     0.031     2.567     2.506
    95   1 H        0.926     0.032     2.559     2.501
    96   1 H        0.926     0.031     2.572     2.508
    97   1 H        0.926     0.032     2.556     2.500
    98   1 H        0.926     0.032     2.560     2.502
    99   1 H        0.926     0.031     2.570     2.507
   100   1 H        0.926     0.032     2.553     2.499
   101   1 H        0.926     0.031     2.578     2.511
   102   1 H        0.926     0.032     2.555     2.500
   103   1 H        0.926     0.032     2.557     2.500
   104   1 H        0.926     0.033     2.548     2.496
   105   1 H        0.926     0.033     2.541     2.493
   106   1 H        0.926     0.031     2.573     2.509
   107   1 H        0.926     0.021     2.718     2.578
   108   1 H        0.926     0.048     2.351     2.398
   109   1 H        0.926     0.053     2.288     2.366
   110   1 H        0.926     0.053     2.288     2.366
   111   1 H        0.926     0.052     2.291     2.367
   112   1 H        0.926     0.031     2.577     2.510
   113   1 H        0.926     0.044     2.401     2.423

molecular dipole:
                 x           y           z       tot (Debye)
 q only:       -2.151       0.260       0.064
   full:       -2.823       0.497       0.046       7.286

 projected vibrational frequencies (cm⁻¹)
eigval :       -0.00     0.00     0.00     0.00     0.00     0.00
eigval :       -4.14     8.94     9.89    11.04    14.05    16.15
eigval :       21.08    24.89    29.73    33.13    38.33    44.51
eigval :       44.91    47.56    48.29    52.01    58.37    61.94
eigval :       67.47    72.24    73.81    79.08    93.63    94.28
eigval :       99.00   105.27   107.97   114.30   118.53   125.56
eigval :      134.43   138.06   150.62   158.61   180.96   187.96
eigval :      205.57   207.40   213.83   219.64   228.56   234.17
eigval :      240.17   248.67   254.29   266.61   274.58   300.82
eigval :      309.41   312.81   320.62   327.87   342.24   354.84
eigval :      363.26   367.27   370.84   374.03   375.88   378.75
eigval :      378.99   380.44   381.62   389.08   389.70   399.78
eigval :      404.10   405.87   416.94   430.48   436.55   447.14
eigval :      459.02   460.62   471.65   478.18   487.59   491.79
eigval :      492.22   505.08   508.94   520.81   524.04   532.37
eigval :      535.01   544.16   549.85   565.31   569.97   583.81
eigval :      584.29   584.96   587.50   592.35   593.75   593.83
eigval :      598.28   603.17   608.29   614.64   616.32   630.69
eigval :      634.98   639.68   652.59   654.67   659.90   660.22
eigval :      665.61   668.17   672.76   681.49   687.17   693.16
eigval :      696.18   698.16   700.78   719.84   723.00   734.54
eigval :      757.36   757.46   758.37   761.44   772.78   790.60
eigval :      806.96   810.37   812.86   821.01   825.17   831.11
eigval :      835.80   857.16   866.34   867.77   868.25   868.92
eigval :      871.99   874.74   875.23   876.40   877.68   878.74
eigval :      892.13   892.57   893.27   893.87   910.16   910.28
eigval :      912.74   914.49   915.48   917.54   917.83   918.73
eigval :      923.15   925.66   926.36   927.70   927.79   927.85
eigval :      928.36   928.43   929.26   929.95   930.15   930.32
eigval :      931.00   932.46   951.08   966.83   983.65   985.41
eigval :     1004.16  1004.98  1005.13  1009.99  1019.97  1026.42
eigval :     1043.21  1071.50  1083.22  1083.33  1084.31  1084.34
eigval :     1087.41  1106.89  1121.88  1121.99  1124.16  1124.35
eigval :     1127.30  1132.63  1134.92  1142.57  1144.11  1156.44
eigval :     1175.01  1178.75  1180.43  1180.76  1180.80  1182.86
eigval :     1186.82  1187.39  1187.94  1195.41  1196.17  1196.46
eigval :     1197.90  1202.42  1216.48  1216.81  1227.98  1230.83
eigval :     1235.13  1249.31  1258.93  1265.05  1270.50  1272.23
eigval :     1278.64  1278.77  1280.03  1280.79  1286.78  1290.10
eigval :     1302.34  1307.12  1310.78  1313.08  1314.11  1318.50
eigval :     1319.72  1320.65  1322.06  1325.79  1326.38  1326.98
eigval :     1327.15  1333.32  1334.88  1339.09  1348.60  1374.39
eigval :     1396.72  1399.77  1402.06  1404.07  1416.34  1417.61
eigval :     1431.21  1436.22  1436.40  1437.07  1443.40  1443.64
eigval :     1461.79  1471.68  1472.43  1476.19  1477.04  1482.63
eigval :     1489.67  1491.95  1499.18  1517.80  1538.56  1543.19
eigval :     1550.06  1555.69  1556.82  1559.87  1565.56  1577.14
eigval :     1577.36  1581.07  1581.19  1583.11  1584.71  1586.17
eigval :     1590.14  1594.60  1595.17  1597.47  1599.26  1602.96
eigval :     1604.96  2372.74  2377.28  3073.45  3074.30  3075.46
eigval :     3075.89  3076.04  3076.35  3076.59  3076.99  3077.16
eigval :     3077.67  3078.22  3078.28  3083.33  3083.74  3085.64
eigval :     3085.96  3086.40  3086.61  3087.53  3088.04  3088.48
eigval :     3089.15  3089.51  3089.76  3090.00  3090.43  3090.67
eigval :     3091.01  3091.93  3092.45  3096.48  3097.12  3097.83
eigval :     3098.24  3100.75  3101.86  3102.41  3103.11  3103.45
eigval :     3108.13  3112.08  3118.34

   temp. (K)  partition function   enthalpy   heat capacity  entropy
                                   cal/mol     cal/K/mol   cal/K/mol   J/K/mol
 298.15  VIB  0.423E+30            34564.693    210.177    220.913
         ROT  0.407E+09              888.752      2.981     42.376
         INT  0.172E+39            35453.446    213.158    263.289
         TR   0.264E+29             1481.254      4.968     46.270
         TOT                       36934.6998   218.1261   309.5589  1295.1943

       T/K    H(0)-H(T)+PV         H(T)/Eh          T*S/Eh         G(T)/Eh
   ------------------------------------------------------------------------
    298.15    0.588592E-01    0.918317E+00    0.147081E+00    0.771236E+00
   ------------------------------------------------------------------------

         :::::::::::::::::::::::::::::::::::::::::::::::::::::
         ::                  THERMODYNAMIC                  ::
         :::::::::::::::::::::::::::::::::::::::::::::::::::::
         :: total free energy        -177.364641652409 Eh   ::
         ::.................................................::
         :: total energy             -178.135877252654 Eh   ::
         :: zero point energy           0.859457818137 Eh   ::
         :: G(RRHO) w/o ZPVE           -0.088222217891 Eh   ::
         :: G(RRHO) contrib.            0.771235600246 Eh   ::
         :::::::::::::::::::::::::::::::::::::::::::::::::::::

           -------------------------------------------------
          | TOTAL ENERGY             -178.135877252654 Eh   |
          | TOTAL ENTHALPY           -177.217560243879 Eh   |
          | TOTAL FREE ENERGY        -177.364641652409 Eh   |
          | GRADIENT NORM               0.000191334854 Eh/α |
          | HOMO-LUMO GAP               1.451671506349 eV   |
           -------------------------------------------------

 * finished run on 2025/08/25 at 03:56:51.690
