   * xtb version 6.7.1 (edcfbbe) compiled by 'albert@albert-system' on 2024-07-22

   ID    Z sym.   atoms
    1    6 C      1-4, 6-24, 26-35, 37-40, 42-64
    2    7 N      5, 25, 41
    3    8 O      36
    4    1 H      65-109

          program call               : xtb data2507/gas/CDBP-BP-DMAC/CDBP-BP-DMAC_gas_S0_finalOpt.xtbopt.xyz --gfn 2 --spinpol --tblite --uhf 2 --ohess vtight --parallel 40 --molden --ceasefiles --namespace data2507/gas/CDBP-BP-DMAC/CDBP-BP-DMAC_gas_T1_preOpt
 * total energy  :  -164.2920518 Eh     change       -0.5446421E-07 Eh
 * total energy  :  -164.2958765 Eh     change       -0.3824705E-02 Eh
 * total energy  :  -164.2969586 Eh     change       -0.1082049E-02 Eh
 * total energy  :  -164.2972023 Eh     change       -0.2437319E-03 Eh
 * total energy  :  -164.2974609 Eh     change       -0.2585667E-03 Eh
 * total energy  :  -164.2977024 Eh     change       -0.2415016E-03 Eh
 * total energy  :  -164.2979193 Eh     change       -0.2169401E-03 Eh
 * total energy  :  -164.2980505 Eh     change       -0.1311880E-03 Eh
 * total energy  :  -164.2981158 Eh     change       -0.6531635E-04 Eh
 * total energy  :  -164.2981749 Eh     change       -0.5905315E-04 Eh
 * total energy  :  -164.2992362 Eh     change       -0.1586814E-05 Eh
 * total energy  :  -164.2992378 Eh     change       -0.1601912E-05 Eh
 * total energy  :  -164.2992381 Eh     change       -0.3475840E-06 Eh
 * total energy  :  -164.2992385 Eh     change       -0.4249651E-06 Eh
 * total energy  :  -164.2992387 Eh     change       -0.1994323E-06 Eh
 * total energy  :  -164.2992391 Eh     change       -0.3254717E-06 Eh
 * total energy  :  -164.2992393 Eh     change       -0.1845365E-06 Eh
 * total energy  :  -164.2992395 Eh     change       -0.2143994E-06 Eh
 * total energy  :  -164.2992395 Eh     change       -0.7888022E-07 Eh
   *** GEOMETRY OPTIMIZATION CONVERGED AFTER 158 ITERATIONS ***

 final structure:
================
109
 xtb: 6.7.1 (edcfbbe)
C            6.68115252357015        2.31127882737231       -1.24366988076328
C            7.12779888317255        1.06032514498029       -0.54964304613695
C            8.47264733191882        0.73791174904243       -0.47075722169179
C            8.89631112002486       -0.42195778497831        0.16997618122460
N           10.26387282090393       -0.72248319067356        0.24329424966743
C           11.25563202455392        0.13293539286871        0.67834732095177
C           11.15344474688643        1.42293406664338        1.17964276209186
C           12.31658003712098        2.05625077333001        1.57326062692210
C           13.55534141070623        1.42537061293065        1.48189367313347
C           13.66069006289543        0.13340527060645        1.00659566505447
C           12.50570576396334       -0.52410500853600        0.60470583537780
C           12.24461916122893       -1.84038632982975        0.09320904964624
C           13.05559291571073       -2.92566753598811       -0.21084570348980
C           12.46964638662678       -4.06680755926268       -0.72125573666845
C           11.09556897512195       -4.12898831694898       -0.94282874152930
C           10.26796143300558       -3.06261338154968       -0.64823974047183
C           10.84801682758109       -1.92124648145619       -0.11304042522728
C            7.95680820783986       -1.27702051824414        0.73522405132194
C            6.61369696714103       -0.96486861414091        0.65076488813346
C            6.18832631002059        0.19542775512909        0.01783560781330
C            4.74198500337264        0.50510582799733       -0.05873075159056
C            4.02677942029333        0.17317826752419       -1.20208366330119
C            2.67924039644838        0.45669844368409       -1.30535698145176
C            2.02560007911172        1.07748604512963       -0.24556556852146
N            0.66150869302393        1.37945760434609       -0.33494637936084
C            0.09020012318478        2.60931755410005       -0.07682308425293
C            0.69019457524302        3.80230239628796        0.30056898961671
C           -0.12207076853326        4.90750420977960        0.47468559269675
C           -1.49729737421477        4.83811863045110        0.27002668053229
C           -2.09686601562007        3.65963141698478       -0.13441594688805
C           -1.30227561703949        2.53820967807439       -0.31643377441462
C           -1.57525629985093        1.19042743724011       -0.74053645981082
C           -2.73626351064524        0.53981736017760       -1.11620327164293
C           -2.67020826318292       -0.82108621440967       -1.43335340947207
C           -3.85038881495126       -1.58116092624445       -1.85543971761401
O           -3.67784720721578       -2.50405655491332       -2.71252913542685
C           -5.15477030151262       -1.27509035791820       -1.34543332990655
C           -6.27846564870127       -1.80737370546733       -2.02478326595920
C           -7.55138827009505       -1.56779549908659       -1.58223271668953
C           -7.76118554812005       -0.80764271134682       -0.42761417159355
N           -9.08354128796703       -0.54110853867050        0.03234821492778
C           -9.67560036357749        0.65841828494431       -0.29828651194725
C           -8.97195812200289        1.57750200120260       -1.08954141096442
C           -9.53093400709012        2.78747593670553       -1.43211911646677
C          -10.80701308423932        3.10641592630913       -0.99475124694809
C          -11.50916552717541        2.19856104719257       -0.22339974511587
C          -10.97218475061564        0.97070967128023        0.13734118581041
C          -11.79151449010248        0.00836248026511        0.97144940902969
C          -12.14202007362519        0.68707816389331        2.30924798946208
C          -13.07781383653329       -0.33955746513146        0.19843074943595
C          -11.03700798380120       -1.27218994796113        1.26191796238539
C          -11.63853978749895       -2.26932640365200        2.01677096638704
C          -10.98841168215700       -3.45210291477475        2.31797306730410
C           -9.69515636613659       -3.65553274641786        1.86236207288470
C           -9.07306107526026       -2.68515255465200        1.11052965892649
C           -9.73199833550571       -1.48867061483830        0.79412264282026
C           -6.66466166154068       -0.32311156786238        0.28935824548379
C           -5.38642194465514       -0.55537509765627       -0.15403784661320
C           -1.42046663694325       -1.47436825342273       -1.44759652041444
C           -0.25868677689304       -0.83355988487368       -1.08859950234774
C           -0.33355676961432        0.51200660135213       -0.74037765707205
C            2.73774533299822        1.40238990301381        0.90552371567037
C            4.09098361163222        1.12683198202845        1.01025076886111
C            4.84864975131794        1.47841278894071        2.25462797126377
H            6.00571448621765        2.88315632751820       -0.60904980726552
H            7.53269545462565        2.93401631526986       -1.50578837078764
H            6.13864844737028        2.06420265382975       -2.15564667035040
H            9.20797127213852        1.38648157968891       -0.92464609279033
H           10.19604469943908        1.91361343962771        1.27096473722010
H           12.26381152621838        3.06190618582469        1.96394616339540
H           14.44176019671969        1.95547995550682        1.79714048564092
H           14.61866960502249       -0.36123395240732        0.95057554947818
H           14.12234286195063       -2.87174268269747       -0.05365142732158
H           13.08204629760084       -4.92294882794665       -0.96228202898011
H           10.66794115694533       -5.02990150786823       -1.35764348531119
H            9.20671047956025       -3.11400637511864       -0.83965158452985
H            8.28214064866551       -2.16984896017905        1.24710850336926
H            5.87887770516958       -1.62785768771339        1.08442902780883
H            4.53908596569811       -0.30954963964023       -2.02182997183720
H            2.13521700579511        0.21888783895449       -2.20649459149905
H            1.75849271284508        3.87254823386834        0.43950257068391
H            0.32145816641825        5.84639436106410        0.77194548907233
H           -2.09906188515509        5.72200892180421        0.42057046937246
H           -3.16095955868641        3.61005915639780       -0.30985358012936
H           -3.66648698471211        1.08182706221590       -1.18132491027981
H           -6.09628685976637       -2.39473906565842       -2.91172440966386
H           -8.40526508395576       -1.95823154097370       -2.11723730063105
H           -7.98154247873704        1.32450190362389       -1.43321709172456
H           -8.97309653982943        3.48201315102771       -2.04154988035790
H          -11.25424609945408        4.05316304188720       -1.25598215814265
H          -12.50436273201214        2.46008250908464        0.10249860448308
H          -12.69920271853889        1.60468411347568        2.14343836815382
H          -12.74448853387344        0.03031241152702        2.93019985308655
H          -11.23016555154017        0.93131534574507        2.85087554501419
H          -13.70163273352142       -1.01970912531363        0.77128130624932
H          -12.82455154857026       -0.81778855519212       -0.74579992291787
H          -13.65556609128462        0.55538638055637       -0.01430043029899
H          -12.64313345496493       -2.12519065594862        2.38430904092614
H          -11.48623220208443       -4.20721240203925        2.90666973041692
H           -9.17184327820665       -4.57048789190574        2.09427995632958
H           -8.06550789235678       -2.83974319827199        0.75852585219438
H           -6.83683748229176        0.22719077026940        1.20396677174399
H           -4.55123744242778       -0.21687708182067        0.43999474078308
H           -1.40183869610405       -2.51638820348553       -1.72720137043955
H            0.67987137673591       -1.36661503451235       -1.06351697692824
H            2.21776116492592        1.86161657851096        1.73377609223994
H            4.23623951468673        2.07508337847854        2.92591009028085
H            5.75241902487796        2.03472714092970        2.01033350160749
H            5.15580083993023        0.57354425133354        2.77803759791775

 projected vibrational frequencies (cm⁻¹)
eigval :       -0.00    -0.00    -0.00     0.00     0.00     0.00
eigval :        3.43     4.38     6.87     9.94    14.23    16.91
eigval :       24.14    33.29    36.00    43.28    44.09    52.02
eigval :       57.52    60.92    66.29    71.61    73.91    84.27
eigval :       89.85    93.98    99.79   103.62   104.45   119.13
eigval :      128.93   131.45   134.40   142.35   154.45   168.39
eigval :      172.54   187.36   191.98   193.99   208.90   214.52
eigval :      216.95   217.36   230.02   234.52   244.70   250.35
eigval :      268.70   271.82   280.26   299.88   304.62   312.87
eigval :      319.97   326.81   336.60   341.36   343.52   357.42
eigval :      373.39   379.66   386.47   392.86   393.87   401.22
eigval :      403.15   409.46   414.02   419.18   420.92   425.76
eigval :      430.29   441.65   449.51   453.33   455.59   461.93
eigval :      487.75   498.04   506.66   509.66   512.80   517.24
eigval :      518.39   529.65   531.18   540.91   543.67   546.54
eigval :      549.49   553.71   565.26   574.56   582.21   588.12
eigval :      589.48   595.41   599.87   605.90   614.57   622.95
eigval :      628.14   648.47   663.72   664.78   671.77   673.84
eigval :      686.95   687.20   694.06   699.33   700.37   701.98
eigval :      707.86   709.76   733.88   737.02   756.15   769.21
eigval :      772.74   774.52   776.34   780.35   793.64   800.37
eigval :      813.34   825.54   834.45   836.14   837.44   840.97
eigval :      843.67   866.86   868.08   869.29   870.24   871.23
eigval :      873.72   883.88   891.55   891.99   896.61   898.91
eigval :      902.58   903.17   904.76   904.79   909.95   912.44
eigval :      914.78   915.54   919.64   920.36   921.32   922.23
eigval :      922.53   922.93   925.25   926.88   937.37   948.97
eigval :      957.61   991.72   996.06   997.47   997.90  1011.33
eigval :     1013.21  1018.31  1024.94  1028.69  1030.29  1032.95
eigval :     1069.91  1071.41  1073.29  1075.63  1084.92  1106.15
eigval :     1113.12  1114.18  1118.70  1125.23  1129.41  1137.97
eigval :     1144.20  1150.57  1151.90  1152.45  1154.10  1163.09
eigval :     1169.22  1173.28  1176.63  1181.22  1181.64  1183.16
eigval :     1183.75  1184.37  1199.75  1205.21  1219.30  1226.21
eigval :     1236.36  1237.11  1240.00  1241.98  1243.64  1244.89
eigval :     1251.85  1254.89  1256.33  1258.28  1269.19  1291.57
eigval :     1294.63  1300.18  1303.01  1304.78  1307.97  1312.89
eigval :     1313.46  1317.10  1325.55  1331.25  1335.75  1343.08
eigval :     1352.95  1357.71  1360.95  1364.02  1376.60  1401.37
eigval :     1404.60  1406.43  1410.23  1411.09  1412.92  1416.96
eigval :     1418.28  1419.37  1422.90  1427.83  1430.99  1432.38
eigval :     1441.40  1445.62  1458.43  1459.62  1473.98  1474.18
eigval :     1474.99  1476.98  1477.15  1478.76  1480.28  1485.22
eigval :     1485.93  1486.99  1487.79  1489.31  1497.07  1500.31
eigval :     1509.69  1527.53  1555.04  1556.78  1560.16  1563.90
eigval :     1570.61  1574.55  1574.85  1580.79  1583.31  1588.76
eigval :     1592.18  1594.32  1597.65  1598.79  1599.59  1614.10
eigval :     3006.46  3006.89  3023.48  3023.69  3029.33  3031.13
eigval :     3043.10  3044.50  3045.00  3045.52  3051.74  3055.20
eigval :     3067.58  3073.56  3075.75  3076.57  3076.68  3078.13
eigval :     3079.14  3080.97  3081.87  3082.36  3082.49  3083.39
eigval :     3083.61  3083.89  3084.13  3088.01  3088.32  3089.40
eigval :     3089.56  3090.05  3090.28  3095.04  3095.55  3096.32
eigval :     3096.86  3097.06  3097.26  3099.35  3099.54  3099.91
eigval :     3104.23  3110.06  3111.11

   temp. (K)  partition function   enthalpy   heat capacity  entropy
                                   cal/mol     cal/K/mol   cal/K/mol   J/K/mol
 298.15  VIB  0.119E+28            32125.844    198.924    204.550
         ROT  0.314E+09              888.752      2.981     41.864
         INT  0.374E+36            33014.596    201.905    246.414
         TR   0.229E+29             1481.254      4.968     45.984
         TOT                       34495.8504   206.8729   292.3981  1223.3935

       T/K    H(0)-H(T)+PV         H(T)/Eh          T*S/Eh         G(T)/Eh
   ------------------------------------------------------------------------
    298.15    0.549726E-01    0.907904E+00    0.138928E+00    0.768976E+00
   ------------------------------------------------------------------------

         :::::::::::::::::::::::::::::::::::::::::::::::::::::
         ::                  THERMODYNAMIC                  ::
         :::::::::::::::::::::::::::::::::::::::::::::::::::::
         :: total free energy        -163.530263635777 Eh   ::
         ::.................................................::
         :: total energy             -164.299239638977 Eh   ::
         :: zero point energy           0.852931124371 Eh   ::
         :: G(RRHO) w/o ZPVE           -0.083955121171 Eh   ::
         :: G(RRHO) contrib.            0.768976003200 Eh   ::
         :::::::::::::::::::::::::::::::::::::::::::::::::::::

           -------------------------------------------------
          | TOTAL ENERGY             -164.299239638977 Eh   |
          | TOTAL ENTHALPY           -163.391335877894 Eh   |
          | TOTAL FREE ENERGY        -163.530263635777 Eh   |
          | GRADIENT NORM               0.000127652352 Eh/α |
           -------------------------------------------------

 * finished run on 2025/09/09 at 07:27:27.834
