   * xtb version 6.7.1 (edcfbbe) compiled by 'albert@albert-system' on 2024-07-22

   ID    Z sym.   atoms
    1    6 C      1-4, 6-24, 26-35, 37-40, 42-64
    2    7 N      5, 25, 41
    3    8 O      36
    4    1 H      65-109

          program call               : xtb data2507/gas/CDBP-BP-DMAC/CDBP-BP-DMAC_gas_S0_crest.xyz --gfn 2 --ohess vtight --parallel 40 --molden --ceasefiles --namespace data2507/gas/CDBP-BP-DMAC/CDBP-BP-DMAC_gas_S0_finalOpt
          :  Hamiltonian                  GFN2-xTB          :
 * total energy  :  -164.3816475 Eh     change       -0.1652012E-08 Eh
 * total energy  :  -164.3816669 Eh     change       -0.1940261E-04 Eh
 * total energy  :  -164.3816696 Eh     change       -0.2732670E-05 Eh
 * total energy  :  -164.3816720 Eh     change       -0.2376553E-05 Eh
 * total energy  :  -164.3816766 Eh     change       -0.4568130E-05 Eh
 * total energy  :  -164.3816754 Eh     change        0.1179470E-05 Eh
 * total energy  :  -164.3816788 Eh     change       -0.3403246E-05 Eh
 * total energy  :  -164.3816805 Eh     change       -0.1678232E-05 Eh
 * total energy  :  -164.3816829 Eh     change       -0.2370961E-05 Eh
 * total energy  :  -164.3816842 Eh     change       -0.1354857E-05 Eh
 * total energy  :  -164.3817472 Eh     change       -0.3329019E-06 Eh
 * total energy  :  -164.3817475 Eh     change       -0.3069386E-06 Eh
 * total energy  :  -164.3817479 Eh     change       -0.3526217E-06 Eh
 * total energy  :  -164.3817484 Eh     change       -0.4620283E-06 Eh
 * total energy  :  -164.3817488 Eh     change       -0.4611161E-06 Eh
 * total energy  :  -164.3817491 Eh     change       -0.2986871E-06 Eh
 * total energy  :  -164.3817494 Eh     change       -0.2585606E-06 Eh
 * total energy  :  -164.3817497 Eh     change       -0.3585037E-06 Eh
 * total energy  :  -164.3817497 Eh     change       -0.3816950E-08 Eh
   *** GEOMETRY OPTIMIZATION CONVERGED AFTER 68 ITERATIONS ***

 final structure:
================
109
 xtb: 6.7.1 (edcfbbe)
C            6.53807653915737        2.14200598332260       -1.57674445552723
C            7.03676291190471        1.02162406547187       -0.71508899628407
C            8.39416407546945        0.77436782469915       -0.59220780817431
C            8.86569094945221       -0.26493802650508        0.20356000472965
N           10.24416654642477       -0.48997847606562        0.31912943073858
C           11.19365160033700        0.46158799122679        0.63345174208809
C           11.03087103803650        1.80360196446492        0.94637820627136
C           12.16123599789889        2.53646150122401        1.25312256755716
C           13.42676627131593        1.95399612143798        1.25908975728679
C           13.59248541715057        0.61396300178104        0.97205559260381
C           12.47120034311373       -0.14372662280812        0.66076618541207
C           12.27279359158558       -1.52939830955304        0.34061779116456
C           13.13347963801819       -2.60994688703921        0.19898327838759
C           12.60353243467044       -3.83686186135201       -0.14632972120675
C           11.23611677260928       -3.99069201365248       -0.36439705337909
C           10.35988538431207       -2.93102512920520       -0.22947289888860
C           10.88361441984153       -1.70063613312501        0.14082121007753
C            7.96154928253172       -1.07504983825953        0.88172452797139
C            6.60642894847464       -0.83895679422553        0.75467663667238
C            6.13382456358030        0.20227677586787       -0.03281122155866
C            4.67498248908332        0.43066762073431       -0.15066753736751
C            3.97881859346426       -0.11271634697673       -1.22203151901712
C            2.61830865238104        0.08472122071625       -1.35916480459425
C            1.93668894682774        0.83122454581916       -0.40551191091179
N            0.55322464350142        1.04239158828388       -0.52884557422828
C           -0.08089270248644        2.27022418958819       -0.49437917945174
C            0.45995489266492        3.54052141404464       -0.36076496535665
C           -0.40906041968702        4.61483202270959       -0.37840251103152
C           -1.78246882610949        4.43818486921642       -0.53141636682469
C           -2.32401688259432        3.17775481348769       -0.68658373525957
C           -1.47002390812068        2.08307435350459       -0.67428738407357
C           -1.67374774903007        0.66809062867607       -0.81838733128411
C           -2.80145164717886       -0.11261384221887       -1.00327354993936
C           -2.65265403167428       -1.49387168274826       -1.08514422278290
C           -3.80222305572859       -2.39140697233041       -1.32004120145422
O           -3.67513217063512       -3.48623139099838       -1.83528266282644
C           -5.14164378100350       -1.89164129916907       -0.90259517709069
C           -6.24387176416685       -2.17775253921810       -1.70436398647158
C           -7.50214353258851       -1.73355433988917       -1.35045929166620
C           -7.67771934225113       -1.01839257791751       -0.17037220063324
N           -8.96722651479551       -0.55052873459438        0.19402012456513
C           -9.26529084606282        0.79300729433673        0.02817985510188
C           -8.30597480580590        1.65456409380247       -0.51264729446050
C           -8.57102354579582        2.99695363892528       -0.68228872522378
C           -9.80529405633613        3.50606629397880       -0.32202022950098
C          -10.76346413998227        2.65220920685087        0.19183465639384
C          -10.52381364381041        1.29702070677932        0.37305090164423
C          -11.62840227109805        0.41059678526234        0.91598670569408
C          -12.03605105498081        0.92389938540379        2.30911819859325
C          -12.82702104786022        0.47567955248711       -0.04814608589983
C          -11.18369020385867       -1.03394857306824        1.04420421230860
C          -12.07231578750706       -1.98086951728911        1.53498704119812
C          -11.71747817341175       -3.30720648487846        1.69593756792725
C          -10.43367778095798       -3.70729317454087        1.37240122668295
C           -9.53102373895046       -2.78787783650117        0.88152403172976
C           -9.89490310999185       -1.45090414329698        0.69646164266647
C           -6.58656289212447       -0.76319413063072        0.65401154535502
C           -5.32551708935059       -1.19181097655322        0.28791584948522
C           -1.37613733094859       -2.07229772113999       -0.98856944514155
C           -0.24430827936265       -1.31364226771505       -0.79686794304547
C           -0.39341025060538        0.06729307377391       -0.72468768925297
C            2.62841962957529        1.37114958870999        0.67298641232184
C            3.99427548656492        1.18272575177945        0.81037719239586
C            4.73252925409668        1.76233676828058        1.97828793488915
H            5.85101110738551        2.77867747891471       -1.02102116258468
H            7.36402397976200        2.74754241734646       -1.94093185760384
H            5.99349260367804        1.74650059953064       -2.43353260732603
H            9.10239941811302        1.38614221809195       -1.13198347829089
H           10.05253853607053        2.26014302816973        0.96216761262930
H           12.06098050550418        3.58388946635650        1.49737731640890
H           14.28594038393939        2.56164899496844        1.50137899108791
H           14.57110853136304        0.15853779209401        0.99221703321076
H           14.19495529857508       -2.48668162370356        0.35271865410497
H           13.25497666297776       -4.69068365513098       -0.25911790714984
H           10.85259909800082       -4.95956584908096       -0.64876521441728
H            9.30416688728153       -3.05646167580730       -0.41759180811560
H            8.32318257699677       -1.87275324727935        1.51241417822742
H            5.89930372170948       -1.46775494283534        1.27645651373580
H            4.51492896134051       -0.69449585844755       -1.95781661334351
H            2.08573818180517       -0.32337068123215       -2.20465240371236
H            1.52426599791359        3.68771170242141       -0.25690570864691
H           -0.01411514370529        5.61450553482608       -0.27386308731632
H           -2.42797797924378        5.30359082478687       -0.53638760625041
H           -3.38663184224696        3.04123032044164       -0.81898178369171
H           -3.77137232754710        0.34973352704381       -1.10603528059604
H           -6.09312852132309       -2.74018998423059       -2.61355306473095
H           -8.35711131905469       -1.93957575952171       -1.97719322011014
H           -7.34474551268061        1.26318658399725       -0.80864696040921
H           -7.81264199953162        3.64257123307785       -1.09992213467903
H          -10.02486030420376        4.55535999522932       -0.44741554633934
H          -11.72751096250143        3.06010108840526        0.45584467123014
H          -12.37175447159325        1.95607984750192        2.26001532662090
H          -12.84129377562284        0.32404359651672        2.72392921361230
H          -11.18524214376746        0.87121099324951        2.98600866274071
H          -13.64671026305070       -0.14117787604117        0.30969026967250
H          -12.53031907436418        0.11560941689374       -1.03156623185847
H          -13.18812087837137        1.49524045260076       -0.15126377999872
H          -13.07376034086390       -1.67968150671470        1.80324035302407
H          -12.43462583240190       -4.01777703988900        2.07769927363350
H          -10.13002340810853       -4.73515046174874        1.50348801863555
H           -8.52824554648089       -3.10646606136694        0.64174451604734
H           -6.73700873753778       -0.22245050450608        1.57684429001991
H           -4.48328304836025       -1.00380866874980        0.93751943635496
H           -1.30704279377754       -3.14724935279052       -1.06110393812638
H            0.72605426076780       -1.77624598041987       -0.70051372685408
H            2.08548107637352        1.93387096581985        1.41866774665550
H            4.09196758889452        2.42851516632812        2.55056146904594
H            5.60982502045006        2.31396851110783        1.64404311357367
H            5.08108852584436        0.96666451080311        2.63597870977527

          :  Hamiltonian                  GFN2-xTB          :
         :: gradient norm              0.000045467495 Eh/a0 ::
         :: HOMO-LUMO gap              1.715933712875 eV    ::
         :: SCC energy              -167.393143037308 Eh    ::
         :: -> dispersion             -0.153121106773 Eh    ::
         :: repulsion energy           3.011393302416 Eh    ::

    * Orbital Energies and Occupations

         #    Occupation            Energy/Eh            Energy/eV
      -------------------------------------------------------------
         1        2.0000           -0.6967145             -18.9586
       ...           ...                  ...                  ...
       141        2.0000           -0.4049265             -11.0186
       142        2.0000           -0.4043956             -11.0042
       143        2.0000           -0.4043721             -11.0035
       144        2.0000           -0.4039132             -10.9910
       145        2.0000           -0.4002303             -10.8908
       146        2.0000           -0.3949445             -10.7470
       147        2.0000           -0.3895259             -10.5995
       148        2.0000           -0.3884685             -10.5708
       149        2.0000           -0.3842532             -10.4561
       150        2.0000           -0.3775425             -10.2735
       151        2.0000           -0.3724090             -10.1338
       152        2.0000           -0.3616614              -9.8413
       153        2.0000           -0.3436258              -9.3505 (HOMO)
       154                         -0.2805664              -7.6346 (LUMO)
       155                         -0.2547469              -6.9320
       156                         -0.2457096              -6.6861
       157                         -0.2420406              -6.5863
       158                         -0.2378065              -6.4710
       159                         -0.2369704              -6.4483
       160                         -0.2363760              -6.4321
       161                         -0.2342887              -6.3753
       162                         -0.2330262              -6.3410
       163                         -0.2210357              -6.0147
       164                         -0.2208102              -6.0086
       ...                                ...                  ...
       301                          0.7472231              20.3330
      -------------------------------------------------------------
                  HL-Gap            0.0630594 Eh            1.7159 eV

     #   Z          covCN         q      C6AA      α(0)
     1   6 C        3.758    -0.107    22.596     6.777
     2   6 C        2.969     0.015    27.683     8.630
     3   6 C        2.927    -0.054    29.341     8.883
     4   6 C        2.912     0.061    26.624     8.461
     5   7 N        2.803    -0.044    22.093     6.981
     6   6 C        3.076     0.046    26.878     8.500
     7   6 C        2.910    -0.051    29.278     8.873
     8   6 C        2.924    -0.034    28.846     8.808
     9   6 C        2.920    -0.041    29.024     8.835
    10   6 C        2.913    -0.033    28.819     8.803
    11   6 C        3.068    -0.017    28.368     8.733
    12   6 C        3.068    -0.017    28.370     8.734
    13   6 C        2.913    -0.033    28.819     8.803
    14   6 C        2.920    -0.041    29.019     8.834
    15   6 C        2.924    -0.034    28.835     8.806
    16   6 C        2.910    -0.051    29.269     8.871
    17   6 C        3.076     0.047    26.876     8.500
    18   6 C        2.921    -0.048    29.200     8.861
    19   6 C        2.924    -0.034    28.850     8.808
    20   6 C        2.982    -0.001    28.035     8.685
    21   6 C        2.982     0.003    27.962     8.674
    22   6 C        2.924    -0.033    28.832     8.806
    23   6 C        2.921    -0.048    29.182     8.859
    24   6 C        2.913     0.059    26.682     8.470
    25   7 N        2.804    -0.037    21.957     6.959
    26   6 C        3.079     0.047    26.857     8.496
    27   6 C        2.910    -0.049    29.224     8.864
    28   6 C        2.924    -0.032    28.802     8.801
    29   6 C        2.920    -0.039    28.969     8.826
    30   6 C        2.912    -0.032    28.787     8.798
    31   6 C        3.067    -0.016    28.345     8.730
    32   6 C        3.068    -0.016    28.339     8.729
    33   6 C        2.914    -0.030    28.758     8.794
    34   6 C        2.972    -0.025    28.628     8.776
    35   6 C        2.829     0.224    23.285     7.907
    36   8 O        0.858    -0.378    21.242     6.179
    37   6 C        2.972    -0.012    28.300     8.726
    38   6 C        2.924    -0.019    28.480     8.752
    39   6 C        2.920    -0.037    28.924     8.819
    40   6 C        2.928     0.074    26.348     8.418
    41   7 N        2.754    -0.071    22.616     7.063
    42   6 C        2.928     0.058    26.695     8.473
    43   6 C        2.924    -0.059    29.470     8.902
    44   6 C        2.920    -0.033    28.827     8.805
    45   6 C        2.917    -0.045    29.121     8.849
    46   6 C        2.928    -0.036    28.899     8.816
    47   6 C        2.979    -0.014    28.357     8.735
    48   6 C        3.909     0.021    20.156     6.381
    49   6 C        3.761    -0.103    22.509     6.763
    50   6 C        3.761    -0.103    22.508     6.763
    51   6 C        2.979    -0.014    28.365     8.736
    52   6 C        2.928    -0.036    28.903     8.817
    53   6 C        2.917    -0.045    29.108     8.847
    54   6 C        2.920    -0.033    28.815     8.803
    55   6 C        2.924    -0.059    29.459     8.901
    56   6 C        2.928     0.058    26.701     8.474
    57   6 C        2.920    -0.038    28.941     8.822
    58   6 C        2.921    -0.027    28.676     8.782
    59   6 C        2.929    -0.023    28.584     8.768
    60   6 C        2.907    -0.049    29.227     8.865
    61   6 C        3.077     0.052    26.744     8.479
    62   6 C        2.927    -0.053    29.323     8.880
    63   6 C        2.969     0.016    27.657     8.626
    64   6 C        3.758    -0.108    22.607     6.779
    65   1 H        0.925     0.045     2.384     2.415
    66   1 H        0.925     0.044     2.396     2.421
    67   1 H        0.925     0.049     2.336     2.390
    68   1 H        0.926     0.041     2.433     2.439
    69   1 H        0.926     0.026     2.649     2.545
    70   1 H        0.926     0.028     2.619     2.531
    71   1 H        0.926     0.027     2.624     2.533
    72   1 H        0.926     0.031     2.578     2.511
    73   1 H        0.926     0.030     2.579     2.511
    74   1 H        0.926     0.028     2.620     2.531
    75   1 H        0.926     0.029     2.606     2.524
    76   1 H        0.926     0.027     2.634     2.538
    77   1 H        0.926     0.041     2.438     2.442
    78   1 H        0.926     0.034     2.536     2.490
    79   1 H        0.926     0.037     2.495     2.470
    80   1 H        0.926     0.042     2.427     2.436
    81   1 H        0.926     0.030     2.586     2.515
    82   1 H        0.926     0.032     2.557     2.501
    83   1 H        0.926     0.032     2.563     2.503
    84   1 H        0.926     0.033     2.544     2.494
    85   1 H        0.926     0.037     2.491     2.468
    86   1 H        0.926     0.057     2.235     2.338
    87   1 H        0.926     0.047     2.361     2.403
    88   1 H        0.926     0.021     2.721     2.579
    89   1 H        0.926     0.025     2.651     2.546
    90   1 H        0.926     0.025     2.655     2.548
    91   1 H        0.926     0.029     2.595     2.519
    92   1 H        0.925     0.039     2.467     2.456
    93   1 H        0.925     0.039     2.463     2.454
    94   1 H        0.925     0.031     2.575     2.509
    95   1 H        0.925     0.039     2.462     2.454
    96   1 H        0.925     0.031     2.570     2.507
    97   1 H        0.925     0.039     2.467     2.456
    98   1 H        0.926     0.029     2.598     2.521
    99   1 H        0.926     0.026     2.648     2.545
   100   1 H        0.926     0.028     2.616     2.529
   101   1 H        0.926     0.025     2.657     2.549
   102   1 H        0.926     0.044     2.390     2.417
   103   1 H        0.926     0.042     2.425     2.435
   104   1 H        0.926     0.057     2.238     2.340
   105   1 H        0.926     0.036     2.502     2.474
   106   1 H        0.926     0.041     2.435     2.440
   107   1 H        0.925     0.044     2.396     2.421
   108   1 H        0.925     0.047     2.355     2.400
   109   1 H        0.925     0.051     2.312     2.378

molecular dipole:
                 x           y           z       tot (Debye)
 q only:        0.737       1.479       0.529
   full:        0.727       1.586       0.576       4.671

 projected vibrational frequencies (cm⁻¹)
eigval :       -0.00    -0.00    -0.00    -0.00     0.00     0.00
eigval :        4.41     6.34     6.82    10.62    12.33    16.95
eigval :       22.52    33.56    37.84    40.56    43.59    51.06
eigval :       54.49    56.56    64.65    70.13    73.48    81.75
eigval :       86.47    91.92    98.98   101.87   104.43   119.32
eigval :      128.71   131.03   135.10   142.53   157.44   167.70
eigval :      171.76   186.20   190.06   192.16   208.59   214.30
eigval :      216.55   219.77   227.13   235.43   239.42   246.67
eigval :      271.90   275.88   282.45   295.29   305.80   316.16
eigval :      319.59   331.28   335.28   344.33   349.14   357.40
eigval :      374.05   379.16   388.94   391.68   396.17   401.61
eigval :      409.68   411.92   417.47   420.93   426.03   427.01
eigval :      431.87   442.97   451.39   454.20   462.27   475.27
eigval :      489.74   494.48   509.68   515.21   517.62   519.35
eigval :      529.04   534.56   541.25   543.36   547.41   552.26
eigval :      552.90   558.12   567.85   581.63   587.75   588.47
eigval :      594.56   601.87   607.04   622.02   625.76   630.99
eigval :      647.90   665.04   673.76   674.74   682.52   685.24
eigval :      693.46   694.74   695.27   699.80   707.68   709.19
eigval :      713.06   733.52   735.55   745.70   756.21   769.47
eigval :      775.72   776.52   778.05   780.77   808.37   818.20
eigval :      827.19   828.82   835.66   840.39   842.92   844.97
eigval :      864.12   867.38   868.30   870.99   873.39   874.11
eigval :      884.66   890.11   892.35   893.90   898.95   902.68
eigval :      904.98   906.09   912.63   913.79   913.84   916.00
eigval :      919.73   919.92   920.31   921.39   922.86   922.87
eigval :      924.10   926.65   927.24   932.12   938.78   957.12
eigval :      964.82   992.35   996.84   998.43  1011.43  1014.39
eigval :     1019.14  1024.69  1025.37  1030.37  1032.24  1033.31
eigval :     1070.29  1071.27  1073.70  1077.38  1086.40  1113.83
eigval :     1116.03  1119.97  1120.36  1128.65  1130.25  1141.14
eigval :     1148.66  1151.65  1153.59  1160.47  1162.59  1173.20
eigval :     1173.61  1175.60  1181.45  1181.59  1182.50  1184.10
eigval :     1187.55  1188.27  1203.59  1206.24  1219.87  1227.97
eigval :     1236.69  1238.60  1243.60  1245.56  1250.16  1252.10
eigval :     1253.03  1255.91  1260.69  1269.28  1281.96  1292.33
eigval :     1295.14  1302.84  1304.48  1310.05  1311.18  1312.91
eigval :     1314.74  1321.09  1326.24  1335.73  1344.16  1355.45
eigval :     1357.46  1360.44  1362.72  1365.95  1378.53  1399.30
eigval :     1402.86  1405.24  1411.02  1414.96  1418.69  1420.93
eigval :     1425.68  1428.64  1437.04  1439.62  1444.28  1445.50
eigval :     1472.55  1474.61  1475.23  1475.61  1477.52  1477.74
eigval :     1481.20  1484.92  1486.30  1488.22  1488.67  1490.24
eigval :     1491.20  1498.01  1500.75  1505.57  1510.74  1559.35
eigval :     1560.89  1563.78  1567.92  1575.35  1575.85  1582.08
eigval :     1585.85  1589.43  1591.34  1591.64  1593.53  1598.87
eigval :     1599.12  1600.37  1603.34  1611.66  1615.86  1686.77
eigval :     3006.22  3007.43  3022.71  3025.47  3026.26  3028.47
eigval :     3039.05  3041.80  3045.40  3046.09  3048.04  3052.15
eigval :     3075.13  3075.99  3076.52  3077.65  3078.38  3079.19
eigval :     3080.34  3080.53  3080.56  3081.78  3082.06  3082.42
eigval :     3083.07  3084.15  3084.29  3087.62  3087.64  3088.00
eigval :     3089.26  3090.08  3091.83  3092.51  3093.28  3093.99
eigval :     3094.78  3096.43  3097.15  3097.54  3098.38  3098.58
eigval :     3099.07  3100.59  3101.36

   temp. (K)  partition function   enthalpy   heat capacity  entropy
                                   cal/mol     cal/K/mol   cal/K/mol   J/K/mol
 298.15  VIB  0.863E+27            31987.059    197.375    203.558
         ROT  0.302E+09              888.752      2.981     41.785
         INT  0.261E+36            32875.811    200.355    245.343
         TR   0.229E+29             1481.254      4.968     45.984
         TOT                       34357.0653   205.3236   291.3270  1218.9122

       T/K    H(0)-H(T)+PV         H(T)/Eh          T*S/Eh         G(T)/Eh
   ------------------------------------------------------------------------
    298.15    0.547515E-01    0.910869E+00    0.138419E+00    0.772450E+00
   ------------------------------------------------------------------------

         :::::::::::::::::::::::::::::::::::::::::::::::::::::
         ::                  THERMODYNAMIC                  ::
         :::::::::::::::::::::::::::::::::::::::::::::::::::::
         :: total free energy        -163.609299326653 Eh   ::
         ::.................................................::
         :: total energy             -164.381749734892 Eh   ::
         :: zero point energy           0.856117800783 Eh   ::
         :: G(RRHO) w/o ZPVE           -0.083667392544 Eh   ::
         :: G(RRHO) contrib.            0.772450408240 Eh   ::
         :::::::::::::::::::::::::::::::::::::::::::::::::::::

           -------------------------------------------------
          | TOTAL ENERGY             -164.381749734892 Eh   |
          | TOTAL ENTHALPY           -163.470880465434 Eh   |
          | TOTAL FREE ENERGY        -163.609299326653 Eh   |
          | GRADIENT NORM               0.000045467550 Eh/α |
          | HOMO-LUMO GAP               1.715933869045 eV   |
           -------------------------------------------------

 * finished run on 2025/09/09 at 07:26:46.163
