   * xtb version 6.7.1 (edcfbbe) compiled by 'albert@albert-system' on 2024-07-22

   ID    Z sym.   atoms
    1    6 C      1-4, 6-24, 26-35, 37-40, 42-64
    2    7 N      5, 25, 41
    3    8 O      36
    4    1 H      65-109

          program call               : xtb data2507/gas/CDBP-BP-DMAC/CDBP-BP-DMAC_gas_T1_crest.xyz --gfn 2 --spinpol --tblite --uhf 2 --ohess vtight --parallel 40 --molden --ceasefiles --namespace data2507/gas/CDBP-BP-DMAC/CDBP-BP-DMAC_gas_T1_finalOpt
 * total energy  :  -164.2991631 Eh     change       -0.3818388E-07 Eh
 * total energy  :  -164.2992142 Eh     change       -0.5113468E-04 Eh
 * total energy  :  -164.2992329 Eh     change       -0.1865688E-04 Eh
 * total energy  :  -164.2992364 Eh     change       -0.3482566E-05 Eh
 * total energy  :  -164.2992413 Eh     change       -0.4935320E-05 Eh
 * total energy  :  -164.2992456 Eh     change       -0.4281689E-05 Eh
 * total energy  :  -164.2992505 Eh     change       -0.4887020E-05 Eh
 * total energy  :  -164.2992554 Eh     change       -0.4969491E-05 Eh
 * total energy  :  -164.2992606 Eh     change       -0.5184875E-05 Eh
 * total energy  :  -164.2992650 Eh     change       -0.4389654E-05 Eh
 * total energy  :  -164.2994323 Eh     change       -0.3041349E-06 Eh
 * total energy  :  -164.2994325 Eh     change       -0.2213516E-06 Eh
 * total energy  :  -164.2994327 Eh     change       -0.1864775E-06 Eh
 * total energy  :  -164.2994329 Eh     change       -0.1912189E-06 Eh
 * total energy  :  -164.2994331 Eh     change       -0.2477848E-06 Eh
 * total energy  :  -164.2994333 Eh     change       -0.1611886E-06 Eh
 * total energy  :  -164.2994336 Eh     change       -0.3173161E-06 Eh
 * total energy  :  -164.2994337 Eh     change       -0.1398597E-06 Eh
 * total energy  :  -164.2994338 Eh     change       -0.6119870E-07 Eh
   *** GEOMETRY OPTIMIZATION CONVERGED AFTER 122 ITERATIONS ***

 final structure:
================
109
 xtb: 6.7.1 (edcfbbe)
C            6.70742387908514        2.62518047822121        0.82834634480921
C            7.12639642508469        1.27725929253053        0.32450772092904
C            8.46823950423006        0.96652007383574        0.17536612469803
C            8.86857389096608       -0.27932992222145       -0.29650078448670
N           10.23216112698192       -0.56752778657092       -0.44758940011461
C           10.88146454307618       -1.68156055742279        0.04460432713282
C           10.38842655216207       -2.72108878297238        0.82043898199613
C           11.27017831898601       -3.71243426979763        1.20596035539093
C           12.61385221360686       -3.67384198976729        0.83986269179618
C           13.11527782047736       -2.63004174302070        0.08806997091220
C           12.24864549597799       -1.62146718252484       -0.31146894966803
C           12.42167253492531       -0.40871687527701       -1.06101543455964
C           13.51309619514483        0.18324291602919       -1.68248047117226
C           13.32570899768009        1.37400724989551       -2.35563625493623
C           12.06683275982790        1.96659024040291       -2.42630639515300
C           10.96575667291866        1.39696493865118       -1.81633781205131
C           11.15249579850805        0.21229903103764       -1.11818561087943
C            7.90900954066098       -1.23393965740673       -0.61553221156044
C            6.57049542917351       -0.93438290981750       -0.45420561038471
C            6.16720755315170        0.31183733556696        0.00768174341688
C            4.72375583616614        0.60655338737389        0.15548058448561
C            4.06683040360653        1.34062475574900       -0.82393151275516
C            2.71790413981862        1.61714901442520       -0.72122578079736
C            2.00759712827559        1.16556199102190        0.38680824238048
N            0.64010434419892        1.43738844306944        0.51095006966797
C            0.04686923869189        2.67686228733372        0.37979138527025
C            0.62618062127086        3.91322316337527        0.13252848991308
C           -0.20588017696621        5.01575236918890        0.07093398495492
C           -1.58019937581999        4.90045707196513        0.26035498698454
C           -2.15943394239107        3.67540592831735        0.53554823096850
C           -1.34489619169614        2.55555166340195        0.60286581441848
C           -1.59452900667830        1.16550859885444        0.87974627262259
C           -2.74513580887458        0.45664297397423        1.17356141105313
C           -2.65460424158267       -0.92935528500253        1.34005200290376
C           -3.82364333864043       -1.75634074832242        1.65796780520839
O           -3.63877796072682       -2.75407292786297        2.42378164487032
C           -5.12385615749260       -1.43424000553620        1.15030226698386
C           -6.24436701641910       -2.07633196622915        1.73377050949535
C           -7.51330646210113       -1.83609511077709        1.28047947203366
C           -7.72165107909839       -0.96021986032769        0.21089900226623
N           -9.04071840779857       -0.69583944149684       -0.26080858876107
C           -9.55301043275056       -1.46419846690042       -1.28329323226107
C           -8.77086246020359       -2.49200915087688       -1.82873111487381
C           -9.25127006253964       -3.27627609451893       -2.85246310885925
C          -10.52389291919103       -3.05243072665150       -3.35429357023576
C          -11.30055120480952       -2.04267955775223       -2.81620377562857
C          -10.84392924232208       -1.23608042982652       -1.78330448505087
C          -11.73978345732842       -0.14946043372753       -1.22618973563385
C          -12.09045798142150        0.83234432243921       -2.36029977795842
C          -13.02064230718098       -0.80294254346032       -0.67342442254124
C          -11.06710511353213        0.62068838634619       -0.10915767878897
C          -11.74485582774346        1.65597608840481        0.51920582793034
C          -11.17342582110244        2.39028452087905        1.54224804764689
C           -9.88532843270109        2.09298354899329        1.95919095784471
C           -9.18858751325170        1.07148203049760        1.35503278310487
C           -9.76508014985786        0.32212465478587        0.31974214056720
C           -6.62670837360825       -0.35597882146247       -0.41115576882699
C           -5.35264624136144       -0.58921070820797        0.04356660261387
C           -1.39271268304440       -1.55697736226619        1.29627549210469
C           -0.24139734763854       -0.85979932079388        1.01802134615022
C           -0.34022344661078        0.51381756459035        0.81535682142786
C            2.66537163560587        0.43845601088896        1.37473969481371
C            4.01508608531339        0.14663941882562        1.26896502760414
C            4.70935913156970       -0.64309134888936        2.33660878601384
H            7.55966359435444        3.17238166490767        1.22332635144474
H            6.26694609162708        3.20942207156852        0.02069633909761
H            5.95457171699165        2.52790263768673        1.60882853419302
H            9.22085572206637        1.69446108780333        0.44191423408873
H            9.35259717130191       -2.75066208623977        1.12344608714382
H           10.91031082003302       -4.53401835858883        1.80771704941328
H           13.27044953798397       -4.46960718800738        1.15882039185840
H           14.15974574171474       -2.59208824280916       -0.18247641939758
H           14.48536814754506       -0.28420789404752       -1.64108559943108
H           14.16190483452838        1.85213073690579       -2.84380461732778
H           11.94814045129327        2.89032586210577       -2.97343433509158
H            9.99069023056165        1.85427478039950       -1.89190813082157
H            8.21460373528857       -2.19526058576379       -0.99950984298386
H            5.82056750019244       -1.67064376504974       -0.70506255778962
H            4.62144014371395        1.68268131442176       -1.68588623675147
H            2.20797322538868        2.16228165158652       -1.50078669794454
H            1.69339441704300        4.01636581829748        0.00635120445024
H            0.22110609896097        5.98840825999282       -0.12442288522345
H           -2.19774410236048        5.78423282505986        0.20023458990330
H           -3.22306578338326        3.58858202659793        0.69883636799436
H           -3.68628375851626        0.97066201947920        1.28901414383631
H           -6.06251821968825       -2.75431535603873        2.55366839538389
H           -8.36489260743081       -2.31697899989756        1.74013194706253
H           -7.78181092347110       -2.66522657368941       -1.43521943690117
H           -8.63416797299528       -4.06273448885293       -3.25927145096883
H          -10.91003081958604       -3.66085533235445       -4.15760901982431
H          -12.29024462768471       -1.88437564671104       -3.21686089851877
H          -12.58948655025678        0.31823232375015       -3.17673277629640
H          -12.74734917647163        1.61949453908103       -2.00134297399054
H          -11.18259257377479        1.29157805329039       -2.74678075630360
H          -12.76730100466842       -1.49518033284179        0.12723155137232
H          -13.54079689152297       -1.35398632535657       -1.45170747623182
H          -13.69801738463242       -0.05216253688966       -0.27661626273976
H          -12.74814113276591        1.90199085038318        0.20623880530182
H          -11.72909729430378        3.18871261222366        2.00952373255769
H           -9.42497106901215        2.65792345713768        2.75534460521582
H           -8.18610876658738        0.83778261442929        1.67688757136365
H           -6.79625818156526        0.28912499804828       -1.26207172583646
H           -4.51645601013679       -0.15209208474996       -0.48054801857173
H           -1.35580138001073       -2.62263317666014        1.46158447887572
H            0.70707621140654       -1.36992637455014        0.94228830147305
H            2.11246352724466        0.11382078559157        2.24409836494154
H            4.08156872858912       -0.73520286472171        3.21918704674466
H            5.64976270352783       -0.17090165458768        2.61607067440576
H            4.94153501189126       -1.64400122185757        1.97349721092078

 projected vibrational frequencies (cm⁻¹)
eigval :       -0.00    -0.00     0.00     0.00     0.00     0.00
eigval :        3.79     4.61     7.28     9.59    14.62    16.06
eigval :       24.73    34.46    35.75    42.81    45.35    50.43
eigval :       55.37    60.12    67.38    70.14    76.89    89.29
eigval :       91.40    94.14   100.06   103.15   105.41   119.36
eigval :      130.07   130.39   136.40   142.63   154.15   168.12
eigval :      177.99   183.19   192.36   193.22   210.88   216.36
eigval :      217.13   217.75   230.49   234.94   239.85   253.22
eigval :      267.25   271.82   282.20   293.88   305.52   312.06
eigval :      319.14   326.76   339.82   340.45   349.66   360.89
eigval :      373.27   380.27   384.59   392.31   394.79   402.17
eigval :      402.29   408.90   411.01   419.04   420.22   428.24
eigval :      432.14   438.26   449.24   452.91   458.90   470.74
eigval :      483.69   492.05   506.81   511.73   514.29   517.83
eigval :      519.19   528.41   538.44   540.00   540.98   543.77
eigval :      548.66   551.46   568.40   576.13   583.18   588.36
eigval :      589.98   595.20   600.01   606.23   614.85   619.19
eigval :      628.78   647.05   663.71   665.01   671.91   673.82
eigval :      685.14   686.96   695.03   699.24   700.36   701.96
eigval :      708.18   710.16   733.00   738.12   756.08   769.26
eigval :      773.24   774.89   776.62   780.44   793.49   801.45
eigval :      814.74   825.49   834.94   836.26   837.95   840.28
eigval :      841.94   868.21   869.61   870.08   870.59   872.00
eigval :      873.80   881.53   889.74   892.00   896.47   898.92
eigval :      901.75   902.61   904.95   908.53   911.27   912.56
eigval :      915.00   915.70   918.14   919.83   921.82   922.70
eigval :      922.78   923.06   925.70   927.16   937.55   950.28
eigval :      957.88   991.52   995.87   997.24   997.93  1011.41
eigval :     1013.50  1021.16  1024.73  1025.19  1031.07  1033.89
eigval :     1070.01  1071.26  1073.38  1075.77  1085.15  1106.02
eigval :     1112.97  1114.03  1118.74  1125.18  1129.62  1138.03
eigval :     1145.69  1151.08  1151.26  1152.60  1153.12  1163.76
eigval :     1168.38  1173.39  1176.04  1181.45  1182.59  1183.31
eigval :     1183.93  1184.71  1199.39  1205.28  1219.29  1226.45
eigval :     1236.53  1236.94  1239.21  1242.04  1242.56  1244.10
eigval :     1253.32  1254.63  1256.46  1257.47  1270.64  1291.54
eigval :     1294.56  1298.32  1303.19  1304.85  1307.89  1313.04
eigval :     1313.54  1317.81  1324.89  1331.54  1335.67  1342.88
eigval :     1354.84  1358.68  1360.27  1362.54  1376.20  1401.73
eigval :     1404.89  1406.67  1409.64  1411.24  1414.20  1417.41
eigval :     1419.79  1420.17  1422.91  1427.49  1427.82  1432.34
eigval :     1441.24  1447.59  1458.83  1459.71  1473.31  1474.01
eigval :     1475.63  1476.64  1477.49  1478.47  1480.98  1485.81
eigval :     1487.18  1487.94  1488.52  1488.90  1498.47  1502.21
eigval :     1509.76  1527.50  1555.12  1556.92  1560.16  1563.94
eigval :     1570.69  1574.57  1574.63  1580.98  1583.44  1588.76
eigval :     1591.56  1593.43  1597.40  1598.27  1599.04  1612.73
eigval :     3004.56  3005.37  3025.43  3025.81  3029.48  3031.34
eigval :     3043.22  3044.33  3045.67  3045.88  3051.96  3055.38
eigval :     3067.73  3073.54  3075.97  3076.46  3076.75  3077.90
eigval :     3078.89  3081.09  3082.22  3082.33  3082.52  3083.32
eigval :     3083.82  3084.01  3086.63  3087.85  3088.31  3089.48
eigval :     3089.57  3089.83  3090.04  3095.07  3095.54  3096.24
eigval :     3096.38  3096.73  3097.19  3097.35  3099.46  3099.74
eigval :     3104.56  3109.59  3110.55

   temp. (K)  partition function   enthalpy   heat capacity  entropy
                                   cal/mol     cal/K/mol   cal/K/mol   J/K/mol
 298.15  VIB  0.910E+27            32103.972    198.886    204.131
         ROT  0.318E+09              888.752      2.981     41.885
         INT  0.289E+36            32992.724    201.867    246.016
         TR   0.229E+29             1481.254      4.968     45.984
         TOT                       34473.9782   206.8348   291.9999  1221.7276

       T/K    H(0)-H(T)+PV         H(T)/Eh          T*S/Eh         G(T)/Eh
   ------------------------------------------------------------------------
    298.15    0.549378E-01    0.907955E+00    0.138739E+00    0.769217E+00
   ------------------------------------------------------------------------

         :::::::::::::::::::::::::::::::::::::::::::::::::::::
         ::                  THERMODYNAMIC                  ::
         :::::::::::::::::::::::::::::::::::::::::::::::::::::
         :: total free energy        -163.530216984474 Eh   ::
         ::.................................................::
         :: total energy             -164.299433802585 Eh   ::
         :: zero point energy           0.853017618271 Eh   ::
         :: G(RRHO) w/o ZPVE           -0.083800800159 Eh   ::
         :: G(RRHO) contrib.            0.769216818112 Eh   ::
         :::::::::::::::::::::::::::::::::::::::::::::::::::::

           -------------------------------------------------
          | TOTAL ENERGY             -164.299433802585 Eh   |
          | TOTAL ENTHALPY           -163.391478403185 Eh   |
          | TOTAL FREE ENERGY        -163.530216984474 Eh   |
          | GRADIENT NORM               0.000054361692 Eh/α |
           -------------------------------------------------

 * finished run on 2025/09/09 at 07:44:29.556
