   * xtb version 6.7.1 (edcfbbe) compiled by 'albert@albert-system' on 2024-07-22

   ID    Z sym.   atoms
    1    6 C      1-4, 6-24, 26-35, 37-40, 42-64
    2    7 N      5, 25, 41
    3    8 O      36
    4    1 H      65-109

          program call               : xtb data2507/gas/CDBP-BP-DMAC/CDBP-BP-DMAC.xyz --gfn 2 --ohess vtight --parallel 40 --molden --ceasefiles --namespace data2507/gas/CDBP-BP-DMAC/CDBP-BP-DMAC_gas_S0_preOpt
          :  Hamiltonian                  GFN2-xTB          :
 * total energy  :  -164.3489867 Eh     change       -0.3160437E-08 Eh
 * total energy  :  -164.3707684 Eh     change       -0.2178167E-01 Eh
 * total energy  :  -164.3770981 Eh     change       -0.6329734E-02 Eh
 * total energy  :  -164.3783930 Eh     change       -0.1294852E-02 Eh
 * total energy  :  -164.3793640 Eh     change       -0.9710645E-03 Eh
 * total energy  :  -164.3799239 Eh     change       -0.5598736E-03 Eh
 * total energy  :  -164.3802776 Eh     change       -0.3537470E-03 Eh
 * total energy  :  -164.3805028 Eh     change       -0.2251439E-03 Eh
 * total energy  :  -164.3806327 Eh     change       -0.1298936E-03 Eh
 * total energy  :  -164.3807157 Eh     change       -0.8299076E-04 Eh
 * total energy  :  -164.3814415 Eh     change       -0.5635705E-06 Eh
 * total energy  :  -164.3814422 Eh     change       -0.6630396E-06 Eh
 * total energy  :  -164.3814430 Eh     change       -0.7995643E-06 Eh
 * total energy  :  -164.3814438 Eh     change       -0.8060411E-06 Eh
 * total energy  :  -164.3814447 Eh     change       -0.9331874E-06 Eh
 * total energy  :  -164.3814457 Eh     change       -0.9716506E-06 Eh
 * total energy  :  -164.3814466 Eh     change       -0.9529970E-06 Eh
 * total energy  :  -164.3814476 Eh     change       -0.9180455E-06 Eh
 * total energy  :  -164.3814476 Eh     change       -0.2604111E-08 Eh
   *** GEOMETRY OPTIMIZATION CONVERGED AFTER 122 ITERATIONS ***

 final structure:
================
109
 xtb: 6.7.1 (edcfbbe)
C            6.88700818502759        2.37729674407729       -1.22361168517761
C            7.27424629370408        1.08153813975386       -0.57756234239095
C            8.60774344809984        0.74616905626617       -0.40812845894245
C            8.97582264396990       -0.45558522651475        0.18841454697682
N           10.33099817454003       -0.76816188375621        0.36118580105782
C           11.28007017906711        0.04855517632173        0.94257084058923
C           11.13588351891384        1.30587897433765        1.51154131286572
C           12.25808677124874        1.90064482502185        2.05543196668320
C           13.49677816445099        1.26315131835856        2.04539899481111
C           13.64156877791418        0.00233235685432        1.50232836052398
C           12.52797391363016       -0.61629455065111        0.94963227012877
C           12.31165990577707       -1.89618329095684        0.33554239326246
C           13.14331979905586       -2.96999197363257        0.04619072051380
C           12.60451495504470       -4.07227865263035       -0.58633252596082
C           11.25823368588745       -4.10641887215706       -0.94328496806972
C           10.41101557570765       -3.05083633575406       -0.66617034142456
C           10.94146995287328       -1.94993127127311       -0.00895910682491
C            7.99150467895410       -1.34118051461334        0.61347972948188
C            6.66075749074162       -1.01585313559892        0.43816604687535
C            6.29078004060165        0.18739370589809       -0.14802168680212
C            4.85351511848782        0.50595853824081       -0.31173111776897
C            4.21863052925220        0.23571678984365       -1.51638971247400
C            2.87408647941824        0.50499716980232       -1.68738397839740
C            2.14612736763687        1.04457403056258       -0.63385873609468
N            0.77278637470655        1.30279258033545       -0.77773806663870
C            0.13812248066492        2.49290022586630       -0.47652350046335
C            0.67774930808596        3.69866379146938       -0.05322890383926
C           -0.18984937034708        4.75382303043680        0.15508712558877
C           -1.56059304311563        4.62206047979925       -0.05635499000261
C           -2.10062632601963        3.43047335639833       -0.49743776568527
C           -1.24798355016778        2.35659955407554       -0.71586807914267
C           -1.44998100079479        1.01057184330462       -1.17628298548421
C           -2.57599780829363        0.29070879995382       -1.53686843595611
C           -2.42363151658509       -1.03512367919024       -1.93025575772818
C           -3.57462045673582       -1.85767686898954       -2.35669461843352
O           -3.46228144072297       -2.76401982355885       -3.15995151192610
C           -4.89318248925918       -1.53545799219367       -1.74330906886023
C           -6.04677238460586       -1.68550625012927       -2.50919850204763
C           -7.28871602134154       -1.42969781641992       -1.96264770872678
C           -7.39108085202265       -1.04236683623637       -0.63117459261108
N           -8.66672263250641       -0.78713487014736       -0.05806345246336
C           -9.22085101243722        0.47502125488438       -0.18819184023372
C           -8.52092114708351        1.46815362662386       -0.87953397259183
C           -9.04749282520145        2.73383575848132       -1.02809565586164
C          -10.28403689072347        3.03281923387105       -0.48564680323345
C          -10.97449432595575        2.05371068803309        0.20478399013736
C          -10.46872195608510        0.77184069692040        0.36975493317741
C          -11.27039821184088       -0.25533063826596        1.14693362175246
C          -11.48201608346185        0.26819246422161        2.57932993241592
C          -12.62684645625712       -0.45612242193827        0.44712548784505
C          -10.55888312680671       -1.59345046886087        1.21907152831207
C          -11.15558704749033       -2.65100386787165        1.89148119596254
C          -10.55694456739477       -3.89393818314375        1.98372027316094
C           -9.32671283816271       -4.09866292315514        1.38580189242943
C           -8.71059132057691       -3.06550634657140        0.71181006786544
C           -9.31130016038953       -1.80645551593447        0.62406565676768
C           -6.24523248724692       -0.91420503771994        0.14596902714696
C           -5.00265365520981       -1.15593936589533       -0.40737400191911
C           -1.14779598740911       -1.62030173470651       -1.96357694434242
C           -0.01925121100248       -0.92722011486534       -1.58918606965735
C           -0.17080625681436        0.40040408366227       -1.20425883958614
C            2.77879657601285        1.31983203498469        0.57345819430004
C            4.12862435641587        1.06083733256589        0.74641739969026
C            4.80175886963782        1.35296202097836        2.05276194369464
H            6.15997853015460        2.91037249461266       -0.61262722215879
H            7.75721476624631        3.01157156798375       -1.37177976741364
H            6.42416836075959        2.19245342032671       -2.19254893451878
H            9.37877596040383        1.41898792816560       -0.75459736267413
H           10.17658952241201        1.80056534820750        1.54067858592268
H           12.17220211950374        2.88051164957367        2.50186581964175
H           14.35064770254114        1.76280259565293        2.47826952669930
H           14.59780389651854       -0.49875478845613        1.50891245448418
H           14.18993089115630       -2.93673118222297        0.30896362414664
H           13.23321584777698       -4.91912947442987       -0.81803276073340
H           10.86860064354783       -4.97640344726079       -1.45120665848413
H            9.37314983526336       -3.07968180212734       -0.96228284919534
H            8.27215719642259       -2.26797742266559        1.09008673889237
H            5.89152850540773       -1.70114759012415        0.76432298914819
H            4.78906554855417       -0.19185765083902       -2.32818998881962
H            2.38983916787298        0.30898700221632       -2.63185230522566
H            1.74034514057885        3.81361328347045        0.09833673138158
H            0.20405471634653        5.70322438765814        0.48635296807019
H           -2.20519533941065        5.46989296711026        0.12058518440902
H           -3.16092559938249        3.33224329238260       -0.67467299748100
H           -3.54799211948880        0.76056841075510       -1.53403069245472
H           -5.95014959653712       -2.00121981730251       -3.53717900332659
H           -8.18575548674642       -1.53338086704023       -2.55479796541231
H           -7.55432568190930        1.24050769865099       -1.30297351504479
H           -8.48963757816487        3.48481711548870       -1.56767702860255
H          -10.70789701394693        4.01933286751512       -0.59579394773698
H          -11.93658553441023        2.30288661199178        0.62651803091374
H          -12.00499689355729        1.22055278039365        2.57152681189758
H          -12.06462603457117       -0.43540845341491        3.16754527298676
H          -10.51935108674556        0.40916792235105        3.06747803716814
H          -13.23887149777534       -1.17461497604189        0.98527223867828
H          -12.46980272191991       -0.82805469048215       -0.56367834102548
H          -13.17520131206196        0.47990896091455        0.38669730456573
H          -12.11770415857275       -2.50705018745837        2.35970225020831
H          -11.04908835692117       -4.69421422158343        2.51509242796356
H           -8.84375182144893       -5.06286438072922        1.44100850753940
H           -7.75259337757258       -3.23291288538486        0.24357427563803
H           -6.33965730832940       -0.62808690070641        1.18315640884111
H           -4.11576440727540       -1.07177454790549        0.20325013973685
H           -1.07559045024697       -2.64948050498289       -2.28147618572609
H            0.94992175258624       -1.40195042735873       -1.58927460089052
H            2.20020912154572        1.72591871996109        1.39066907860728
H            5.08889871364360        0.42437150618888        2.54506479621931
H            4.14013218753442        1.90554132329852        2.71496377458954
H            5.71097609483209        1.93131714456309        1.89622262220926

          :  Hamiltonian                  GFN2-xTB          :
         :: gradient norm              0.000046593156 Eh/a0 ::
         :: HOMO-LUMO gap              1.672064904576 eV    ::
         :: SCC energy              -167.393175553336 Eh    ::
         :: -> dispersion             -0.152823585623 Eh    ::
         :: repulsion energy           3.011727997525 Eh    ::

    * Orbital Energies and Occupations

         #    Occupation            Energy/Eh            Energy/eV
      -------------------------------------------------------------
         1        2.0000           -0.6979506             -18.9922
       ...           ...                  ...                  ...
       141        2.0000           -0.4047835             -11.0147
       142        2.0000           -0.4044263             -11.0050
       143        2.0000           -0.4042099             -10.9991
       144        2.0000           -0.4039155             -10.9911
       145        2.0000           -0.3997539             -10.8779
       146        2.0000           -0.3945411             -10.7360
       147        2.0000           -0.3892071             -10.5909
       148        2.0000           -0.3886459             -10.5756
       149        2.0000           -0.3851953             -10.4817
       150        2.0000           -0.3775877             -10.2747
       151        2.0000           -0.3723452             -10.1320
       152        2.0000           -0.3616969              -9.8423
       153        2.0000           -0.3429878              -9.3332 (HOMO)
       154                         -0.2815406              -7.6611 (LUMO)
       155                         -0.2549240              -6.9368
       156                         -0.2458114              -6.6889
       157                         -0.2422521              -6.5920
       158                         -0.2388711              -6.5000
       159                         -0.2369975              -6.4490
       160                         -0.2366208              -6.4388
       161                         -0.2341634              -6.3719
       162                         -0.2330579              -6.3418
       163                         -0.2208530              -6.0097
       164                         -0.2204745              -5.9994
       ...                                ...                  ...
       301                          0.7471827              20.3319
      -------------------------------------------------------------
                  HL-Gap            0.0614473 Eh            1.6721 eV

     #   Z          covCN         q      C6AA      α(0)
     1   6 C        3.758    -0.107    22.597     6.777
     2   6 C        2.969     0.015    27.682     8.630
     3   6 C        2.927    -0.054    29.341     8.883
     4   6 C        2.912     0.061    26.624     8.461
     5   7 N        2.803    -0.044    22.093     6.981
     6   6 C        3.076     0.046    26.878     8.500
     7   6 C        2.910    -0.051    29.278     8.873
     8   6 C        2.924    -0.034    28.846     8.808
     9   6 C        2.920    -0.041    29.024     8.835
    10   6 C        2.913    -0.033    28.819     8.803
    11   6 C        3.068    -0.017    28.368     8.733
    12   6 C        3.068    -0.017    28.371     8.734
    13   6 C        2.913    -0.033    28.819     8.803
    14   6 C        2.920    -0.041    29.019     8.834
    15   6 C        2.924    -0.034    28.836     8.806
    16   6 C        2.910    -0.051    29.269     8.871
    17   6 C        3.076     0.047    26.877     8.500
    18   6 C        2.921    -0.048    29.200     8.861
    19   6 C        2.924    -0.034    28.850     8.808
    20   6 C        2.983    -0.001    28.035     8.685
    21   6 C        2.982     0.002    27.964     8.674
    22   6 C        2.924    -0.033    28.833     8.806
    23   6 C        2.920    -0.048    29.186     8.859
    24   6 C        2.913     0.059    26.682     8.470
    25   7 N        2.804    -0.037    21.959     6.960
    26   6 C        3.079     0.047    26.857     8.496
    27   6 C        2.910    -0.049    29.223     8.864
    28   6 C        2.924    -0.032    28.802     8.801
    29   6 C        2.920    -0.039    28.970     8.826
    30   6 C        2.912    -0.032    28.789     8.798
    31   6 C        3.067    -0.016    28.347     8.730
    32   6 C        3.068    -0.016    28.336     8.729
    33   6 C        2.914    -0.030    28.757     8.794
    34   6 C        2.973    -0.025    28.618     8.775
    35   6 C        2.829     0.225    23.276     7.906
    36   8 O        0.858    -0.376    21.209     6.174
    37   6 C        2.972    -0.011    28.295     8.725
    38   6 C        2.924    -0.018    28.466     8.750
    39   6 C        2.920    -0.036    28.903     8.816
    40   6 C        2.929     0.075    26.317     8.413
    41   7 N        2.755    -0.073    22.647     7.068
    42   6 C        2.929     0.058    26.691     8.473
    43   6 C        2.924    -0.059    29.475     8.903
    44   6 C        2.920    -0.033    28.827     8.805
    45   6 C        2.917    -0.045    29.126     8.850
    46   6 C        2.928    -0.036    28.899     8.816
    47   6 C        2.979    -0.014    28.367     8.737
    48   6 C        3.909     0.021    20.157     6.381
    49   6 C        3.761    -0.103    22.505     6.763
    50   6 C        3.761    -0.103    22.509     6.763
    51   6 C        2.979    -0.015    28.371     8.737
    52   6 C        2.928    -0.036    28.902     8.817
    53   6 C        2.917    -0.045    29.117     8.849
    54   6 C        2.920    -0.033    28.817     8.803
    55   6 C        2.924    -0.059    29.466     8.902
    56   6 C        2.929     0.058    26.696     8.473
    57   6 C        2.920    -0.037    28.925     8.820
    58   6 C        2.921    -0.027    28.668     8.780
    59   6 C        2.929    -0.023    28.589     8.769
    60   6 C        2.908    -0.050    29.230     8.865
    61   6 C        3.077     0.052    26.748     8.479
    62   6 C        2.927    -0.053    29.326     8.881
    63   6 C        2.970     0.016    27.658     8.626
    64   6 C        3.758    -0.108    22.608     6.779
    65   1 H        0.925     0.045     2.385     2.415
    66   1 H        0.925     0.044     2.396     2.421
    67   1 H        0.925     0.049     2.334     2.389
    68   1 H        0.926     0.041     2.433     2.439
    69   1 H        0.926     0.026     2.649     2.545
    70   1 H        0.926     0.028     2.619     2.531
    71   1 H        0.926     0.027     2.624     2.533
    72   1 H        0.926     0.031     2.578     2.511
    73   1 H        0.926     0.030     2.579     2.511
    74   1 H        0.926     0.028     2.620     2.531
    75   1 H        0.926     0.029     2.606     2.524
    76   1 H        0.926     0.027     2.634     2.538
    77   1 H        0.926     0.041     2.438     2.442
    78   1 H        0.926     0.033     2.538     2.491
    79   1 H        0.926     0.037     2.495     2.470
    80   1 H        0.926     0.042     2.424     2.435
    81   1 H        0.926     0.030     2.586     2.514
    82   1 H        0.926     0.032     2.557     2.501
    83   1 H        0.926     0.032     2.563     2.503
    84   1 H        0.926     0.033     2.543     2.494
    85   1 H        0.926     0.037     2.495     2.470
    86   1 H        0.926     0.059     2.216     2.328
    87   1 H        0.926     0.048     2.350     2.397
    88   1 H        0.926     0.020     2.729     2.583
    89   1 H        0.926     0.026     2.648     2.545
    90   1 H        0.926     0.025     2.657     2.549
    91   1 H        0.926     0.029     2.598     2.521
    92   1 H        0.925     0.039     2.468     2.457
    93   1 H        0.925     0.039     2.465     2.455
    94   1 H        0.925     0.030     2.579     2.512
    95   1 H        0.925     0.039     2.464     2.455
    96   1 H        0.925     0.031     2.568     2.506
    97   1 H        0.925     0.039     2.467     2.456
    98   1 H        0.926     0.029     2.600     2.522
    99   1 H        0.926     0.025     2.653     2.547
   100   1 H        0.926     0.027     2.625     2.534
   101   1 H        0.926     0.023     2.682     2.561
   102   1 H        0.926     0.045     2.386     2.415
   103   1 H        0.926     0.042     2.418     2.432
   104   1 H        0.926     0.055     2.257     2.350
   105   1 H        0.926     0.036     2.499     2.472
   106   1 H        0.926     0.041     2.438     2.442
   107   1 H        0.925     0.051     2.313     2.378
   108   1 H        0.925     0.044     2.396     2.421
   109   1 H        0.925     0.047     2.355     2.400

molecular dipole:
                 x           y           z       tot (Debye)
 q only:        0.785       1.297       0.868
   full:        0.783       1.385       0.942       4.699

 projected vibrational frequencies (cm⁻¹)
eigval :       -0.00    -0.00    -0.00     0.00     0.00     0.00
eigval :       -4.69     4.31     6.72     9.80    12.47    16.98
eigval :       23.62    33.28    36.50    40.64    42.34    47.18
eigval :       53.35    56.09    64.50    70.78    73.54    82.30
eigval :       87.17    92.43    98.03   101.37   104.52   118.28
eigval :      129.33   129.98   135.27   142.50   154.59   168.24
eigval :      171.68   185.61   190.64   192.22   207.94   214.26
eigval :      215.96   219.81   226.59   234.07   239.30   246.07
eigval :      271.89   276.15   282.31   295.19   305.27   315.14
eigval :      319.31   330.63   335.59   343.96   347.32   357.31
eigval :      372.04   378.63   388.33   391.59   395.96   401.37
eigval :      409.43   411.55   416.81   420.89   426.20   427.87
eigval :      432.12   442.94   449.90   454.21   462.14   475.02
eigval :      488.89   494.31   509.69   515.45   517.35   517.61
eigval :      528.92   534.06   541.25   542.90   547.46   551.85
eigval :      552.89   558.76   568.14   581.31   588.00   588.62
eigval :      594.54   600.44   608.63   622.11   625.86   631.05
eigval :      647.80   664.62   673.73   674.74   681.97   685.27
eigval :      693.01   694.32   694.82   699.75   707.77   709.19
eigval :      713.15   733.84   735.80   745.83   756.13   769.44
eigval :      775.99   776.44   777.63   780.75   807.58   817.44
eigval :      826.54   828.75   835.56   840.55   843.07   844.96
eigval :      863.67   865.73   868.27   871.30   873.39   874.17
eigval :      884.22   890.10   892.38   893.85   898.96   902.70
eigval :      904.93   906.29   912.53   912.66   913.50   916.19
eigval :      919.84   920.03   920.35   921.09   922.32   922.81
eigval :      924.24   926.82   927.45   930.90   938.83   957.09
eigval :      965.19   992.38   996.67   998.45  1011.45  1014.31
eigval :     1019.12  1024.78  1025.44  1030.38  1032.23  1033.24
eigval :     1070.31  1071.10  1073.68  1077.49  1086.57  1112.62
eigval :     1115.99  1119.24  1120.39  1127.79  1130.22  1140.84
eigval :     1148.88  1151.60  1153.50  1160.63  1162.45  1173.00
eigval :     1173.29  1175.71  1181.47  1181.61  1181.95  1184.14
eigval :     1187.27  1187.63  1203.45  1206.30  1219.80  1227.47
eigval :     1236.75  1238.69  1243.55  1245.58  1249.66  1252.31
eigval :     1253.16  1256.04  1259.70  1268.83  1281.92  1292.62
eigval :     1294.83  1302.79  1304.65  1309.68  1310.88  1313.04
eigval :     1315.19  1322.56  1326.34  1336.13  1346.87  1355.26
eigval :     1357.41  1360.27  1362.59  1365.78  1378.54  1398.61
eigval :     1402.71  1405.22  1410.93  1414.82  1418.59  1420.82
eigval :     1425.34  1428.65  1437.37  1439.70  1445.16  1445.65
eigval :     1472.17  1474.55  1475.10  1475.52  1477.47  1477.79
eigval :     1482.30  1484.89  1486.26  1488.17  1488.76  1490.30
eigval :     1491.18  1498.82  1500.73  1505.68  1510.91  1559.63
eigval :     1562.19  1564.05  1568.05  1575.38  1575.83  1582.23
eigval :     1587.26  1589.44  1591.49  1592.00  1593.51  1598.95
eigval :     1599.14  1600.31  1603.42  1611.67  1615.84  1688.97
eigval :     3006.08  3007.64  3023.20  3025.49  3026.12  3028.60
eigval :     3038.82  3041.58  3045.41  3045.81  3047.76  3051.88
eigval :     3075.15  3075.98  3076.49  3077.37  3077.87  3079.14
eigval :     3080.44  3080.58  3081.30  3081.55  3081.82  3082.33
eigval :     3082.43  3084.17  3084.22  3087.66  3088.12  3088.42
eigval :     3088.87  3089.29  3091.32  3091.57  3092.83  3093.32
eigval :     3094.74  3096.56  3097.39  3097.56  3097.65  3098.39
eigval :     3098.77  3099.77  3100.89

   temp. (K)  partition function   enthalpy   heat capacity  entropy
                                   cal/mol     cal/K/mol   cal/K/mol   J/K/mol
 298.15  VIB  0.149E+28            32016.028    197.281    204.079
         ROT  0.315E+09              888.752      2.981     41.868
         INT  0.469E+36            32904.781    200.262    245.948
         TR   0.229E+29             1481.254      4.968     45.984
         TOT                       34386.0346   205.2303   291.9312  1221.4403

       T/K    H(0)-H(T)+PV         H(T)/Eh          T*S/Eh         G(T)/Eh
   ------------------------------------------------------------------------
    298.15    0.547976E-01    0.910825E+00    0.138706E+00    0.772119E+00
   ------------------------------------------------------------------------

         :::::::::::::::::::::::::::::::::::::::::::::::::::::
         ::                  THERMODYNAMIC                  ::
         :::::::::::::::::::::::::::::::::::::::::::::::::::::
         :: total free energy        -163.609328276127 Eh   ::
         ::.................................................::
         :: total energy             -164.381447555811 Eh   ::
         :: zero point energy           0.856027599032 Eh   ::
         :: G(RRHO) w/o ZPVE           -0.083908319348 Eh   ::
         :: G(RRHO) contrib.            0.772119279684 Eh   ::
         :::::::::::::::::::::::::::::::::::::::::::::::::::::

           -------------------------------------------------
          | TOTAL ENERGY             -164.381447555811 Eh   |
          | TOTAL ENTHALPY           -163.470622322668 Eh   |
          | TOTAL FREE ENERGY        -163.609328276127 Eh   |
          | GRADIENT NORM               0.000046593811 Eh/α |
          | HOMO-LUMO GAP               1.672065207630 eV   |
           -------------------------------------------------

 * finished run on 2025/09/09 at 07:09:58.814
