   * xtb version 6.7.1 (edcfbbe) compiled by 'albert@albert-system' on 2024-07-22

   ID    Z sym.   atoms
    1    6 C      1-5, 7-22, 24-39, 41-47, 49-76
    2    7 N      6, 23, 40, 48
    3    1 H      77-118

          program call               : xtb data2507/toluene/N-BPyIA/N-BPyIA_toluene_S0_finalOpt.xtbopt.xyz --gfn 2 --uhf 2 --gbsa toluene --ohess vtight --parallel 40 --molden --ceasefiles --namespace data2507/toluene/N-BPyIA/N-BPyIA_toluene_T1_preOpt
      * Solvation model:               GBSA
        Solvent                        toluene
        Solvent mass                       9.2140E+01 g/mol
          :  Hamiltonian                  GFN2-xTB          :
 * total energy  :  -187.4519168 Eh     change       -0.3576844E-08 Eh
 * total energy  :  -187.4570488 Eh     change       -0.5131946E-02 Eh
 * total energy  :  -187.4587194 Eh     change       -0.1670610E-02 Eh
 * total energy  :  -187.4588827 Eh     change       -0.1633329E-03 Eh
 * total energy  :  -187.4592189 Eh     change       -0.3362386E-03 Eh
 * total energy  :  -187.4594017 Eh     change       -0.1827875E-03 Eh
 * total energy  :  -187.4596551 Eh     change       -0.2533486E-03 Eh
 * total energy  :  -187.4599507 Eh     change       -0.2956129E-03 Eh
 * total energy  :  -187.4600538 Eh     change       -0.1031065E-03 Eh
 * total energy  :  -187.4600874 Eh     change       -0.3361618E-04 Eh
 * total energy  :  -187.4603818 Eh     change       -0.2221264E-05 Eh
 * total energy  :  -187.4603834 Eh     change       -0.1552923E-05 Eh
 * total energy  :  -187.4603850 Eh     change       -0.1569493E-05 Eh
 * total energy  :  -187.4603869 Eh     change       -0.1938039E-05 Eh
 * total energy  :  -187.4603888 Eh     change       -0.1928335E-05 Eh
 * total energy  :  -187.4603903 Eh     change       -0.1471951E-05 Eh
 * total energy  :  -187.4603915 Eh     change       -0.1165394E-05 Eh
 * total energy  :  -187.4603927 Eh     change       -0.1226732E-05 Eh
 * total energy  :  -187.4603927 Eh     change       -0.9641781E-08 Eh
   *** GEOMETRY OPTIMIZATION CONVERGED AFTER 44 ITERATIONS ***

 final structure:
================
118
 xtb: 6.7.1 (edcfbbe)
C            6.45331401316437        5.73768453378650        0.31728262210173
C            7.62009449927099        5.42123904552454       -0.36102621955727
C            8.06362702841765        4.11399356899124       -0.40516487081758
C            7.34066906729502        3.09938521887741        0.22447649187882
C            7.85982937409874        1.74215622227240        0.14914991172087
N            9.14302368031099        1.46966140900433        0.13587044709928
C            9.23937257171656        0.11608423176550        0.07016107327743
C           10.42359918004546       -0.67566171382885        0.05119122395272
C           11.70073811763206       -0.12842310236021        0.11378105119016
C           12.81377532491732       -0.95222262484595        0.10400111012355
C           12.66528992604361       -2.32299866898703        0.02909434037498
C           11.39653683329885       -2.90739614144670       -0.04002582118952
C           11.23066021768060       -4.32012726010613       -0.12860655218341
C            9.99992577546690       -4.87266067791120       -0.21934185332486
C            8.82354658961451       -4.06658584685712       -0.22791088016835
C            7.55591832686504       -4.64327156911863       -0.35293420979215
C            6.42662158586926       -3.85334622757568       -0.39063803940152
C            6.52679364728591       -2.47693653556216       -0.27500829687736
C            7.76656735367075       -1.86019245198024       -0.11438356033345
C            8.94770498665091       -2.65899157848337       -0.11732275436839
C           10.24594365042422       -2.07990776391396       -0.02912523296445
C            7.96631584445943       -0.45610271845810        0.02768487961150
N            7.08919667978409        0.60283458415473        0.08985208922898
C            5.67969480314599        0.57320324476466        0.06473263509999
C            4.99477855339833        1.13334284498973       -1.00966924728709
C            3.61627826948935        1.13341062972889       -1.02291212378378
C            2.88276742914575        0.56704347026779        0.02728447201400
C            1.42506704907791        0.56404312638858        0.00761207235080
C            0.71326609465028       -0.66973078337667        0.13249586009616
C            1.37861687254552       -1.89926382084021        0.17376607011701
C            0.68666302706439       -3.10499314302427        0.25708324583885
C           -0.69166307324652       -3.10439524431788        0.25661833471342
C           -1.38171082879807       -1.89835361715972        0.16660208298121
C           -0.71408007611105       -0.66988921982008        0.12163462888472
C           -1.42385880426977        0.56064786644373       -0.03185971955529
C           -2.88353939853532        0.55938027609187       -0.04381908571590
C           -3.59645656582002        1.07268896654856       -1.13348871025232
C           -4.97533651191059        1.06380932213244       -1.14933227556072
C           -5.67951685106912        0.55334878230463       -0.06270155394290
N           -7.08865781284803        0.57531223361989       -0.06482498932357
C           -7.86583902687005        1.71059911276097       -0.12099494637420
C           -7.35638077473855        3.07272222534085       -0.17346989569660
C           -8.07422588438485        4.01349866946320       -0.91345917315074
C           -7.64350042630267        5.32386507673241       -0.98588620632337
C           -6.49518335658125        5.71677133622026       -0.31622158451041
C           -5.79052107818008        4.79441588031213        0.43950928342091
C           -6.21576097625298        3.48054241838233        0.51603712040466
N           -9.14725416582947        1.43155581060000       -0.10777314722195
C           -9.23644181331061        0.07769731289303       -0.03435148998009
C          -10.41698813218612       -0.71611836209501        0.04023705195330
C          -11.69624911685251       -0.17037215225194        0.05136804562329
C          -12.80498787298561       -0.99440304929696        0.14818510057702
C          -12.64998609217609       -2.36397239024569        0.23216801752369
C          -11.37901970251046       -2.94741534387670        0.21692413384104
C          -11.20634038715871       -4.36024782707825        0.28992472590184
C           -9.97393790580502       -4.91450248619815        0.24402045876578
C           -8.80221154565857       -4.10990624571022        0.12689879505923
C           -7.53375307891200       -4.69230796665773        0.04552540706763
C           -6.40980878762910       -3.90706922258421       -0.09955844629385
C           -6.51546294239127       -2.52674592254581       -0.13251591625753
C           -7.75550404958581       -1.90011568696975       -0.01759935883902
C           -8.93241629260881       -2.69923373539302        0.08202382394384
C          -10.23277975361931       -2.11949377393063        0.11954793032718
C           -7.96058594591463       -0.48939283334544       -0.01850740699302
C           -4.98633614397929        0.05154686171320        1.03780664716897
C           -3.60809561755800        0.04533513108366        1.03871628018421
C           -0.71338434041974        1.79249425247540       -0.16976528911724
C           -1.38259498829011        3.01891648929683       -0.24015027797983
C           -0.69268959949649        4.22631605026877       -0.31239100225065
C            0.68505842393422        4.23042458855657       -0.26916881819375
C            1.37725676152532        3.02648841167211       -0.16305837877599
C            0.71353353366585        1.79572042698455       -0.13889606903288
C            3.58948917221634        0.00476385919072        1.09889518776190
C            4.96725239182403        0.01377042128954        1.12465219114801
C            6.18157692068825        3.42935309360511        0.92490277625502
C            5.74342097798898        4.74059753911047        0.96543922544509
H            6.10443409163880        6.75925711284097        0.34900725584905
H            8.18528718195277        6.19657348886648       -0.85709375206707
H            8.97216255453766        3.85287598314815       -0.92595817043701
H           11.79846998731698        0.94472641217108        0.17325970024995
H           13.80231722046977       -0.51909505233437        0.15515912957542
H           13.53582407535351       -2.96357034225442        0.02012156843467
H           12.11704150996576       -4.93869427822625       -0.12652231237975
H            9.87885813077205       -5.94423277201817       -0.29376014229707
H            7.47338171676018       -5.71757872482327       -0.43387497931711
H            5.45312681063332       -4.30619169840608       -0.51153859552487
H            5.63192053792997       -1.87785808006616       -0.31941897507630
H            5.55291322179237        1.56112267491301       -1.82967025938386
H            3.09070689185276        1.54435531954374       -1.87180475621077
H            2.45584348804632       -1.92197296397273        0.12344607784380
H            1.23669685783880       -4.03315854306145        0.30507243821240
H           -1.24255696299943       -4.03196868016584        0.30607912084862
H           -2.45890646538023       -1.91845876476835        0.11350262195460
H           -3.05493048652861        1.44892332180609       -1.98848299605739
H           -5.51773537959916        1.44772572043561       -2.00090582827479
H           -8.96876254947674        3.69324159048035       -1.42557511641546
H           -8.20438739182932        6.04157197820096       -1.56634248997567
H           -6.15656566029132        6.74055825278892       -0.37531208211333
H           -4.90689860517151        5.10013354898800        0.98062170561301
H           -5.67193867475781        2.78003103197328        1.13166620850702
H          -11.79881932084452        0.90214211066258       -0.01156492091439
H          -13.79527504393362       -0.56235458984330        0.15867490861141
H          -13.51726626183340       -3.00463336135461        0.30708208461895
H          -12.08907184843073       -4.97814212169707        0.37537351023534
H           -9.84785795289083       -5.98708207389494        0.28988105663987
H           -7.44666144481069       -5.76863980363821        0.08294252594620
H           -5.43610168993315       -4.36687455281390       -0.18819039777815
H           -5.62463291210581       -1.93345251840972       -0.25971373865247
H           -5.53863687875945       -0.32921272399155        1.88514323195281
H           -3.07593423298605       -0.32884631965228        1.90068409445191
H           -2.46084565391693        3.03549915994129       -0.22477394283855
H           -1.24460349674688        5.15180192226825       -0.38332446915838
H            1.23505513193857        5.15914863740852       -0.30319527171518
H            2.45251300809869        3.05084991506877       -0.08374752072175
H            3.04248421032987       -0.40842102331204        1.93328287341849
H            5.50478735786756       -0.40752691880395        1.96234362422111
H            5.63148670807701        2.66859421297935        1.45763431511334
H            4.84470617319366        4.98448042041155        1.51311021996542

          :  Hamiltonian                  GFN2-xTB          :
         :: gradient norm              0.000066104829 Eh/a0 ::
         :: HOMO-LUMO gap              0.536465611409 eV    ::
         :: SCC energy              -191.008771692697 Eh    ::
         :: -> dispersion             -0.187485895593 Eh    ::
         :: -> Gsolv                  -0.076433620723 Eh    ::
         :: repulsion energy           3.548378983758 Eh    ::

    * Orbital Energies and Occupations

         #    Occupation            Energy/Eh            Energy/eV
      -------------------------------------------------------------
         1        2.0000           -0.6904768             -18.7888
       ...           ...                  ...                  ...
       164        2.0000           -0.4052531             -11.0275
       165        2.0000           -0.4037378             -10.9863
       166        2.0000           -0.4024654             -10.9516
       167        2.0000           -0.3922035             -10.6724
       168        2.0000           -0.3921268             -10.6703
       169        2.0000           -0.3876725             -10.5491
       170        2.0000           -0.3875941             -10.5470
       171        2.0000           -0.3818214             -10.3899
       172        2.0000           -0.3816432             -10.3850
       173        1.9808           -0.3616963              -9.8423
       174        1.9786           -0.3615898              -9.8394
       175        1.0406           -0.3549556              -9.6588
       176        1.0000           -0.2939584              -7.9990 (HOMO)
       177        0.0000           -0.2742434              -7.4625 (LUMO)
       178        0.0000           -0.2740044              -7.4560
       179                         -0.2580663              -7.0223
       180                         -0.2579267              -7.0185
       181                         -0.2437327              -6.6323
       182                         -0.2435384              -6.6270
       183                         -0.2394882              -6.5168
       184                         -0.2392526              -6.5104
       185                         -0.2382376              -6.4828
       186                         -0.2377876              -6.4705
       187                         -0.2311602              -6.2902
       ...                                ...                  ...
       346                          0.7288018              19.8317
      -------------------------------------------------------------
                  HL-Gap            0.0197150 Eh            0.5365 eV

     #   Z          covCN         q      C6AA      α(0)
     1   6 C        2.919    -0.028    28.707     8.786
     2   6 C        2.918    -0.027    28.686     8.783
     3   6 C        2.928    -0.028    28.712     8.787
     4   6 C        2.974    -0.001    28.046     8.687
     5   6 C        3.188     0.136    24.603     8.092
     6   7 N        1.894    -0.317    29.057     7.991
     7   6 C        3.202     0.061    26.094     8.323
     8   6 C        2.978    -0.003    28.104     8.696
     9   6 C        2.919    -0.034    28.837     8.806
    10   6 C        2.914    -0.031    28.773     8.796
    11   6 C        2.921    -0.039    28.966     8.826
    12   6 C        2.983     0.010    27.780     8.646
    13   6 C        2.913    -0.036    28.900     8.815
    14   6 C        2.914    -0.038    28.941     8.822
    15   6 C        2.983     0.011    27.757     8.642
    16   6 C        2.921    -0.039    28.978     8.828
    17   6 C        2.914    -0.032    28.799     8.800
    18   6 C        2.918    -0.042    29.049     8.838
    19   6 C        2.972    -0.006    28.155     8.704
    20   6 C        2.994    -0.005    28.130     8.700
    21   6 C        2.994    -0.007    28.183     8.708
    22   6 C        3.074     0.022    27.428     8.587
    23   7 N        2.839    -0.051    22.229     7.002
    24   6 C        2.912     0.061    26.638     8.463
    25   6 C        2.918    -0.039    28.977     8.827
    26   6 C        2.924    -0.030    28.748     8.793
    27   6 C        2.973     0.017    27.618     8.620
    28   6 C        2.972    -0.011    28.292     8.725
    29   6 C        2.976     0.009    27.814     8.651
    30   6 C        2.921    -0.038    28.952     8.824
    31   6 C        2.914    -0.031    28.777     8.797
    32   6 C        2.913    -0.031    28.774     8.796
    33   6 C        2.921    -0.038    28.950     8.824
    34   6 C        2.976     0.009    27.814     8.651
    35   6 C        2.973    -0.011    28.293     8.725
    36   6 C        2.973     0.018    27.612     8.619
    37   6 C        2.924    -0.030    28.746     8.792
    38   6 C        2.918    -0.039    28.978     8.827
    39   6 C        2.912     0.061    26.634     8.463
    40   7 N        2.839    -0.051    22.222     7.001
    41   6 C        3.189     0.136    24.600     8.091
    42   6 C        2.974    -0.001    28.043     8.686
    43   6 C        2.928    -0.028    28.710     8.787
    44   6 C        2.918    -0.027    28.685     8.783
    45   6 C        2.919    -0.028    28.706     8.786
    46   6 C        2.919    -0.029    28.719     8.788
    47   6 C        2.922    -0.035    28.865     8.811
    48   7 N        1.894    -0.317    29.056     7.991
    49   6 C        3.202     0.061    26.091     8.322
    50   6 C        2.978    -0.003    28.104     8.696
    51   6 C        2.919    -0.034    28.837     8.806
    52   6 C        2.914    -0.031    28.773     8.796
    53   6 C        2.920    -0.039    28.966     8.826
    54   6 C        2.983     0.010    27.780     8.646
    55   6 C        2.913    -0.036    28.901     8.815
    56   6 C        2.914    -0.038    28.941     8.822
    57   6 C        2.983     0.011    27.758     8.642
    58   6 C        2.921    -0.039    28.979     8.828
    59   6 C        2.914    -0.032    28.799     8.800
    60   6 C        2.918    -0.042    29.049     8.838
    61   6 C        2.972    -0.005    28.154     8.704
    62   6 C        2.994    -0.005    28.130     8.700
    63   6 C        2.994    -0.007    28.183     8.708
    64   6 C        3.073     0.022    27.435     8.588
    65   6 C        2.917    -0.038    28.957     8.824
    66   6 C        2.924    -0.031    28.772     8.796
    67   6 C        2.976     0.009    27.813     8.651
    68   6 C        2.921    -0.038    28.953     8.824
    69   6 C        2.913    -0.031    28.764     8.795
    70   6 C        2.913    -0.031    28.768     8.795
    71   6 C        2.921    -0.038    28.950     8.823
    72   6 C        2.976     0.009    27.815     8.651
    73   6 C        2.923    -0.031    28.778     8.797
    74   6 C        2.917    -0.039    28.957     8.824
    75   6 C        2.922    -0.035    28.876     8.812
    76   6 C        2.919    -0.029    28.721     8.788
    77   1 H        0.926     0.041     2.437     2.441
    78   1 H        0.926     0.041     2.435     2.440
    79   1 H        0.926     0.045     2.385     2.415
    80   1 H        0.926     0.044     2.401     2.423
    81   1 H        0.926     0.034     2.526     2.485
    82   1 H        0.926     0.035     2.516     2.481
    83   1 H        0.926     0.036     2.506     2.476
    84   1 H        0.926     0.035     2.510     2.477
    85   1 H        0.926     0.035     2.523     2.484
    86   1 H        0.926     0.033     2.551     2.498
    87   1 H        0.926     0.029     2.596     2.519
    88   1 H        0.926     0.037     2.491     2.468
    89   1 H        0.926     0.047     2.356     2.400
    90   1 H        0.926     0.034     2.536     2.490
    91   1 H        0.926     0.031     2.567     2.506
    92   1 H        0.926     0.031     2.569     2.506
    93   1 H        0.926     0.033     2.544     2.494
    94   1 H        0.926     0.047     2.358     2.401
    95   1 H        0.926     0.037     2.486     2.466
    96   1 H        0.926     0.045     2.389     2.417
    97   1 H        0.926     0.041     2.434     2.440
    98   1 H        0.926     0.041     2.435     2.440
    99   1 H        0.926     0.039     2.460     2.453
   100   1 H        0.926     0.029     2.603     2.523
   101   1 H        0.926     0.044     2.400     2.423
   102   1 H        0.926     0.034     2.526     2.485
   103   1 H        0.926     0.035     2.517     2.481
   104   1 H        0.926     0.036     2.507     2.476
   105   1 H        0.926     0.035     2.510     2.477
   106   1 H        0.926     0.034     2.523     2.484
   107   1 H        0.926     0.032     2.551     2.498
   108   1 H        0.926     0.029     2.595     2.519
   109   1 H        0.926     0.041     2.438     2.442
   110   1 H        0.926     0.047     2.359     2.402
   111   1 H        0.926     0.035     2.514     2.480
   112   1 H        0.926     0.033     2.546     2.495
   113   1 H        0.926     0.033     2.545     2.495
   114   1 H        0.926     0.035     2.511     2.478
   115   1 H        0.926     0.047     2.355     2.400
   116   1 H        0.926     0.040     2.442     2.444
   117   1 H        0.926     0.029     2.597     2.520
   118   1 H        0.926     0.039     2.461     2.453

molecular dipole:
                 x           y           z       tot (Debye)
 q only:       -0.010       0.309      -0.079
   full:       -0.011      -0.176      -0.085       0.498

 projected vibrational frequencies (cm⁻¹)
eigval :       -0.00    -0.00     0.00     0.00     0.00     0.00
eigval :        4.98     5.81     7.89    10.68    12.92    18.77
eigval :       23.74    32.53    35.46    38.82    40.10    44.70
eigval :       45.72    54.46    58.94    67.31    69.77    75.40
eigval :       83.35    83.64    96.09   100.34   112.10   119.08
eigval :      121.99   130.36   131.76   151.69   159.33   172.72
eigval :      184.37   187.50   200.50   208.63   210.22   213.57
eigval :      215.39   223.58   224.76   224.94   240.21   248.31
eigval :      253.36   259.37   280.43   282.19   298.41   330.03
eigval :      335.78   348.42   349.22   352.86   353.82   360.61
eigval :      373.57   374.85   376.28   378.15   381.66   383.79
eigval :      391.92   393.09   402.29   403.26   404.01   413.31
eigval :      424.02   428.12   429.30   449.69   453.87   454.04
eigval :      457.90   468.28   478.00   480.32   483.98   487.38
eigval :      490.05   492.69   506.46   511.65   529.50   529.87
eigval :      535.94   536.17   554.38   556.29   565.98   569.16
eigval :      569.25   574.61   581.06   584.28   586.81   587.54
eigval :      592.52   594.12   609.59   616.23   617.04   633.56
eigval :      640.65   641.33   653.61   659.71   661.41   664.68
eigval :      674.13   675.64   676.05   679.40   681.99   683.39
eigval :      691.65   697.03   700.20   702.58   705.82   707.26
eigval :      710.42   716.59   730.11   744.84   751.07   753.34
eigval :      753.48   757.78   762.30   762.52   770.72   771.90
eigval :      773.60   774.95   796.94   797.68   818.30   819.96
eigval :      837.05   838.01   839.51   843.39   866.81   871.19
eigval :      874.28   875.51   877.92   879.14   886.33   889.41
eigval :      889.61   889.98   891.41   891.89   894.29   901.47
eigval :      902.43   904.35   906.45   908.99   911.23   915.85
eigval :      916.95   918.90   919.16   920.14   920.40   921.82
eigval :      922.11   924.66   925.25   928.94   929.18   930.93
eigval :      931.33   931.79   932.42   943.63   967.18   968.77
eigval :      990.45   993.67   995.42   995.58  1027.12  1028.85
eigval :     1081.01  1081.64  1092.89  1093.23  1104.00  1107.60
eigval :     1109.58  1109.81  1115.24  1118.63  1118.90  1121.89
eigval :     1122.32  1127.07  1128.52  1129.34  1135.22  1136.02
eigval :     1157.70  1157.84  1177.54  1178.29  1178.50  1178.86
eigval :     1179.15  1180.64  1181.68  1183.21  1184.64  1187.91
eigval :     1194.36  1196.14  1197.73  1200.05  1200.59  1200.99
eigval :     1221.21  1221.25  1230.53  1231.48  1231.97  1243.37
eigval :     1243.58  1255.68  1259.19  1262.33  1277.40  1278.03
eigval :     1281.90  1290.97  1296.24  1298.16  1298.42  1299.16
eigval :     1302.22  1305.81  1307.64  1319.56  1319.66  1323.08
eigval :     1323.41  1331.99  1334.45  1334.98  1360.21  1361.80
eigval :     1362.31  1363.04  1373.89  1374.97  1375.15  1386.65
eigval :     1387.01  1395.31  1395.94  1397.13  1397.40  1402.58
eigval :     1404.05  1408.65  1417.79  1417.80  1420.39  1428.92
eigval :     1429.14  1450.18  1450.29  1463.72  1467.93  1473.01
eigval :     1478.26  1478.98  1480.64  1483.78  1488.97  1503.71
eigval :     1503.89  1523.75  1526.26  1527.68  1528.89  1530.92
eigval :     1532.49  1536.79  1537.80  1549.46  1558.77  1559.04
eigval :     1569.30  1571.85  1573.32  1577.25  1579.67  1579.84
eigval :     1585.31  1585.86  1595.03  1595.17  1605.24  1606.42
eigval :     3063.99  3064.38  3068.64  3068.80  3069.60  3069.80
eigval :     3074.31  3074.50  3074.51  3075.54  3076.03  3076.74
eigval :     3077.07  3077.11  3077.93  3078.27  3079.96  3080.14
eigval :     3080.70  3081.34  3081.64  3081.90  3083.85  3084.97
eigval :     3087.91  3088.74  3090.04  3090.20  3093.31  3093.60
eigval :     3094.23  3095.75  3098.66  3099.35  3099.53  3099.65
eigval :     3099.71  3100.28  3101.29  3102.15  3117.24  3117.94

   temp. (K)  partition function   enthalpy   heat capacity  entropy
                                   cal/mol     cal/K/mol   cal/K/mol   J/K/mol
 298.15  VIB  0.416E+28            34005.141    217.390    212.561
         ROT  0.407E+09              888.752      2.981     42.379
         INT  0.170E+37            34893.893    220.371    254.940
         TR   0.289E+29             1481.254      4.968     46.448
         TOT                       36375.1471   225.3387   301.3883  1261.0086

       T/K    H(0)-H(T)+PV         H(T)/Eh          T*S/Eh         G(T)/Eh
   ------------------------------------------------------------------------
    298.15    0.579675E-01    0.950805E+00    0.143199E+00    0.807606E+00
   ------------------------------------------------------------------------

         :::::::::::::::::::::::::::::::::::::::::::::::::::::
         ::                  THERMODYNAMIC                  ::
         :::::::::::::::::::::::::::::::::::::::::::::::::::::
         :: total free energy        -186.652787188391 Eh   ::
         ::.................................................::
         :: total energy             -187.460392701126 Eh   ::
         :: zero point energy           0.892837327150 Eh   ::
         :: G(RRHO) w/o ZPVE           -0.085231814415 Eh   ::
         :: G(RRHO) contrib.            0.807605512735 Eh   ::
         :::::::::::::::::::::::::::::::::::::::::::::::::::::

           -------------------------------------------------
          | TOTAL ENERGY             -187.460392701126 Eh   |
          | TOTAL ENTHALPY           -186.509587887326 Eh   |
          | TOTAL FREE ENERGY        -186.652787188391 Eh   |
          | GRADIENT NORM               0.000066102225 Eh/α |
          | HOMO-LUMO GAP               0.536472661207 eV   |
           -------------------------------------------------

 * finished run on 2025/09/08 at 10:56:42.430
