   * xtb version 6.7.1 (edcfbbe) compiled by 'albert@albert-system' on 2024-07-22

   ID    Z sym.   atoms
    1    6 C      1-5, 7-22, 24-39, 41-47, 49-76
    2    7 N      6, 23, 40, 48
    3    1 H      77-118

          program call               : xtb data2507/toluene/N-BPyIA/N-BPyIA_toluene_T1_crest.xyz --gfn 2 --uhf 2 --gbsa toluene --ohess vtight --parallel 40 --molden --ceasefiles --namespace data2507/toluene/N-BPyIA/N-BPyIA_toluene_T1_finalOpt
      * Solvation model:               GBSA
        Solvent                        toluene
        Solvent mass                       9.2140E+01 g/mol
          :  Hamiltonian                  GFN2-xTB          :
 * total energy  :  -187.4600578 Eh     change       -0.6366264E-08 Eh
 * total energy  :  -187.4601315 Eh     change       -0.7370415E-04 Eh
 * total energy  :  -187.4601896 Eh     change       -0.5809082E-04 Eh
 * total energy  :  -187.4602243 Eh     change       -0.3470031E-04 Eh
 * total energy  :  -187.4602510 Eh     change       -0.2678448E-04 Eh
 * total energy  :  -187.4602727 Eh     change       -0.2169673E-04 Eh
 * total energy  :  -187.4602801 Eh     change       -0.7357184E-05 Eh
 * total energy  :  -187.4602853 Eh     change       -0.5210143E-05 Eh
 * total energy  :  -187.4602937 Eh     change       -0.8380912E-05 Eh
 * total energy  :  -187.4602937 Eh     change       -0.2169287E-07 Eh
 * total energy  :  -187.4603901 Eh     change       -0.2661190E-06 Eh
 * total energy  :  -187.4603904 Eh     change       -0.3032924E-06 Eh
 * total energy  :  -187.4603907 Eh     change       -0.3250368E-06 Eh
 * total energy  :  -187.4603911 Eh     change       -0.3368985E-06 Eh
 * total energy  :  -187.4603915 Eh     change       -0.3770661E-06 Eh
 * total energy  :  -187.4603919 Eh     change       -0.4511826E-06 Eh
 * total energy  :  -187.4603924 Eh     change       -0.4988931E-06 Eh
 * total energy  :  -187.4603929 Eh     change       -0.4686032E-06 Eh
 * total energy  :  -187.4603929 Eh     change       -0.2800022E-08 Eh
   *** GEOMETRY OPTIMIZATION CONVERGED AFTER 68 ITERATIONS ***

 final structure:
================
118
 xtb: 6.7.1 (edcfbbe)
C            6.23696733130533        5.66872141492828        0.07802223466571
C            7.41480254739685        5.37539854107737       -0.59138025524465
C            7.91412063432600        4.08754495648392       -0.58427253951213
C            7.23668998027638        3.06952269481983        0.08860085620553
C            7.81242888363198        1.73305488173243        0.06635963628790
N            9.10522212854367        1.51255641861791        0.07724665378152
C            9.25614716733044        0.16226461655502        0.05884535604155
C           10.47136619879131       -0.58077117994283        0.08053301899978
C           11.72432031051589        0.01983155497610        0.14309708176512
C           12.86966638771250       -0.75785429642943        0.17393260430858
C           12.77761772597079       -2.13518044937243        0.13868614390160
C           11.53460651712622       -2.77269846064407        0.07108693795585
C           11.42683658387857       -4.19303642562045        0.02340315425227
C           10.22071141703759       -4.79757043543205       -0.06641359745476
C            9.01299790774304       -4.04059102298202       -0.11394041537902
C            7.77132419233761       -4.67172542073310       -0.23638778209993
C            6.61147858137801       -3.92984732599005       -0.30982453609236
C            6.65465812804764       -2.54777591864321       -0.23370830990107
C            7.86663217108335       -1.87670960720623       -0.07898247543825
C            9.07892865942257       -2.62655133144232       -0.04387519347113
C           10.35153853241236       -1.99283259281396        0.04200467354500
C            8.00764152592632       -0.46202936629901        0.02146068489906
N            7.08829337738080        0.56215501044995        0.03701116908752
C            5.68121321081323        0.48503682639122        0.00309057083428
C            4.98711863085756        1.01857863242834       -1.07899193814336
C            3.60886008996544        0.99754728680082       -1.09095872437946
C            2.88523359548859        0.43485514475135       -0.03231838544903
C            1.42665679915705        0.43274497751613       -0.03950935571926
C            0.71273841224457       -0.79896049879073        0.08572875729541
C            1.37637650318488       -2.02982362371479        0.11707604245776
C            0.68218330013174       -3.23472599305814        0.19116754328126
C           -0.69620494266392       -3.23147334866832        0.18799385268953
C           -1.38431046097798       -2.02322241722709        0.11166153232802
C           -0.71464428288411       -0.79556163609489        0.08378841543762
C           -1.42267718002951        0.43956685129279       -0.04135365089610
C           -2.88114663081510        0.44850298510021       -0.03228694820020
C           -3.60429623290316        1.01674328960333       -1.08828790727387
C           -4.98240394502512        1.04559117363412       -1.07257419531920
C           -5.67669710352857        0.51391640158233        0.01025045805894
N           -7.08328103259942        0.59972803450375        0.04799571561866
C           -7.79942732142709        1.77520129001087        0.08644888005145
C           -7.21411780601057        3.10727927841054        0.12006043846483
C           -7.88286688462697        4.13583422306959       -0.54539242660293
C           -7.37418097802933        5.42004273802410       -0.54059423154018
C           -6.19556558598402        5.69912111433967        0.13351844398842
C           -5.53895551509353        4.68893472365047        0.81672062234849
C           -6.04229949263915        3.40078247257663        0.81554906802984
N           -9.09369548285911        1.56346152152785        0.09558577307216
C           -9.25375341061901        0.21438736652211        0.06659340408069
C          -10.47393907592959       -0.52062185035432        0.08192279633404
C          -11.72284517511270        0.08795665004482        0.14824921522630
C          -12.87346961417892       -0.68215449256160        0.17180483906377
C          -12.79070857401390       -2.05975149488321        0.12559835383068
C          -11.55197398436335       -2.70515995875415        0.05435402455797
C          -11.45374444651072       -4.12580092098433       -0.00388630838115
C          -10.25157935725632       -4.73783657452509       -0.09612863603387
C           -9.03868977256089       -3.98874425272860       -0.13623974317209
C           -7.80103440091153       -4.62737822596606       -0.26056034459223
C           -6.63607214753084       -3.89287186961777       -0.32669044513620
C           -6.67012752968131       -2.51104081164202       -0.24186716407943
C           -7.87787942121541       -1.83292676197994       -0.08500699175148
C           -9.09522638243602       -2.57480199780939       -0.05658404917637
C          -10.36362205648529       -1.93312343009547        0.03250494079250
C           -8.00949897029604       -0.41803645029815        0.02450380826625
C           -4.97440032917626       -0.05821338729712        1.06995027226353
C           -3.59702416554303       -0.09775585473720        1.04090609909281
C           -0.70867543165851        1.67167447630154       -0.16909755721264
C           -1.37227226199134        2.90267411472500       -0.20199496694623
C           -0.67815562243020        4.10737015682718       -0.27984065108295
C            0.70023272201271        4.10397269367913       -0.27923910111569
C            1.38834182914328        2.89587767095849       -0.20069492410898
C            0.71862524514193        1.66816565870888       -0.16835469348404
C            3.60071393091100       -0.11277401538043        1.04038085069478
C            4.97839087928689       -0.08055191192490        1.06593557105627
C            6.06597433554256        3.37750190300781        0.77968863836993
C            5.57190927219719        4.66920205616812        0.76871009430975
H            5.84442932261782        6.67477997334056        0.06946085393940
H            7.94510301447286        6.15345707557293       -1.12061042584583
H            8.83204361887723        3.84483441945041       -1.09756053259372
H           11.77735952419241        1.09741091149377        0.17112727699816
H           13.83916534976363       -0.28351258243061        0.22515627004209
H           13.67341459994677       -2.73960620818910        0.16048281001962
H           12.33721831492713       -4.77485705609245        0.05554860026382
H           10.14397296113567       -5.87492814864473       -0.10979249959502
H            7.73361297784359       -5.75042025569787       -0.28631796678019
H            5.65833237794436       -4.42505056035647       -0.42733521658351
H            5.73700900364178       -1.98682278694479       -0.30566452492138
H            5.53799503345327        1.44718568514604       -1.90342252493877
H            3.07604531328950        1.39332689685003       -1.94255262312743
H            2.45361129981489       -2.05310829144584        0.06622388883151
H            1.23025181508603       -4.16438325757651        0.23229379456353
H           -1.24886249269725       -4.15852768405958        0.22629366720502
H           -2.46143870429085       -2.04124392654654        0.05621002526404
H           -3.07155197825435        1.41080886684320       -1.94072206043793
H           -5.53303760784927        1.47886157511753       -1.89475379745149
H           -8.80155963223432        3.90424526798566       -1.06242530126158
H           -7.89776200377080        6.20644114150982       -1.06417433237592
H           -5.79589051774921        6.70240280614576        0.13461350539613
H           -4.63145330339482        4.90470279421833        1.36158850533109
H           -5.53326525011925        2.63090346251137        1.37541442745164
H          -11.76849125912975        1.16562623975450        0.18476303746117
H          -13.83981328320768       -0.20170806355724        0.22590030583721
H          -13.69060592113456       -2.65822014550376        0.14177702141721
H          -12.36807460307076       -4.70169061641286        0.02268286965507
H          -10.18205902146582       -5.81535943021048       -0.14705072129449
H           -7.77041281800559       -5.70595135580025       -0.31760810066308
H           -5.68602391677195       -4.39370243810604       -0.44535612222408
H           -5.74861839688155       -1.95573669021550       -0.30818048346689
H           -5.51869849009336       -0.46011520025272        1.91274455346151
H           -3.05719340340924       -0.51825804649641        1.87632853478302
H           -2.44942856605936        2.92643240456465       -0.15284955265419
H           -1.22708275751370        5.03626476320260       -0.32403910972894
H            1.25366936638431        5.03019841340145       -0.32301317499237
H            2.46557294460350        2.91424140536459       -0.15049950177242
H            3.06080000808089       -0.52850929694203        1.87813155026133
H            5.52258504120574       -0.48359387257992        1.90824298810235
H            5.55053439403983        2.61623262216653        1.34544014563350
H            4.66503676581237        4.89623721358862        1.31003732476171

          :  Hamiltonian                  GFN2-xTB          :
         :: gradient norm              0.000060754602 Eh/a0 ::
         :: HOMO-LUMO gap              0.539133483410 eV    ::
         :: SCC energy              -191.008783055208 Eh    ::
         :: -> dispersion             -0.187695158354 Eh    ::
         :: -> Gsolv                  -0.076249745517 Eh    ::
         :: repulsion energy           3.548390181275 Eh    ::

    * Orbital Energies and Occupations

         #    Occupation            Energy/Eh            Energy/eV
      -------------------------------------------------------------
         1        2.0000           -0.6904135             -18.7871
       ...           ...                  ...                  ...
       164        2.0000           -0.4052362             -11.0270
       165        2.0000           -0.4037524             -10.9867
       166        2.0000           -0.4025333             -10.9535
       167        2.0000           -0.3922126             -10.6726
       168        2.0000           -0.3921593             -10.6712
       169        2.0000           -0.3876815             -10.5493
       170        2.0000           -0.3876104             -10.5474
       171        2.0000           -0.3818497             -10.3907
       172        2.0000           -0.3816938             -10.3864
       173        1.9809           -0.3616510              -9.8410
       174        1.9791           -0.3615684              -9.8388
       175        1.0400           -0.3548921              -9.6571
       176        1.0000           -0.2939752              -7.9995 (HOMO)
       177        0.0000           -0.2741627              -7.4603 (LUMO)
       178        0.0000           -0.2739728              -7.4552
       179                         -0.2579490              -7.0192
       180                         -0.2578003              -7.0151
       181                         -0.2436122              -6.6290
       182                         -0.2435320              -6.6268
       183                         -0.2394042              -6.5145
       184                         -0.2392832              -6.5112
       185                         -0.2382039              -6.4819
       186                         -0.2379696              -6.4755
       187                         -0.2311278              -6.2893
       ...                                ...                  ...
       346                          0.7289482              19.8357
      -------------------------------------------------------------
                  HL-Gap            0.0198125 Eh            0.5391 eV

     #   Z          covCN         q      C6AA      α(0)
     1   6 C        2.919    -0.028    28.706     8.786
     2   6 C        2.918    -0.027    28.686     8.783
     3   6 C        2.928    -0.028    28.711     8.787
     4   6 C        2.974    -0.001    28.045     8.687
     5   6 C        3.189     0.136    24.595     8.090
     6   7 N        1.894    -0.317    29.056     7.991
     7   6 C        3.203     0.061    26.089     8.321
     8   6 C        2.978    -0.003    28.104     8.696
     9   6 C        2.919    -0.034    28.837     8.806
    10   6 C        2.914    -0.031    28.773     8.796
    11   6 C        2.921    -0.039    28.966     8.826
    12   6 C        2.983     0.010    27.780     8.646
    13   6 C        2.913    -0.036    28.900     8.815
    14   6 C        2.914    -0.038    28.941     8.822
    15   6 C        2.983     0.011    27.758     8.642
    16   6 C        2.921    -0.039    28.979     8.828
    17   6 C        2.914    -0.032    28.799     8.800
    18   6 C        2.918    -0.042    29.050     8.838
    19   6 C        2.972    -0.005    28.155     8.704
    20   6 C        2.994    -0.005    28.130     8.700
    21   6 C        2.994    -0.007    28.183     8.708
    22   6 C        3.073     0.022    27.431     8.587
    23   7 N        2.839    -0.051    22.226     7.002
    24   6 C        2.912     0.061    26.637     8.463
    25   6 C        2.918    -0.039    28.978     8.827
    26   6 C        2.924    -0.030    28.746     8.792
    27   6 C        2.973     0.017    27.615     8.620
    28   6 C        2.973    -0.011    28.292     8.725
    29   6 C        2.976     0.009    27.813     8.651
    30   6 C        2.921    -0.038    28.951     8.824
    31   6 C        2.913    -0.031    28.776     8.796
    32   6 C        2.913    -0.031    28.776     8.796
    33   6 C        2.921    -0.038    28.950     8.823
    34   6 C        2.976     0.009    27.814     8.651
    35   6 C        2.973    -0.011    28.292     8.725
    36   6 C        2.973     0.017    27.615     8.620
    37   6 C        2.924    -0.030    28.746     8.792
    38   6 C        2.918    -0.039    28.978     8.827
    39   6 C        2.912     0.061    26.637     8.463
    40   7 N        2.839    -0.051    22.227     7.002
    41   6 C        3.190     0.136    24.594     8.090
    42   6 C        2.974    -0.001    28.045     8.687
    43   6 C        2.928    -0.028    28.711     8.787
    44   6 C        2.918    -0.027    28.686     8.783
    45   6 C        2.919    -0.028    28.706     8.786
    46   6 C        2.919    -0.029    28.720     8.788
    47   6 C        2.922    -0.035    28.871     8.811
    48   7 N        1.894    -0.317    29.057     7.991
    49   6 C        3.203     0.060    26.089     8.321
    50   6 C        2.978    -0.003    28.104     8.696
    51   6 C        2.919    -0.034    28.838     8.806
    52   6 C        2.914    -0.031    28.773     8.796
    53   6 C        2.921    -0.039    28.966     8.826
    54   6 C        2.983     0.010    27.780     8.646
    55   6 C        2.913    -0.036    28.900     8.815
    56   6 C        2.914    -0.038    28.941     8.822
    57   6 C        2.983     0.011    27.758     8.642
    58   6 C        2.921    -0.039    28.979     8.828
    59   6 C        2.914    -0.032    28.799     8.800
    60   6 C        2.918    -0.042    29.050     8.838
    61   6 C        2.972    -0.005    28.155     8.704
    62   6 C        2.994    -0.005    28.130     8.700
    63   6 C        2.994    -0.007    28.183     8.708
    64   6 C        3.074     0.022    27.431     8.587
    65   6 C        2.917    -0.039    28.960     8.825
    66   6 C        2.923    -0.031    28.776     8.797
    67   6 C        2.976     0.009    27.813     8.651
    68   6 C        2.921    -0.038    28.953     8.824
    69   6 C        2.913    -0.031    28.766     8.795
    70   6 C        2.913    -0.031    28.766     8.795
    71   6 C        2.921    -0.038    28.953     8.824
    72   6 C        2.976     0.009    27.814     8.651
    73   6 C        2.923    -0.031    28.777     8.797
    74   6 C        2.917    -0.039    28.960     8.825
    75   6 C        2.922    -0.035    28.871     8.811
    76   6 C        2.919    -0.029    28.720     8.788
    77   1 H        0.926     0.041     2.435     2.440
    78   1 H        0.926     0.041     2.434     2.440
    79   1 H        0.926     0.044     2.390     2.417
    80   1 H        0.926     0.044     2.401     2.423
    81   1 H        0.926     0.034     2.526     2.486
    82   1 H        0.926     0.035     2.517     2.481
    83   1 H        0.926     0.036     2.507     2.476
    84   1 H        0.926     0.035     2.510     2.478
    85   1 H        0.926     0.034     2.524     2.484
    86   1 H        0.926     0.033     2.551     2.498
    87   1 H        0.926     0.030     2.593     2.518
    88   1 H        0.926     0.037     2.491     2.468
    89   1 H        0.926     0.047     2.357     2.401
    90   1 H        0.926     0.033     2.537     2.491
    91   1 H        0.926     0.031     2.567     2.505
    92   1 H        0.926     0.031     2.567     2.505
    93   1 H        0.926     0.033     2.538     2.491
    94   1 H        0.926     0.047     2.357     2.401
    95   1 H        0.926     0.037     2.492     2.468
    96   1 H        0.926     0.044     2.390     2.418
    97   1 H        0.926     0.041     2.434     2.440
    98   1 H        0.926     0.041     2.435     2.440
    99   1 H        0.926     0.039     2.459     2.452
   100   1 H        0.926     0.029     2.600     2.522
   101   1 H        0.926     0.044     2.401     2.423
   102   1 H        0.926     0.034     2.526     2.486
   103   1 H        0.926     0.035     2.517     2.481
   104   1 H        0.926     0.036     2.507     2.476
   105   1 H        0.926     0.035     2.510     2.478
   106   1 H        0.926     0.034     2.524     2.484
   107   1 H        0.926     0.033     2.551     2.498
   108   1 H        0.926     0.030     2.593     2.518
   109   1 H        0.926     0.041     2.439     2.442
   110   1 H        0.926     0.047     2.356     2.400
   111   1 H        0.926     0.035     2.511     2.478
   112   1 H        0.926     0.033     2.544     2.494
   113   1 H        0.926     0.033     2.544     2.494
   114   1 H        0.926     0.035     2.511     2.478
   115   1 H        0.926     0.047     2.356     2.400
   116   1 H        0.926     0.041     2.439     2.442
   117   1 H        0.926     0.029     2.601     2.522
   118   1 H        0.926     0.039     2.459     2.452

molecular dipole:
                 x           y           z       tot (Debye)
 q only:        0.003       0.222      -0.106
   full:        0.001      -0.285      -0.127       0.793

 projected vibrational frequencies (cm⁻¹)
eigval :       -0.00    -0.00    -0.00     0.00     0.00     0.00
eigval :        4.33     5.36     7.79     8.43    17.35    19.70
eigval :       24.18    33.79    34.59    38.32    41.73    44.54
eigval :       45.57    56.53    63.91    68.42    70.65    73.79
eigval :       82.99    83.93    98.06    99.87   111.38   118.67
eigval :      120.80   131.22   131.31   151.66   158.80   172.10
eigval :      183.51   187.19   199.77   208.35   209.12   211.46
eigval :      214.51   224.69   224.81   225.29   240.39   248.86
eigval :      254.05   259.79   281.25   283.18   298.48   330.03
eigval :      335.54   349.10   349.45   352.66   353.24   360.52
eigval :      374.57   376.34   377.23   379.11   382.66   384.13
eigval :      392.75   393.22   402.42   403.48   403.75   413.16
eigval :      424.14   428.86   429.48   449.79   452.87   453.34
eigval :      458.01   468.56   478.01   480.98   483.83   487.37
eigval :      489.89   492.79   506.78   511.88   530.33   530.72
eigval :      535.58   536.03   555.79   556.10   566.91   569.01
eigval :      569.26   576.93   581.95   584.24   586.59   587.49
eigval :      591.55   592.59   609.63   616.49   617.38   633.46
eigval :      640.98   641.42   653.56   660.48   662.06   665.12
eigval :      674.09   676.75   676.82   679.29   681.31   681.68
eigval :      692.26   696.51   698.78   701.58   705.84   707.45
eigval :      710.25   719.40   730.54   745.97   751.11   751.52
eigval :      752.27   759.10   762.63   762.96   770.89   772.27
eigval :      774.31   774.74   797.19   797.44   819.21   821.20
eigval :      837.14   839.30   839.55   843.69   868.04   872.44
eigval :      875.74   876.06   878.76   879.71   886.80   889.66
eigval :      890.04   890.28   891.58   892.02   894.31   902.32
eigval :      902.38   906.37   907.56   909.28   911.39   917.54
eigval :      917.76   919.04   919.08   919.91   920.01   922.64
eigval :      922.97   924.39   924.45   929.53   929.64   932.00
eigval :      932.19   932.33   933.24   943.45   967.22   968.83
eigval :      990.48   993.62   995.43   995.57  1027.12  1028.77
eigval :     1081.07  1081.13  1093.16  1093.17  1103.95  1107.31
eigval :     1107.49  1108.11  1115.60  1118.85  1118.94  1121.95
eigval :     1122.16  1127.24  1129.20  1129.93  1137.07  1137.18
eigval :     1158.29  1158.32  1176.99  1177.06  1177.68  1178.94
eigval :     1179.16  1181.09  1181.33  1183.36  1183.75  1187.13
eigval :     1194.50  1197.26  1197.38  1200.79  1201.23  1201.36
eigval :     1222.19  1222.23  1230.70  1231.44  1231.51  1243.30
eigval :     1243.50  1255.26  1259.70  1262.80  1277.89  1278.09
eigval :     1282.18  1291.27  1296.25  1298.00  1298.47  1299.44
eigval :     1302.43  1305.86  1307.90  1319.36  1319.43  1322.77
eigval :     1323.14  1331.75  1334.06  1335.17  1359.84  1361.79
eigval :     1362.24  1362.73  1374.13  1375.08  1375.20  1386.99
eigval :     1387.31  1395.90  1396.43  1396.93  1397.14  1402.97
eigval :     1404.39  1408.84  1417.97  1417.99  1420.39  1428.83
eigval :     1428.86  1450.59  1450.70  1463.82  1468.17  1473.32
eigval :     1478.29  1479.12  1481.24  1484.18  1489.13  1504.40
eigval :     1504.50  1523.82  1526.56  1527.85  1529.08  1531.40
eigval :     1532.01  1537.78  1537.87  1549.49  1559.04  1559.12
eigval :     1569.54  1571.92  1573.59  1577.47  1579.62  1579.76
eigval :     1585.31  1585.81  1595.16  1595.23  1605.27  1606.44
eigval :     3063.13  3063.18  3067.23  3067.30  3070.95  3071.14
eigval :     3074.24  3074.40  3074.41  3075.99  3075.99  3076.07
eigval :     3076.89  3076.97  3078.01  3078.08  3078.87  3079.05
eigval :     3080.75  3081.00  3081.97  3082.22  3083.51  3085.23
eigval :     3088.27  3088.28  3090.13  3090.30  3093.46  3093.59
eigval :     3095.43  3095.56  3097.04  3098.81  3099.41  3099.59
eigval :     3099.76  3100.02  3100.20  3101.50  3115.96  3115.99

   temp. (K)  partition function   enthalpy   heat capacity  entropy
                                   cal/mol     cal/K/mol   cal/K/mol   J/K/mol
 298.15  VIB  0.407E+28            33983.598    217.471    212.595
         ROT  0.404E+09              888.752      2.981     42.364
         INT  0.165E+37            34872.350    220.452    254.959
         TR   0.289E+29             1481.254      4.968     46.448
         TOT                       36353.6038   225.4202   301.4076  1261.0894

       T/K    H(0)-H(T)+PV         H(T)/Eh          T*S/Eh         G(T)/Eh
   ------------------------------------------------------------------------
    298.15    0.579332E-01    0.950876E+00    0.143208E+00    0.807668E+00
   ------------------------------------------------------------------------

         :::::::::::::::::::::::::::::::::::::::::::::::::::::
         ::                  THERMODYNAMIC                  ::
         :::::::::::::::::::::::::::::::::::::::::::::::::::::
         :: total free energy        -186.652725205643 Eh   ::
         ::.................................................::
         :: total energy             -187.460392868681 Eh   ::
         :: zero point energy           0.892942979936 Eh   ::
         :: G(RRHO) w/o ZPVE           -0.085275316898 Eh   ::
         :: G(RRHO) contrib.            0.807667663038 Eh   ::
         :::::::::::::::::::::::::::::::::::::::::::::::::::::

           -------------------------------------------------
          | TOTAL ENERGY             -187.460392868681 Eh   |
          | TOTAL ENTHALPY           -186.509516733483 Eh   |
          | TOTAL FREE ENERGY        -186.652725205643 Eh   |
          | GRADIENT NORM               0.000060768569 Eh/α |
          | HOMO-LUMO GAP               0.539126395334 eV   |
           -------------------------------------------------

 * finished run on 2025/09/08 at 11:10:52.370
