   * xtb version 6.7.1 (edcfbbe) compiled by 'albert@albert-system' on 2024-07-22

   ID    Z sym.   atoms
    1    6 C      1-5, 7-22, 24-39, 41-47, 49-76
    2    7 N      6, 23, 40, 48
    3    1 H      77-118

          program call               : xtb data2507/toluene/N-BPyIA/N-BPyIA.xyz --gfn 2 --gbsa toluene --ohess vtight --parallel 40 --molden --ceasefiles --namespace data2507/toluene/N-BPyIA/N-BPyIA_toluene_S0_preOpt
      * Solvation model:               GBSA
        Solvent                        toluene
        Solvent mass                       9.2140E+01 g/mol
          :  Hamiltonian                  GFN2-xTB          :
 * total energy  :  -187.4961112 Eh     change       -0.5094819E-08 Eh
 * total energy  :  -187.5177556 Eh     change       -0.2164442E-01 Eh
 * total energy  :  -187.5239970 Eh     change       -0.6241396E-02 Eh
 * total energy  :  -187.5251789 Eh     change       -0.1181895E-02 Eh
 * total energy  :  -187.5256978 Eh     change       -0.5189135E-03 Eh
 * total energy  :  -187.5259051 Eh     change       -0.2072939E-03 Eh
 * total energy  :  -187.5261553 Eh     change       -0.2502269E-03 Eh
 * total energy  :  -187.5264626 Eh     change       -0.3072247E-03 Eh
 * total energy  :  -187.5267991 Eh     change       -0.3365360E-03 Eh
 * total energy  :  -187.5271113 Eh     change       -0.3122474E-03 Eh
 * total energy  :  -187.5286433 Eh     change       -0.6182248E-06 Eh
 * total energy  :  -187.5286438 Eh     change       -0.5625946E-06 Eh
 * total energy  :  -187.5286443 Eh     change       -0.4617714E-06 Eh
 * total energy  :  -187.5286447 Eh     change       -0.4384474E-06 Eh
 * total energy  :  -187.5286452 Eh     change       -0.4519687E-06 Eh
 * total energy  :  -187.5286457 Eh     change       -0.5400781E-06 Eh
 * total energy  :  -187.5286463 Eh     change       -0.5903679E-06 Eh
 * total energy  :  -187.5286470 Eh     change       -0.6782367E-06 Eh
 * total energy  :  -187.5286470 Eh     change       -0.3703946E-08 Eh
   *** GEOMETRY OPTIMIZATION CONVERGED AFTER 68 ITERATIONS ***

 final structure:
================
118
 xtb: 6.7.1 (edcfbbe)
C            6.28761722882946        5.05616315865499       -2.74445554353573
C            5.64597664300193        4.52475065893726       -1.63816724575116
C            6.12314891905258        3.37437695189792       -1.03671825289728
C            7.25273217369176        2.73533006013674       -1.54482563800787
C            7.80940031377841        1.52574057683843       -0.95751089557194
N            9.09747855273867        1.28053372976038       -0.91619886552805
C            9.23098840738789        0.07459800018386       -0.30411487564972
C           10.43620770178916       -0.62346061442656       -0.00205860386668
C           11.69769098294220       -0.11894740472509       -0.29843655564505
C           12.83261879730341       -0.84094921867924        0.03066537023344
C           12.72126699096395       -2.06889415304169        0.65234040942213
C           11.46899096698537       -2.60865548027532        0.96127850622858
C           11.34061663470702       -3.87953899549417        1.59391594103217
C           10.12415749168300       -4.40154392635207        1.86797766979285
C            8.92521901957395       -3.70179698734219        1.54020480569345
C            7.67071553790550       -4.25930517069919        1.80392714671331
C            6.51753423222878       -3.58432068151270        1.46398531287002
C            6.58282645275827       -2.33170416009678        0.87718865999771
C            7.81083121322915       -1.72545945898782        0.61833173633173
C            9.01330565828666       -2.42502212632659        0.93101874827101
C           10.29644404121028       -1.88222679615593        0.63492002985322
C            7.97654594738372       -0.43919712288658        0.02689508529220
N            7.07233246172432        0.51210934899019       -0.38926734974319
C            5.66303004531876        0.47458290462112       -0.30755527130664
C            4.90809465301009        0.38555872272147       -1.47054534124058
C            3.52768545346608        0.37634287232281       -1.39443391656354
C            2.88630924808148        0.45755616724177       -0.16293187361216
C            1.40641169572650        0.45425238364774       -0.08161732319327
C            0.71341064891162       -0.76214695217689       -0.04516233140398
C            1.38984619034496       -2.01009540175556       -0.08683768846290
C            0.70399435087579       -3.18495988220989       -0.05244845810715
C           -0.70406061060294       -3.18541288457667        0.02710776979655
C           -1.39012711236925       -2.01097804456845        0.07118531893682
C           -0.71389348927537       -0.76262016945387        0.03956502154363
C           -1.40699271184519        0.45332128828249        0.08671238852405
C           -2.88703340819338        0.45638797982593        0.16646369166007
C           -3.65020429038650        0.54112069946653       -0.99481450215164
C           -5.03022343997016        0.55254247721412       -0.92959482254882
C           -5.66397594408173        0.47438525995573        0.30721200195383
N           -7.07343473242379        0.51077979691679        0.38662987703792
C           -7.81257495857694        1.52466243996140        0.95168910044960
C           -7.25793956721661        2.73634315076933        1.53665880410454
C           -7.91247033052876        3.29218755124971        2.63699059244183
C           -7.43210417536782        4.44327265330242        3.23029770053546
C           -6.29619487001362        5.06115847845925        2.73106340343124
C           -5.65494612846702        4.52931782142276        1.62475008252334
C           -6.13035554153251        3.37682611795810        1.02597483919486
N           -9.10024613847401        1.27765920433254        0.90946823818803
C           -9.23138865447813        0.07003495504282        0.30013595577469
C          -10.43532628980475       -0.63065348131120       -0.00092245802843
C          -11.69778907174602       -0.12720138203427        0.29308804262867
C          -12.83135894963472       -0.85218112601535       -0.03413779685193
C          -12.71767595759098       -2.08200193675375       -0.65166474838767
C          -11.46437101890564       -2.62056465078950       -0.95849236053625
C          -11.33361837728760       -3.89320333081434       -1.58708591011522
C          -10.11617811238452       -4.41385453719673       -1.85933098927155
C           -8.91855657372458       -3.71105210271569       -1.53331588229018
C           -7.66306422462550       -4.26721426650375       -1.79513879221400
C           -6.51115175955234       -3.58939765696874       -1.45659808285052
C           -6.57876678325560       -2.33540654513838       -0.87303449644865
C           -7.80782027284018       -1.73036102210965       -0.61633114593538
C           -9.00900499567826       -2.43268908766576       -0.92779918393871
C          -10.29318196157899       -1.89114178531307       -0.63394138317341
C           -7.97588519227924       -0.44279512557081       -0.02832154186692
C           -4.91061061019808        0.39082261279019        1.47162456964729
C           -3.53007294197736        0.38135809034960        1.39746032011166
C           -0.71370324915226        1.66968852302367        0.05205968333222
C           -1.39003457346695        2.91721903309757        0.10545326830611
C           -0.70421765108589        4.09186966513409        0.06589292310824
C            0.70279397190999        4.09243865151463       -0.03103526455117
C            1.38895660312714        2.91830858120434       -0.07953193129060
C            0.71300500972324        1.67020156685564       -0.03584831457729
C            3.65107180790465        0.54763088722870        0.99690765580677
C            5.03101158798149        0.55826049847739        0.92977704033815
C            7.90752512060612        3.29079538490104       -2.64522242467826
C            7.42560554314381        4.43993221652497       -3.24101233285549
H            5.90790589273075        5.95252989843973       -3.21203126512554
H            4.77079595859433        5.01317199846135       -1.23573425202472
H            5.62812503246035        2.98794284238196       -0.15885504953287
H           11.76662059901667        0.84279799694230       -0.78335269262440
H           13.80924665429549       -0.44068542145158       -0.20084110367448
H           13.60881672053810       -2.63083527104364        0.90698074454801
H           12.24395052604761       -4.41805211152558        1.84381291526723
H           10.03114875884900       -5.36906101837850        2.34113693377054
H            7.61598422371010       -5.23280932087116        2.26965844580744
H            5.55223156827026       -4.03030363174925        1.65585711630538
H            5.66849117014493       -1.82609626666243        0.61265250372370
H            5.40762561914709        0.32645093986050       -2.42633398484656
H            2.94026142033160        0.30628704813932       -2.29766480341247
H            2.46810865438221       -2.00832031532747       -0.14847012078055
H            1.23183718662795       -4.12698570287676       -0.08553514705940
H           -1.23164977769130       -4.12781176339546        0.05271376504086
H           -2.46836603666278       -2.00980536917903        0.13343724567907
H           -3.15611450608469        0.60166978205018       -1.95319143352306
H           -5.62431279328333        0.61926909066792       -1.82979734389818
H           -8.79843025099811        2.80252952245436        3.01132171889434
H           -7.94427614342792        4.86026638698483        4.08497413638139
H           -5.91774963287429        5.95910899490368        3.19662436388466
H           -4.78152743830820        5.01910079086084        1.22018339151930
H           -5.63569746513389        2.98976991439445        0.14814336459403
H          -11.76853942735821        0.83602858741375        0.77478946622362
H          -13.80876036115699       -0.45279546577203        0.19561860375193
H          -13.60416158235042       -2.64634955581819       -0.90468692741929
H          -12.23593433274379       -4.43413303746636       -1.83541936056629
H          -10.02132739083953       -5.38262800682382       -2.32954674044117
H           -7.60656486737418       -5.24187030106578       -2.25823585905266
H           -5.54500964443730       -4.03419116415917       -1.64699371630151
H           -5.66533540523378       -1.82778596839627       -0.60938211802670
H           -5.41142027657479        0.33599153608836        2.42699882347284
H           -2.94390177969959        0.31560264196342        2.30182739283162
H           -2.46727202897846        2.91274611255044        0.17986856470350
H           -1.22996041789549        5.03461860899161        0.10656232209081
H            1.22828933843526        5.03561421800302       -0.06472801432101
H            2.46618890272023        2.91473485850022       -0.15409638427945
H            3.15831563027168        0.61284038637349        1.95566514667817
H            5.62636444984223        0.62896073542111        1.82883810437993
H            8.79500360928464        2.80236496681365       -3.01753548730580
H            7.93815501469810        4.85665338070274       -4.09559458182982

          :  Hamiltonian                  GFN2-xTB          :
         :: gradient norm              0.000047083356 Eh/a0 ::
         :: HOMO-LUMO gap              2.057081478524 eV    ::
         :: SCC energy              -191.097248028869 Eh    ::
         :: -> dispersion             -0.186994869414 Eh    ::
         :: -> Gsolv                  -0.077423042221 Eh    ::
         :: repulsion energy           3.568601036972 Eh    ::

    * Orbital Energies and Occupations

         #    Occupation            Energy/Eh            Energy/eV
      -------------------------------------------------------------
         1        2.0000           -0.6895471             -18.7635
       ...           ...                  ...                  ...
       163        2.0000           -0.4101305             -11.1602
       164        2.0000           -0.4046808             -11.0119
       165        2.0000           -0.4044132             -11.0046
       166        2.0000           -0.4026063             -10.9555
       167        2.0000           -0.3915976             -10.6559
       168        2.0000           -0.3915240             -10.6539
       169        2.0000           -0.3868062             -10.5255
       170        2.0000           -0.3867530             -10.5241
       171        2.0000           -0.3805406             -10.3550
       172        2.0000           -0.3804264             -10.3519
       173        2.0000           -0.3657952              -9.9538
       174        2.0000           -0.3607199              -9.8157
       175        2.0000           -0.3607124              -9.8155 (HOMO)
       176                         -0.2851161              -7.7584 (LUMO)
       177                         -0.2731434              -7.4326
       178                         -0.2731305              -7.4323
       179                         -0.2573181              -7.0020
       180                         -0.2572993              -7.0015
       181                         -0.2442488              -6.6463
       182                         -0.2442181              -6.6455
       183                         -0.2425261              -6.5995
       184                         -0.2422928              -6.5931
       185                         -0.2380197              -6.4768
       186                         -0.2380048              -6.4764
       ...                                ...                  ...
       346                          0.7295703              19.8526
      -------------------------------------------------------------
                  HL-Gap            0.0755964 Eh            2.0571 eV

     #   Z          covCN         q      C6AA      α(0)
     1   6 C        2.919    -0.029    28.715     8.787
     2   6 C        2.919    -0.029    28.722     8.789
     3   6 C        2.922    -0.036    28.884     8.813
     4   6 C        2.974    -0.001    28.056     8.688
     5   6 C        3.188     0.135    24.612     8.093
     6   7 N        1.895    -0.318    29.101     7.998
     7   6 C        3.202     0.060    26.106     8.325
     8   6 C        2.978    -0.004    28.114     8.697
     9   6 C        2.919    -0.034    28.855     8.809
    10   6 C        2.914    -0.031    28.782     8.797
    11   6 C        2.921    -0.040    28.985     8.829
    12   6 C        2.983     0.010    27.793     8.648
    13   6 C        2.913    -0.037    28.910     8.817
    14   6 C        2.914    -0.038    28.953     8.823
    15   6 C        2.983     0.011    27.768     8.644
    16   6 C        2.921    -0.040    28.994     8.830
    17   6 C        2.914    -0.032    28.810     8.802
    18   6 C        2.918    -0.043    29.070     8.842
    19   6 C        2.972    -0.006    28.167     8.705
    20   6 C        2.994    -0.005    28.136     8.701
    21   6 C        2.994    -0.007    28.192     8.710
    22   6 C        3.074     0.022    27.442     8.589
    23   7 N        2.840    -0.054    22.271     7.009
    24   6 C        2.912     0.064    26.566     8.452
    25   6 C        2.920    -0.038    28.946     8.823
    26   6 C        2.924    -0.028    28.710     8.787
    27   6 C        2.977     0.020    27.549     8.610
    28   6 C        2.978    -0.005    28.147     8.703
    29   6 C        2.984     0.007    27.850     8.657
    30   6 C        2.917    -0.034    28.840     8.806
    31   6 C        2.914    -0.029    28.727     8.789
    32   6 C        2.914    -0.029    28.727     8.789
    33   6 C        2.917    -0.034    28.839     8.806
    34   6 C        2.984     0.007    27.850     8.657
    35   6 C        2.978    -0.005    28.147     8.703
    36   6 C        2.977     0.020    27.549     8.610
    37   6 C        2.924    -0.030    28.741     8.792
    38   6 C        2.919    -0.037    28.924     8.819
    39   6 C        2.912     0.064    26.567     8.452
    40   7 N        2.840    -0.054    22.271     7.009
    41   6 C        3.188     0.135    24.611     8.093
    42   6 C        2.974    -0.001    28.056     8.688
    43   6 C        2.928    -0.029    28.715     8.788
    44   6 C        2.918    -0.028    28.688     8.783
    45   6 C        2.919    -0.029    28.715     8.787
    46   6 C        2.919    -0.029    28.722     8.789
    47   6 C        2.922    -0.035    28.883     8.813
    48   7 N        1.895    -0.318    29.101     7.998
    49   6 C        3.202     0.060    26.106     8.324
    50   6 C        2.978    -0.004    28.114     8.697
    51   6 C        2.919    -0.034    28.855     8.809
    52   6 C        2.914    -0.031    28.782     8.797
    53   6 C        2.921    -0.040    28.985     8.829
    54   6 C        2.983     0.010    27.793     8.648
    55   6 C        2.913    -0.037    28.910     8.817
    56   6 C        2.914    -0.038    28.953     8.823
    57   6 C        2.983     0.011    27.768     8.644
    58   6 C        2.921    -0.040    28.994     8.830
    59   6 C        2.914    -0.032    28.810     8.802
    60   6 C        2.918    -0.043    29.071     8.842
    61   6 C        2.972    -0.006    28.167     8.705
    62   6 C        2.994    -0.005    28.136     8.701
    63   6 C        2.994    -0.007    28.192     8.710
    64   6 C        3.074     0.022    27.442     8.589
    65   6 C        2.920    -0.038    28.946     8.823
    66   6 C        2.924    -0.028    28.710     8.787
    67   6 C        2.984     0.007    27.849     8.657
    68   6 C        2.917    -0.034    28.845     8.807
    69   6 C        2.914    -0.029    28.722     8.788
    70   6 C        2.914    -0.029    28.722     8.788
    71   6 C        2.917    -0.034    28.845     8.807
    72   6 C        2.984     0.007    27.849     8.657
    73   6 C        2.924    -0.030    28.741     8.792
    74   6 C        2.919    -0.037    28.924     8.819
    75   6 C        2.928    -0.029    28.715     8.788
    76   6 C        2.918    -0.028    28.689     8.783
    77   1 H        0.926     0.041     2.441     2.443
    78   1 H        0.926     0.039     2.465     2.455
    79   1 H        0.926     0.028     2.612     2.527
    80   1 H        0.926     0.043     2.413     2.429
    81   1 H        0.926     0.033     2.540     2.492
    82   1 H        0.926     0.034     2.532     2.489
    83   1 H        0.926     0.035     2.520     2.482
    84   1 H        0.926     0.035     2.523     2.484
    85   1 H        0.926     0.034     2.536     2.491
    86   1 H        0.926     0.032     2.559     2.502
    87   1 H        0.926     0.028     2.615     2.529
    88   1 H        0.926     0.039     2.462     2.454
    89   1 H        0.926     0.046     2.370     2.408
    90   1 H        0.926     0.031     2.578     2.511
    91   1 H        0.926     0.033     2.547     2.496
    92   1 H        0.926     0.033     2.547     2.496
    93   1 H        0.926     0.031     2.578     2.511
    94   1 H        0.926     0.046     2.369     2.407
    95   1 H        0.926     0.043     2.414     2.430
    96   1 H        0.926     0.045     2.389     2.417
    97   1 H        0.926     0.041     2.441     2.443
    98   1 H        0.926     0.041     2.440     2.443
    99   1 H        0.926     0.039     2.465     2.455
   100   1 H        0.926     0.028     2.612     2.528
   101   1 H        0.926     0.043     2.413     2.429
   102   1 H        0.926     0.033     2.540     2.492
   103   1 H        0.926     0.034     2.532     2.489
   104   1 H        0.926     0.035     2.520     2.482
   105   1 H        0.926     0.035     2.523     2.484
   106   1 H        0.926     0.034     2.536     2.491
   107   1 H        0.926     0.032     2.559     2.502
   108   1 H        0.926     0.028     2.614     2.528
   109   1 H        0.926     0.039     2.462     2.454
   110   1 H        0.926     0.046     2.370     2.408
   111   1 H        0.926     0.032     2.561     2.502
   112   1 H        0.926     0.033     2.539     2.492
   113   1 H        0.926     0.033     2.539     2.492
   114   1 H        0.926     0.032     2.561     2.502
   115   1 H        0.926     0.046     2.369     2.407
   116   1 H        0.926     0.043     2.415     2.430
   117   1 H        0.926     0.045     2.388     2.417
   118   1 H        0.926     0.041     2.441     2.443

molecular dipole:
                 x           y           z       tot (Debye)
 q only:        0.000       0.325       0.002
   full:        0.000      -0.115       0.003       0.292

 projected vibrational frequencies (cm⁻¹)
eigval :       -0.00    -0.00     0.00     0.00     0.00     0.00
eigval :        3.79     6.80     9.05     9.34    15.06    20.39
eigval :       26.05    28.13    33.50    35.78    37.97    42.14
eigval :       51.43    53.99    59.74    63.80    66.89    67.15
eigval :       74.12    83.81    87.44   100.30   109.54   121.72
eigval :      122.05   129.38   130.81   144.09   162.99   171.08
eigval :      179.40   179.84   196.05   205.08   206.86   212.23
eigval :      213.51   213.64   224.91   225.51   232.61   244.86
eigval :      250.16   257.23   279.78   282.53   301.04   328.33
eigval :      339.99   348.04   350.81   353.15   353.70   371.14
eigval :      371.48   372.99   373.63   374.08   388.11   393.39
eigval :      393.52   401.91   402.56   404.63   411.44   426.39
eigval :      427.32   442.68   443.66   450.26   452.97   453.91
eigval :      457.86   461.75   479.06   480.14   482.52   487.59
eigval :      490.23   492.88   507.85   511.80   530.30   533.33
eigval :      535.47   535.86   556.18   556.29   569.15   569.48
eigval :      578.28   583.09   585.59   587.45   588.23   592.71
eigval :      592.83   596.17   615.88   622.05   631.41   638.22
eigval :      638.38   645.35   656.31   659.91   661.51   669.92
eigval :      675.87   676.20   680.08   681.60   681.75   692.47
eigval :      693.93   698.51   699.71   703.40   707.33   708.53
eigval :      716.73   733.45   741.34   751.45   751.53   754.91
eigval :      761.27   761.53   771.42   773.17   773.56   774.64
eigval :      774.95   775.60   798.24   798.25   815.59   820.48
eigval :      840.76   840.85   872.08   872.38   873.33   874.31
eigval :      874.48   875.63   877.89   878.48   890.14   890.48
eigval :      892.46   892.97   897.99   902.81   903.04   911.98
eigval :      913.56   914.48   915.16   917.47   917.83   918.03
eigval :      918.86   920.28   920.43   921.32   921.51   925.51
eigval :      925.65   927.34   927.48   927.74   927.95   928.44
eigval :      930.01   930.23   930.35   932.69   968.54   970.37
eigval :      993.86   995.76   995.86   998.92  1031.39  1033.47
eigval :     1078.31  1079.98  1082.13  1082.22  1094.84  1094.93
eigval :     1109.82  1110.01  1119.28  1119.39  1123.13  1123.29
eigval :     1129.06  1129.20  1135.01  1136.67  1136.74  1144.31
eigval :     1158.51  1158.69  1178.08  1178.61  1179.37  1180.44
eigval :     1180.61  1183.12  1184.28  1184.63  1187.62  1187.83
eigval :     1196.79  1197.50  1200.53  1200.92  1210.62  1215.35
eigval :     1222.37  1222.39  1226.66  1234.15  1235.46  1244.26
eigval :     1245.25  1256.83  1262.77  1263.17  1264.80  1278.74
eigval :     1278.82  1297.51  1297.61  1300.15  1300.16  1301.98
eigval :     1302.04  1319.97  1320.04  1323.63  1323.68  1326.10
eigval :     1338.23  1339.11  1348.86  1360.76  1365.52  1369.66
eigval :     1376.21  1377.70  1384.73  1390.26  1393.22  1396.97
eigval :     1396.99  1397.31  1398.19  1399.03  1399.26  1418.44
eigval :     1418.63  1419.18  1428.47  1429.88  1430.06  1445.98
eigval :     1452.02  1453.97  1470.64  1475.15  1478.90  1480.25
eigval :     1480.63  1495.86  1499.22  1506.49  1506.67  1526.08
eigval :     1531.23  1531.26  1533.47  1536.83  1536.92  1543.59
eigval :     1559.76  1560.06  1561.65  1561.93  1579.83  1579.85
eigval :     1581.21  1581.21  1587.78  1587.79  1594.28  1594.34
eigval :     1596.02  1596.04  1607.58  1609.02  1609.05  1622.41
eigval :     3063.23  3063.24  3067.29  3067.36  3068.66  3068.97
eigval :     3072.38  3073.20  3075.46  3075.83  3076.16  3076.19
eigval :     3077.92  3078.78  3079.16  3079.30  3079.37  3079.43
eigval :     3080.10  3080.28  3081.11  3081.35  3083.54  3083.69
eigval :     3086.54  3087.48  3088.85  3089.34  3091.70  3091.75
eigval :     3092.12  3093.77  3095.51  3096.04  3097.24  3097.54
eigval :     3099.40  3099.52  3101.12  3101.34  3118.87  3119.95

   temp. (K)  partition function   enthalpy   heat capacity  entropy
                                   cal/mol     cal/K/mol   cal/K/mol   J/K/mol
 298.15  VIB  0.660E+28            33965.956    216.082    212.851
         ROT  0.202E+09              888.752      2.981     40.988
         INT  0.134E+37            34854.708    219.063    253.838
         TR   0.289E+29             1481.254      4.968     46.448
         TOT                       36335.9619   224.0312   300.2869  1256.4005

       T/K    H(0)-H(T)+PV         H(T)/Eh          T*S/Eh         G(T)/Eh
   ------------------------------------------------------------------------
    298.15    0.579050E-01    0.953514E+00    0.142676E+00    0.810838E+00
   ------------------------------------------------------------------------

         :::::::::::::::::::::::::::::::::::::::::::::::::::::
         ::                  THERMODYNAMIC                  ::
         :::::::::::::::::::::::::::::::::::::::::::::::::::::
         :: total free energy        -186.717809306316 Eh   ::
         ::.................................................::
         :: total energy             -187.528646997285 Eh   ::
         :: zero point energy           0.895608653255 Eh   ::
         :: G(RRHO) w/o ZPVE           -0.084770962287 Eh   ::
         :: G(RRHO) contrib.            0.810837690968 Eh   ::
         :::::::::::::::::::::::::::::::::::::::::::::::::::::

           -------------------------------------------------
          | TOTAL ENERGY             -187.528646997285 Eh   |
          | TOTAL ENTHALPY           -186.575133302916 Eh   |
          | TOTAL FREE ENERGY        -186.717809306316 Eh   |
          | GRADIENT NORM               0.000047078202 Eh/α |
          | HOMO-LUMO GAP               2.057081612182 eV   |
           -------------------------------------------------

 * finished run on 2025/09/08 at 10:41:45.578
