   * xtb version 6.7.1 (edcfbbe) compiled by 'albert@albert-system' on 2024-07-22

   ID    Z sym.   atoms
    1    6 C      1-5, 7-22, 24-39, 41-47, 49-76
    2    7 N      6, 23, 40, 48
    3    1 H      77-118

          program call               : xtb data2507/toluene/N-BPyIA/N-BPyIA_toluene_S0_crest.xyz --gfn 2 --gbsa toluene --ohess vtight --parallel 40 --molden --ceasefiles --namespace data2507/toluene/N-BPyIA/N-BPyIA_toluene_S0_finalOpt
      * Solvation model:               GBSA
        Solvent                        toluene
        Solvent mass                       9.2140E+01 g/mol
          :  Hamiltonian                  GFN2-xTB          :
 * total energy  :  -187.5284133 Eh     change       -0.6087987E-08 Eh
 * total energy  :  -187.5284763 Eh     change       -0.6298771E-04 Eh
 * total energy  :  -187.5285240 Eh     change       -0.4768343E-04 Eh
 * total energy  :  -187.5285573 Eh     change       -0.3338493E-04 Eh
 * total energy  :  -187.5285846 Eh     change       -0.2727501E-04 Eh
 * total energy  :  -187.5286148 Eh     change       -0.3018105E-04 Eh
 * total energy  :  -187.5286284 Eh     change       -0.1360874E-04 Eh
 * total energy  :  -187.5286354 Eh     change       -0.6968299E-05 Eh
 * total energy  :  -187.5286446 Eh     change       -0.9262554E-05 Eh
 * total energy  :  -187.5286491 Eh     change       -0.4517293E-05 Eh
 * total energy  :  -187.5291631 Eh     change       -0.4312553E-06 Eh
 * total energy  :  -187.5291636 Eh     change       -0.4597933E-06 Eh
 * total energy  :  -187.5291640 Eh     change       -0.4720233E-06 Eh
 * total energy  :  -187.5291644 Eh     change       -0.4086614E-06 Eh
 * total energy  :  -187.5291648 Eh     change       -0.3915825E-06 Eh
 * total energy  :  -187.5291652 Eh     change       -0.3878652E-06 Eh
 * total energy  :  -187.5291656 Eh     change       -0.3755643E-06 Eh
 * total energy  :  -187.5291660 Eh     change       -0.3550570E-06 Eh
 * total energy  :  -187.5291660 Eh     change       -0.2217547E-08 Eh
   *** GEOMETRY OPTIMIZATION CONVERGED AFTER 152 ITERATIONS ***

 final structure:
================
118
 xtb: 6.7.1 (edcfbbe)
C            6.42804789239942        5.73296202075269        0.29205678837581
C            7.59776942821137        5.41361263161367       -0.37981744250479
C            8.04445987703772        4.10714057392110       -0.41183237620451
C            7.32245771238843        3.09557902173102        0.22399705162618
C            7.84630418018347        1.73948086920665        0.15971277392890
N            9.13058474271017        1.47213035491271        0.13007459533275
C            9.23139587720932        0.11847951943250        0.06908508123666
C           10.41840320685178       -0.66931123715861        0.03098556028426
C           11.69426418956989       -0.11783838925902        0.07074155552577
C           12.80987313400773       -0.93747590963543        0.03667631033271
C           12.66501351892104       -2.30861469691329       -0.03914119677527
C           11.39757182029609       -2.89729818967016       -0.08374093494003
C           11.23494701184949       -4.31079825093461       -0.17048150995232
C           10.00493288420843       -4.86813623539597       -0.23220558930076
C            8.82517190692339       -4.06682655098410       -0.21080691412947
C            7.55721264801316       -4.64878590804645       -0.29866319771719
C            6.42352374797292       -3.86415159630200       -0.30080579392002
C            6.52123269868189       -2.48696854521465       -0.19344497821458
C            7.76283632474711       -1.86445737041152       -0.07729050744321
C            8.94667636274846       -2.65847333104024       -0.10663382930701
C           10.24427682680327       -2.07408070086913       -0.04771774683987
C            7.96108501898173       -0.45864312236922        0.04813961560792
N            7.08053914381339        0.59703777610332        0.11917199526048
C            5.66896563979490        0.55991910805866        0.09106255996111
C            4.99226066009067        1.03633546916390       -1.02495394509844
C            3.61051468673524        1.02843209009033       -1.04522284830228
C            2.88673347892182        0.54798521729543        0.04273153228475
C            1.40879485423222        0.55083290836478        0.01898472310600
C            0.70755412338232       -0.66346794018954       -0.01721826163935
C            1.37624084398933       -1.91548241333173       -0.06769875681336
C            0.68423632477100       -3.08660515209442       -0.10974264498428
C           -0.72519435067741       -3.07982611819696       -0.11757379064050
C           -1.40472520596967       -1.90128852307726       -0.08786358777972
C           -0.72234349707193       -0.65686751799023       -0.03357103211013
C           -1.41320823624077        0.56285160123940       -0.02354060622573
C           -2.89275648119703        0.56856708285467       -0.03649964777909
C           -3.59031475848830        0.94169538781277       -1.18143345838850
C           -4.97268033592573        0.94332048306101       -1.19507201794470
C           -5.67418197295771        0.57169914177516       -0.05482584981488
N           -7.08595188027624        0.59193092077207       -0.06071288024695
C           -7.86889515268628        1.71807394563339       -0.16839653056229
C           -7.36764881393443        3.08018926814797       -0.27321116742440
C           -8.09628400644820        3.98872279635850       -1.04263875387293
C           -7.67529732450561        5.29840481709309       -1.16579427612141
C           -6.52567786495697        5.72359881440972       -0.51841978324840
C           -5.80924268837270        4.83380493068234        0.26443128751064
C           -6.22432276147451        3.52052284666038        0.39105365870449
N           -9.14883983942868        1.43001415379289       -0.16232616615916
C           -9.22939142246817        0.07864935287486       -0.04477367098795
C          -10.40476595322347       -0.72342220019044        0.03354535588784
C          -11.68833301662533       -0.18908059901573        0.01227965484835
C          -12.79164711418554       -1.02059758849107        0.10688868301562
C          -12.62674498138780       -2.38706508025832        0.21857331176020
C          -11.35107959096949       -2.95909022184307        0.23848332919288
C          -11.16795000311965       -4.36889876084669        0.34307286336575
C           -9.93033991404377       -4.91259107083130        0.34093542431342
C           -8.76265590898079       -4.09969889894144        0.23950497782211
C           -7.48717776911977       -4.67111891600598        0.21502073857729
C           -6.36560598639930       -3.87850701554915        0.09313128148568
C           -6.48277836147016       -2.50081560493250        0.01727957071572
C           -7.73214573771915       -1.88476691829368        0.06571539820200
C           -8.90424177864150       -2.69192595414798        0.15457306928179
C          -10.21006979510259       -2.12310462878972        0.14704757924503
C           -7.95068313211738       -0.47734878381708        0.00818229393364
C           -4.98685533627798        0.20452005851716        1.09862846234146
C           -3.60565166886270        0.20040507337050        1.10204422355742
C           -0.71281634559214        1.77684710713667        0.00376592170522
C           -1.38655131021513        3.02687218865783        0.02995620272117
C           -0.69777462087647        4.19959227852839        0.07660172098401
C            0.71115121133501        4.19435399298371        0.11596403772401
C            1.39460022492205        3.01754017777346        0.09942078314510
C            0.71677497102433        1.77124262943863        0.03139549195842
C            3.57565383743048        0.07111986808014        1.15595838268289
C            4.95675753176752        0.07749029195524        1.18542023094925
C            6.15953970713448        3.42862709296329        0.91641294712161
C            5.71815299504930        4.73916407464813        0.94494054334653
H            6.07684638801767        6.75399183577644        0.31457900636787
H            8.16285218784508        6.18623659010288       -0.88025898358019
H            8.95552478490734        3.84396454365488       -0.92710009552893
H           11.78947353378815        0.95555894327738        0.13052185918982
H           13.79771405408200       -0.50082485871718        0.06938664650359
H           13.53766353414371       -2.94582823862443       -0.06733726746547
H           12.12369925076490       -4.92574130723042       -0.19009191203931
H            9.88632428111443       -5.94023757920253       -0.30373828746604
H            7.47697320100485       -5.72360423017766       -0.37567883285143
H            5.44869439095811       -4.32207189039136       -0.38734140943606
H            5.62272042252179       -1.89180759812705       -0.20837289722235
H            5.55393928640286        1.41114674603450       -1.86796918167483
H            3.08422363947735        1.39253907618481       -1.91499963961621
H            2.45561417399311       -1.92397898793883       -0.07897996123538
H            1.20917136905128       -4.03010809437855       -0.14662944598105
H           -1.25911009576303       -4.01809019738613       -0.15809856114842
H           -2.48406149377622       -1.89573457100917       -0.11196291549329
H           -3.04369263757654        1.22536238033779       -2.06846099935862
H           -5.51472579482330        1.23142347280974       -2.08376443167018
H           -8.99213883632741        3.64393084695896       -1.53611829526404
H           -8.24489150470730        5.99063178217865       -1.76837785813822
H           -6.19493463789295        6.74698513733765       -0.61643774750256
H           -4.92445406276705        5.16507373052339        0.78807224951232
H           -5.66972585922631        2.84676870132146        1.02626832532319
H          -11.79907773526994        0.88098725313590       -0.07470203691479
H          -13.78563188355836       -0.59707912827919        0.09245290295214
H          -13.48986349817160       -3.03379784090767        0.28991944843237
H          -12.04737031635066       -4.99287248612938        0.41846782341715
H           -9.79610840640207       -5.98280014452713        0.41301585207928
H           -7.39155756115872       -5.74533346054107        0.28205885426783
H           -5.38503458389902       -4.33074690357055        0.05621971513099
H           -5.59306583927487       -1.90160978618398       -0.08831376183605
H           -5.54156981261966       -0.07808063535050        1.98190335409074
H           -3.07066058341247       -0.08387967569938        1.99610644906414
H           -2.46588631444244        3.02941043925870        0.01352267270686
H           -1.22418429527825        5.14268759116884        0.09244420033204
H            1.24308811539983        5.13326823320301        0.16476401552475
H            2.47311072433360        3.01687361356100        0.14052069581618
H            3.02177064331051       -0.29687903677542        2.00699828983440
H            5.49155567996832       -0.28903915296904        2.05004885568733
H            5.60838582960075        2.67150576762301        1.45280118080754
H            4.81704290847312        4.98504569568286        1.48770573507680

          :  Hamiltonian                  GFN2-xTB          :
         :: gradient norm              0.000034675150 Eh/a0 ::
         :: HOMO-LUMO gap              2.017706183914 eV    ::
         :: SCC energy              -191.096669845979 Eh    ::
         :: -> dispersion             -0.187469256282 Eh    ::
         :: -> Gsolv                  -0.077140403726 Eh    ::
         :: repulsion energy           3.567503886091 Eh    ::

    * Orbital Energies and Occupations

         #    Occupation            Energy/Eh            Energy/eV
      -------------------------------------------------------------
         1        2.0000           -0.6895564             -18.7638
       ...           ...                  ...                  ...
       163        2.0000           -0.4100135             -11.1570
       164        2.0000           -0.4045677             -11.0088
       165        2.0000           -0.4045450             -11.0082
       166        2.0000           -0.4031178             -10.9694
       167        2.0000           -0.3916364             -10.6570
       168        2.0000           -0.3916170             -10.6564
       169        2.0000           -0.3868415             -10.5265
       170        2.0000           -0.3868349             -10.5263
       171        2.0000           -0.3805781             -10.3561
       172        2.0000           -0.3805071             -10.3541
       173        2.0000           -0.3646912              -9.9238
       174        2.0000           -0.3607647              -9.8169
       175        2.0000           -0.3606710              -9.8144 (HOMO)
       176                         -0.2865216              -7.7967 (LUMO)
       177                         -0.2731725              -7.4334
       178                         -0.2730245              -7.4294
       179                         -0.2573350              -7.0024
       180                         -0.2572819              -7.0010
       181                         -0.2442166              -6.6455
       182                         -0.2439562              -6.6384
       183                         -0.2422355              -6.5916
       184                         -0.2420550              -6.5867
       185                         -0.2382367              -6.4827
       186                         -0.2380649              -6.4781
       ...                                ...                  ...
       346                          0.7296203              19.8540
      -------------------------------------------------------------
                  HL-Gap            0.0741493 Eh            2.0177 eV

     #   Z          covCN         q      C6AA      α(0)
     1   6 C        2.919    -0.029    28.715     8.787
     2   6 C        2.918    -0.028    28.690     8.783
     3   6 C        2.928    -0.029    28.716     8.788
     4   6 C        2.973    -0.001    28.058     8.689
     5   6 C        3.188     0.135    24.615     8.094
     6   7 N        1.895    -0.318    29.105     7.998
     7   6 C        3.202     0.060    26.108     8.325
     8   6 C        2.978    -0.004    28.114     8.698
     9   6 C        2.919    -0.034    28.856     8.809
    10   6 C        2.914    -0.031    28.782     8.797
    11   6 C        2.921    -0.040    28.986     8.829
    12   6 C        2.983     0.010    27.793     8.648
    13   6 C        2.913    -0.037    28.909     8.817
    14   6 C        2.914    -0.038    28.953     8.823
    15   6 C        2.983     0.011    27.768     8.644
    16   6 C        2.921    -0.040    28.995     8.830
    17   6 C        2.914    -0.032    28.808     8.801
    18   6 C        2.918    -0.043    29.068     8.841
    19   6 C        2.972    -0.006    28.168     8.706
    20   6 C        2.994    -0.005    28.136     8.701
    21   6 C        2.994    -0.007    28.192     8.710
    22   6 C        3.075     0.022    27.437     8.588
    23   7 N        2.840    -0.054    22.276     7.010
    24   6 C        2.912     0.064    26.564     8.452
    25   6 C        2.920    -0.038    28.953     8.824
    26   6 C        2.924    -0.028    28.710     8.787
    27   6 C        2.976     0.020    27.565     8.612
    28   6 C        2.977    -0.005    28.151     8.703
    29   6 C        2.983     0.007    27.848     8.656
    30   6 C        2.917    -0.035    28.862     8.810
    31   6 C        2.914    -0.029    28.733     8.790
    32   6 C        2.914    -0.029    28.732     8.790
    33   6 C        2.917    -0.034    28.854     8.809
    34   6 C        2.983     0.007    27.851     8.657
    35   6 C        2.977    -0.005    28.145     8.702
    36   6 C        2.976     0.020    27.559     8.611
    37   6 C        2.924    -0.028    28.711     8.787
    38   6 C        2.920    -0.038    28.952     8.824
    39   6 C        2.912     0.064    26.567     8.452
    40   7 N        2.840    -0.053    22.269     7.009
    41   6 C        3.188     0.135    24.613     8.094
    42   6 C        2.974    -0.001    28.055     8.688
    43   6 C        2.928    -0.029    28.714     8.788
    44   6 C        2.918    -0.027    28.688     8.783
    45   6 C        2.919    -0.029    28.714     8.787
    46   6 C        2.919    -0.029    28.725     8.789
    47   6 C        2.922    -0.036    28.891     8.814
    48   7 N        1.895    -0.318    29.104     7.998
    49   6 C        3.202     0.060    26.106     8.325
    50   6 C        2.978    -0.004    28.114     8.697
    51   6 C        2.919    -0.034    28.855     8.809
    52   6 C        2.914    -0.031    28.782     8.797
    53   6 C        2.921    -0.040    28.985     8.829
    54   6 C        2.983     0.010    27.793     8.648
    55   6 C        2.913    -0.037    28.909     8.817
    56   6 C        2.914    -0.038    28.953     8.823
    57   6 C        2.983     0.011    27.768     8.644
    58   6 C        2.921    -0.040    28.995     8.830
    59   6 C        2.914    -0.032    28.808     8.801
    60   6 C        2.918    -0.043    29.067     8.841
    61   6 C        2.972    -0.006    28.167     8.706
    62   6 C        2.994    -0.005    28.136     8.701
    63   6 C        2.994    -0.007    28.192     8.710
    64   6 C        3.074     0.022    27.442     8.589
    65   6 C        2.919    -0.037    28.928     8.820
    66   6 C        2.924    -0.030    28.740     8.792
    67   6 C        2.983     0.007    27.846     8.656
    68   6 C        2.917    -0.035    28.869     8.811
    69   6 C        2.914    -0.029    28.726     8.789
    70   6 C        2.914    -0.029    28.729     8.789
    71   6 C        2.917    -0.035    28.876     8.812
    72   6 C        2.983     0.008    27.845     8.656
    73   6 C        2.924    -0.030    28.742     8.792
    74   6 C        2.919    -0.038    28.933     8.821
    75   6 C        2.922    -0.036    28.900     8.816
    76   6 C        2.919    -0.029    28.728     8.789
    77   1 H        0.926     0.040     2.442     2.444
    78   1 H        0.926     0.040     2.442     2.444
    79   1 H        0.926     0.045     2.386     2.416
    80   1 H        0.926     0.043     2.414     2.429
    81   1 H        0.926     0.033     2.541     2.493
    82   1 H        0.926     0.034     2.533     2.489
    83   1 H        0.926     0.035     2.520     2.482
    84   1 H        0.926     0.035     2.523     2.484
    85   1 H        0.926     0.034     2.537     2.491
    86   1 H        0.926     0.032     2.561     2.503
    87   1 H        0.926     0.028     2.619     2.531
    88   1 H        0.926     0.039     2.466     2.456
    89   1 H        0.926     0.047     2.356     2.400
    90   1 H        0.926     0.032     2.553     2.499
    91   1 H        0.926     0.032     2.553     2.498
    92   1 H        0.926     0.032     2.555     2.499
    93   1 H        0.926     0.031     2.568     2.506
    94   1 H        0.926     0.047     2.361     2.403
    95   1 H        0.926     0.039     2.462     2.454
    96   1 H        0.926     0.045     2.389     2.417
    97   1 H        0.926     0.041     2.441     2.443
    98   1 H        0.926     0.041     2.441     2.443
    99   1 H        0.926     0.039     2.465     2.455
   100   1 H        0.926     0.029     2.606     2.525
   101   1 H        0.926     0.043     2.413     2.429
   102   1 H        0.926     0.033     2.540     2.492
   103   1 H        0.926     0.034     2.532     2.488
   104   1 H        0.926     0.035     2.519     2.482
   105   1 H        0.926     0.035     2.522     2.484
   106   1 H        0.926     0.034     2.536     2.490
   107   1 H        0.926     0.032     2.561     2.503
   108   1 H        0.926     0.028     2.621     2.532
   109   1 H        0.926     0.042     2.421     2.433
   110   1 H        0.926     0.047     2.362     2.403
   111   1 H        0.926     0.033     2.541     2.493
   112   1 H        0.926     0.034     2.537     2.491
   113   1 H        0.926     0.034     2.535     2.490
   114   1 H        0.926     0.034     2.531     2.488
   115   1 H        0.926     0.047     2.353     2.399
   116   1 H        0.926     0.042     2.420     2.433
   117   1 H        0.926     0.029     2.601     2.522
   118   1 H        0.926     0.039     2.465     2.455

molecular dipole:
                 x           y           z       tot (Debye)
 q only:       -0.014       0.427      -0.073
   full:       -0.012      -0.063      -0.064       0.229

 projected vibrational frequencies (cm⁻¹)
eigval :       -0.00    -0.00    -0.00     0.00     0.00     0.00
eigval :        6.09     6.53     8.67    12.36    16.38    19.11
eigval :       23.11    30.07    35.12    37.07    39.20    43.63
eigval :       52.99    56.61    58.43    64.90    67.14    67.93
eigval :       75.79    83.41    85.12   100.24   108.39   119.57
eigval :      120.89   129.95   131.29   146.20   163.54   170.79
eigval :      180.58   182.17   198.47   205.78   207.18   212.04
eigval :      213.65   214.28   225.08   225.30   237.15   245.53
eigval :      252.32   257.08   280.83   283.11   301.08   330.87
eigval :      342.53   349.04   353.20   353.65   355.07   369.21
eigval :      371.13   373.28   374.26   374.89   387.57   393.28
eigval :      393.79   401.51   403.12   403.66   411.45   421.88
eigval :      426.93   444.61   447.01   450.99   454.86   455.16
eigval :      457.01   458.69   479.05   481.05   484.14   487.35
eigval :      490.19   492.48   508.19   512.90   531.11   532.84
eigval :      536.26   536.74   557.30   557.34   569.13   569.41
eigval :      577.96   583.60   585.97   587.06   588.53   590.67
eigval :      594.35   597.64   618.11   618.79   629.94   634.51
eigval :      641.51   644.84   655.94   659.79   661.32   669.60
eigval :      675.99   676.32   680.87   683.59   684.43   690.99
eigval :      693.36   699.78   701.10   703.68   707.31   708.46
eigval :      715.71   732.92   739.61   753.05   754.71   755.67
eigval :      761.89   763.20   770.66   772.35   772.73   774.37
eigval :      774.52   775.55   797.57   798.18   816.89   820.64
eigval :      838.24   838.38   869.86   871.60   873.41   874.53
eigval :      875.01   876.90   877.47   878.51   889.53   890.18
eigval :      892.13   892.68   897.84   901.48   902.18   911.51
eigval :      913.05   913.40   914.98   916.02   916.88   917.76
eigval :      919.18   919.83   920.28   920.53   920.99   924.66
eigval :      924.94   926.23   927.95   928.40   928.76   928.86
eigval :      930.71   931.66   931.74   932.66   968.26   970.15
eigval :      993.60   995.64   995.74   998.72  1030.72  1032.88
eigval :     1081.28  1081.64  1081.87  1082.78  1094.41  1094.50
eigval :     1109.70  1109.87  1119.47  1119.56  1122.79  1122.99
eigval :     1126.83  1128.68  1134.61  1134.90  1136.10  1144.12
eigval :     1158.23  1158.42  1178.22  1178.78  1179.72  1180.26
eigval :     1181.05  1182.88  1184.07  1184.44  1186.94  1187.97
eigval :     1196.66  1197.95  1200.20  1200.69  1211.21  1215.77
eigval :     1221.68  1221.71  1228.72  1233.95  1235.26  1244.49
eigval :     1245.24  1258.28  1258.51  1261.99  1266.03  1278.42
eigval :     1278.69  1298.11  1298.45  1299.85  1300.14  1303.14
eigval :     1303.79  1319.85  1320.00  1323.14  1323.88  1324.17
eigval :     1338.46  1339.34  1348.55  1360.33  1365.50  1369.30
eigval :     1376.22  1377.76  1382.96  1390.25  1393.23  1396.70
eigval :     1397.23  1397.40  1398.14  1399.12  1399.46  1417.36
eigval :     1418.44  1418.51  1427.39  1429.71  1429.90  1443.44
eigval :     1451.69  1453.11  1470.27  1474.83  1478.46  1480.25
eigval :     1480.50  1493.87  1497.00  1506.33  1506.43  1525.78
eigval :     1528.65  1531.28  1531.41  1536.05  1536.57  1540.87
eigval :     1559.01  1559.69  1561.22  1561.54  1579.68  1579.81
eigval :     1581.14  1581.30  1587.82  1587.94  1591.88  1592.97
eigval :     1595.71  1595.84  1607.44  1609.02  1609.13  1621.74
eigval :     3063.27  3063.49  3067.70  3068.24  3068.55  3069.36
eigval :     3072.09  3074.01  3074.72  3075.06  3076.13  3076.45
eigval :     3078.00  3078.42  3078.43  3078.87  3079.27  3079.33
eigval :     3079.74  3081.07  3081.61  3081.77  3082.26  3082.57
eigval :     3088.70  3089.15  3090.11  3090.74  3091.19  3091.45
eigval :     3093.97  3094.28  3094.63  3096.41  3097.04  3098.15
eigval :     3099.10  3099.38  3100.37  3100.99  3117.18  3117.30

   temp. (K)  partition function   enthalpy   heat capacity  entropy
                                   cal/mol     cal/K/mol   cal/K/mol   J/K/mol
 298.15  VIB  0.275E+28            33926.019    216.227    212.007
         ROT  0.406E+09              888.752      2.981     42.373
         INT  0.112E+37            34814.771    219.208    254.380
         TR   0.289E+29             1481.254      4.968     46.448
         TOT                       36296.0252   224.1764   300.8288  1258.6677

       T/K    H(0)-H(T)+PV         H(T)/Eh          T*S/Eh         G(T)/Eh
   ------------------------------------------------------------------------
    298.15    0.578414E-01    0.953452E+00    0.142933E+00    0.810519E+00
   ------------------------------------------------------------------------

         :::::::::::::::::::::::::::::::::::::::::::::::::::::
         ::                  THERMODYNAMIC                  ::
         :::::::::::::::::::::::::::::::::::::::::::::::::::::
         :: total free energy        -186.718647428492 Eh   ::
         ::.................................................::
         :: total energy             -187.529165956513 Eh   ::
         :: zero point energy           0.895610605736 Eh   ::
         :: G(RRHO) w/o ZPVE           -0.085092077715 Eh   ::
         :: G(RRHO) contrib.            0.810518528021 Eh   ::
         :::::::::::::::::::::::::::::::::::::::::::::::::::::

           -------------------------------------------------
          | TOTAL ENERGY             -187.529165956513 Eh   |
          | TOTAL ENTHALPY           -186.575713952875 Eh   |
          | TOTAL FREE ENERGY        -186.718647428492 Eh   |
          | GRADIENT NORM               0.000034672114 Eh/α |
          | HOMO-LUMO GAP               2.017706000473 eV   |
           -------------------------------------------------

 * finished run on 2025/09/08 at 10:56:24.302
