   * xtb version 6.7.1 (edcfbbe) compiled by 'albert@albert-system' on 2024-07-22

   ID    Z sym.   atoms
    1   35 Br     1, 12
    2    6 C      2-5, 7-11, 13-21, 23, 24
    3    7 N      6, 22
    4    1 H      25-34

          program call               : xtb data2507/toluene/D–A–D/D–A–D_toluene_S0_finalOpt.xtbopt.xyz --gfn 2 --uhf 2 --gbsa toluene --ohess vtight --parallel 40 --molden --ceasefiles --namespace data2507/toluene/D–A–D/D–A–D_toluene_T1_preOpt
      * Solvation model:               GBSA
        Solvent                        toluene
        Solvent mass                       9.2140E+01 g/mol
          :  Hamiltonian                  GFN2-xTB          :
 * total energy  :   -61.9425434 Eh     change       -0.1002718E-08 Eh
 * total energy  :   -61.9468718 Eh     change       -0.4328397E-02 Eh
 * total energy  :   -61.9483981 Eh     change       -0.1526305E-02 Eh
 * total energy  :   -61.9485546 Eh     change       -0.1564406E-03 Eh
 * total energy  :   -61.9485987 Eh     change       -0.4418564E-04 Eh
 * total energy  :   -61.9486001 Eh     change       -0.1332157E-05 Eh
 * total energy  :   -61.9486003 Eh     change       -0.2122492E-06 Eh
 * total energy  :   -61.9486003 Eh     change       -0.2575199E-07 Eh
   *** GEOMETRY OPTIMIZATION CONVERGED AFTER 8 ITERATIONS ***

 final structure:
================
34
 xtb: 6.7.1 (edcfbbe)
Br           6.64551652902214        0.41685953126534        0.00483076482276
C            4.75779197051063        0.70537447778272        0.00285189094927
C            4.26875853368860        2.00065609594733        0.00106894166462
C            2.90015679031713        2.20864836666198       -0.00023169596864
C            2.00420482553258        1.14165582778120        0.00017642473988
N            0.68848563860462        1.28902177324645       -0.00088039933186
C           -0.16322047177718        0.27669250866961       -0.00064615048108
C           -1.57447637079629        0.47691711912919       -0.00141053183814
C           -2.07421444608139        1.79239879019685       -0.00212721663712
C           -3.42123261835673        2.03774012695381       -0.00218481581105
C           -4.29568458251587        0.95012162750908       -0.00133222074563
Br          -6.18209846288305        1.27862971352921       -0.00063060674118
C           -3.84264016614323       -0.34669133418991       -0.00093360191869
C           -2.46782498348970       -0.62182618284820       -0.00121317653235
C           -1.94278565548761       -1.96739696250661       -0.00120495207506
C           -2.76022198702982       -3.10806056016277       -0.00268298926215
C           -2.22473305150669       -4.37415273065961       -0.00261279319035
C           -0.84115288206796       -4.55663231852757       -0.00087048005260
C           -0.01216031374321       -3.46514089437172        0.00042759747212
C           -0.54180665676506       -2.16238241626841        0.00007508671594
C            0.35926348775154       -1.05424472674613        0.00065248325521
N            1.66905531799693       -1.21803445467942        0.00198227771422
C            2.53574789806255       -0.21402539938786        0.00188543082114
C            3.91409550955691       -0.39488441332790        0.00327250165145
H            4.94550395174155        2.84003613705242        0.00069213341399
H            2.49938984701583        3.20975906986523       -0.00155864359723
H           -1.36480710430064        2.60543701198948       -0.00254692381828
H           -3.80390756609619        3.04622418014727       -0.00274043387849
H           -4.56159767554408       -1.14871624343500       -0.00021995247836
H           -3.83264898344019       -3.00318355127208       -0.00413494992081
H           -2.87918735098299       -5.23276698602782       -0.00393194767835
H           -0.42647386143309       -5.55324102564901       -0.00069082879650
H            1.06169540917356       -3.57414062734807        0.00159583338283
H            4.30530072769996       -1.39978940801085        0.00460595111624

          :  Hamiltonian                  GFN2-xTB          :
         :: gradient norm              0.000037718633 Eh/a0 ::
         :: HOMO-LUMO gap              1.014900700232 eV    ::
         :: SCC energy               -62.949675885182 Eh    ::
         :: -> dispersion             -0.047966874974 Eh    ::
         :: -> Gsolv                  -0.029428995093 Eh    ::
         :: repulsion energy           1.001075573654 Eh    ::

    * Orbital Energies and Occupations

         #    Occupation            Energy/Eh            Energy/eV
      -------------------------------------------------------------
         1        2.0000           -0.8451449             -22.9976
       ...           ...                  ...                  ...
        46        2.0000           -0.4514018             -12.2833
        47        2.0000           -0.4434241             -12.0662
        48        2.0000           -0.4415510             -12.0152
        49        2.0000           -0.4339350             -11.8080
        50        2.0000           -0.4329397             -11.7809
        51        2.0000           -0.4190484             -11.4029
        52        2.0000           -0.4175260             -11.3615
        53        2.0000           -0.4152262             -11.2989
        54        2.0000           -0.4127813             -11.2324
        55        2.0000           -0.4072983             -11.0832
        56        2.0000           -0.3997003             -10.8764
        57        1.0000           -0.3797959             -10.3348
        58        1.0000           -0.3263653              -8.8809 (HOMO)
        59                         -0.2890683              -7.8659 (LUMO)
        60                         -0.2709131              -7.3719
        61                         -0.2455138              -6.6808
        62                         -0.2378711              -6.4728
        63                         -0.2200210              -5.9871
        64                         -0.2125631              -5.7841
        65                         -0.2124130              -5.7801
        66                         -0.2119557              -5.7676
        67                         -0.1745018              -4.7484
        68                         -0.1275459              -3.4707
        69                         -0.1078895              -2.9358
       ...                                ...                  ...
       116                          0.6924076              18.8414
      -------------------------------------------------------------
                  HL-Gap            0.0372970 Eh            1.0149 eV

     #   Z          covCN         q      C6AA      α(0)
     1  35 Br       1.066    -0.180   190.028    22.227
     2   6 C        2.912     0.079    26.241     8.400
     3   6 C        2.984    -0.038    28.940     8.824
     4   6 C        2.920    -0.055    29.360     8.886
     5   6 C        2.936     0.088    26.047     8.370
     6   7 N        1.851    -0.194    26.042     7.563
     7   6 C        2.940     0.081    26.190     8.393
     8   6 C        2.985    -0.004    28.122     8.699
     9   6 C        2.928    -0.026    28.648     8.778
    10   6 C        2.980    -0.034    28.841     8.809
    11   6 C        2.914     0.084    26.131     8.382
    12  35 Br       1.062    -0.186   190.201    22.237
    13   6 C        2.994    -0.038    28.927     8.823
    14   6 C        2.979     0.007    27.854     8.657
    15   6 C        2.976     0.007    27.869     8.659
    16   6 C        2.920    -0.030    28.751     8.793
    17   6 C        2.917    -0.025    28.624     8.773
    18   6 C        2.916    -0.026    28.642     8.776
    19   6 C        2.924    -0.025    28.635     8.775
    20   6 C        2.987    -0.001    28.041     8.686
    21   6 C        2.940     0.085    26.110     8.380
    22   7 N        1.851    -0.194    26.030     7.562
    23   6 C        2.939     0.090    26.005     8.364
    24   6 C        2.990    -0.063    29.546     8.916
    25   1 H        0.926     0.064     2.148     2.292
    26   1 H        0.926     0.068     2.102     2.267
    27   1 H        0.926     0.063     2.169     2.303
    28   1 H        0.926     0.063     2.168     2.302
    29   1 H        0.926     0.066     2.133     2.284
    30   1 H        0.926     0.051     2.310     2.377
    31   1 H        0.926     0.050     2.323     2.383
    32   1 H        0.926     0.051     2.306     2.375
    33   1 H        0.926     0.053     2.289     2.366
    34   1 H        0.926     0.070     2.087     2.259

molecular dipole:
                 x           y           z       tot (Debye)
 q only:       -0.604      -0.690      -0.002
   full:       -0.580      -0.623      -0.002       2.164

 projected vibrational frequencies (cm⁻¹)
eigval :       -0.00    -0.00    -0.00     0.00     0.00     0.00
eigval :       17.52    46.51    57.56    66.59    80.48   119.25
eigval :      120.41   140.33   147.24   193.88   215.60   229.65
eigval :      246.23   272.27   300.49   324.77   346.01   368.00
eigval :      384.20   403.61   413.34   414.65   446.15   475.35
eigval :      513.67   527.99   540.58   543.01   570.78   590.35
eigval :      604.76   609.75   610.33   661.57   666.20   676.19
eigval :      707.33   717.92   768.19   776.98   786.06   788.52
eigval :      811.65   827.54   853.83   862.13   868.49   869.66
eigval :      908.24   910.79   911.18   919.91  1009.29  1054.69
eigval :     1080.60  1081.42  1104.00  1128.23  1141.21  1149.35
eigval :     1176.49  1211.39  1216.96  1226.23  1235.51  1246.00
eigval :     1266.34  1287.33  1293.70  1318.38  1334.91  1351.72
eigval :     1359.17  1383.25  1401.71  1405.53  1412.35  1456.33
eigval :     1466.33  1485.53  1518.46  1522.10  1526.75  1543.50
eigval :     1559.68  1583.47  3084.07  3090.07  3096.47  3098.73
eigval :     3098.78  3103.83  3106.76  3110.51  3111.58  3123.75

   temp. (K)  partition function   enthalpy   heat capacity  entropy
                                   cal/mol     cal/K/mol   cal/K/mol   J/K/mol
 298.15  VIB  0.777E+07            10202.487     66.928     61.917
         ROT  0.264E+08              888.752      2.981     36.939
         INT  0.205E+15            11091.240     69.909     98.856
         TR   0.887E+28             1481.254      4.968     44.102
         TOT                       12572.4935    74.8772   142.9575   598.1342

       T/K    H(0)-H(T)+PV         H(T)/Eh          T*S/Eh         G(T)/Eh
   ------------------------------------------------------------------------
    298.15    0.200355E-01    0.251944E+00    0.679237E-01    0.184020E+00
   ------------------------------------------------------------------------

         :::::::::::::::::::::::::::::::::::::::::::::::::::::
         ::                  THERMODYNAMIC                  ::
         :::::::::::::::::::::::::::::::::::::::::::::::::::::
         :: total free energy         -61.764579858170 Eh   ::
         ::.................................................::
         :: total energy              -61.948600309879 Eh   ::
         :: zero point energy           0.231908634010 Eh   ::
         :: G(RRHO) w/o ZPVE           -0.047888182301 Eh   ::
         :: G(RRHO) contrib.            0.184020451709 Eh   ::
         :::::::::::::::::::::::::::::::::::::::::::::::::::::

           -------------------------------------------------
          | TOTAL ENERGY              -61.948600309879 Eh   |
          | TOTAL ENTHALPY            -61.696656132155 Eh   |
          | TOTAL FREE ENERGY         -61.764579858170 Eh   |
          | GRADIENT NORM               0.000038006214 Eh/α |
          | HOMO-LUMO GAP               1.014901941465 eV   |
           -------------------------------------------------

 * finished run on 2025/09/02 at 18:31:51.804
