   * xtb version 6.7.1 (edcfbbe) compiled by 'albert@albert-system' on 2024-07-22

   ID    Z sym.   atoms
    1   35 Br     1, 12
    2    6 C      2-5, 7-11, 13-21, 23, 24
    3    7 N      6, 22
    4    1 H      25-34

          program call               : xtb data2507/toluene/D–A–D/D–A–D_toluene_T1_crest.xyz --gfn 2 --uhf 2 --gbsa toluene --ohess vtight --parallel 40 --molden --ceasefiles --namespace data2507/toluene/D–A–D/D–A–D_toluene_T1_finalOpt
      * Solvation model:               GBSA
        Solvent                        toluene
        Solvent mass                       9.2140E+01 g/mol
          :  Hamiltonian                  GFN2-xTB          :
 * total energy  :   -61.9485794 Eh     change       -0.3946212E-09 Eh
 * total energy  :   -61.9485970 Eh     change       -0.1762498E-04 Eh
 * total energy  :   -61.9485994 Eh     change       -0.2324592E-05 Eh
 * total energy  :   -61.9486000 Eh     change       -0.5796861E-06 Eh
 * total energy  :   -61.9486000 Eh     change       -0.8065084E-07 Eh
   *** GEOMETRY OPTIMIZATION CONVERGED AFTER 5 ITERATIONS ***

 final structure:
================
34
 xtb: 6.7.1 (edcfbbe)
Br           6.64333762519927        0.41959154257859        0.00587817134265
C            4.75550374296841        0.70736757319805        0.00000188864923
C            4.26594697064012        2.00245334127888       -0.00184494598631
C            2.89726417350428        2.20991082364558       -0.00549475861183
C            2.00172385216175        1.14258154612888       -0.00685910175323
N            0.68596270023727        1.28940544356705       -0.00890985129388
C           -0.16531121500635        0.27672662207434       -0.00776168977454
C           -1.57663618984717        0.47631100494854       -0.00667513866586
C           -2.07697741219341        1.79156357540218       -0.00932413727661
C           -3.42409408441167        2.03629683947976       -0.00624259166543
C           -4.29804891453599        0.94829774288380        0.00001984429492
Br          -6.18459578653966        1.27598649900612        0.00623216507724
C           -3.84443684250320       -0.34830134477239        0.00179042482584
C           -2.46950271664852       -0.62281710862235       -0.00189206402903
C           -1.94388097885133       -1.96815282242462       -0.00077699741330
C           -2.76080259363516       -3.10917878457230        0.00310401450183
C           -2.22473954260443       -4.37501354064427        0.00355232408662
C           -0.84107968597871       -4.55686823172468       -0.00011305748678
C           -0.01258707814967       -3.46501763189722       -0.00365528158043
C           -0.54282922679817       -2.16250573569935       -0.00380382425795
C            0.35774684423348       -1.05399205715785       -0.00611916216754
N            1.66756832878897       -1.21723250325291       -0.00570866135695
C            2.53383960055728       -0.21289786921544       -0.00506075217419
C            3.91225246114568       -0.39321811785655       -0.00187238639943
H            4.94234670027861        2.84210697463348       -0.00030736853314
H            2.49612394253772        3.21086595122647       -0.00685056537089
H           -1.36793643685745        2.60491276616960       -0.01364382053955
H           -3.80723237427849        3.04459913820445       -0.00828078447761
H           -4.56302054049913       -1.15064680642348        0.00634692888277
H           -3.83328108686680       -3.00478019782909        0.00575182397509
H           -2.87878637508456       -5.23393731881573        0.00668510625361
H           -0.42594831998281       -5.55328670785772       -0.00002864800592
H            1.06131583318037       -3.57350662919684       -0.00634041497695
H            4.30384451433946       -1.39797089806298       -0.00044674589248

          :  Hamiltonian                  GFN2-xTB          :
         :: gradient norm              0.000050315608 Eh/a0 ::
         :: HOMO-LUMO gap              1.014824211934 eV    ::
         :: SCC energy               -62.949716224986 Eh    ::
         :: -> dispersion             -0.047967237444 Eh    ::
         :: -> Gsolv                  -0.029429105352 Eh    ::
         :: repulsion energy           1.001116186508 Eh    ::

    * Orbital Energies and Occupations

         #    Occupation            Energy/Eh            Energy/eV
      -------------------------------------------------------------
         1        2.0000           -0.8451441             -22.9975
       ...           ...                  ...                  ...
        46        2.0000           -0.4514015             -12.2833
        47        2.0000           -0.4434246             -12.0662
        48        2.0000           -0.4415499             -12.0152
        49        2.0000           -0.4339347             -11.8080
        50        2.0000           -0.4329395             -11.7809
        51        2.0000           -0.4190476             -11.4029
        52        2.0000           -0.4175249             -11.3614
        53        2.0000           -0.4152263             -11.2989
        54        2.0000           -0.4127817             -11.2324
        55        2.0000           -0.4072981             -11.0831
        56        2.0000           -0.3996995             -10.8764
        57        1.0000           -0.3797917             -10.3347
        58        1.0000           -0.3263628              -8.8808 (HOMO)
        59                         -0.2890688              -7.8660 (LUMO)
        60                         -0.2709110              -7.3719
        61                         -0.2455109              -6.6807
        62                         -0.2378697              -6.4728
        63                         -0.2200154              -5.9869
        64                         -0.2125630              -5.7841
        65                         -0.2124109              -5.7800
        66                         -0.2119532              -5.7675
        67                         -0.1744983              -4.7483
        68                         -0.1275421              -3.4706
        69                         -0.1078866              -2.9357
       ...                                ...                  ...
       116                          0.6924340              18.8421
      -------------------------------------------------------------
                  HL-Gap            0.0372941 Eh            1.0148 eV

     #   Z          covCN         q      C6AA      α(0)
     1  35 Br       1.066    -0.180   190.028    22.227
     2   6 C        2.912     0.079    26.241     8.400
     3   6 C        2.984    -0.038    28.940     8.824
     4   6 C        2.920    -0.055    29.360     8.886
     5   6 C        2.936     0.088    26.047     8.370
     6   7 N        1.851    -0.194    26.042     7.563
     7   6 C        2.940     0.081    26.190     8.393
     8   6 C        2.985    -0.004    28.122     8.699
     9   6 C        2.928    -0.026    28.648     8.778
    10   6 C        2.980    -0.034    28.841     8.809
    11   6 C        2.914     0.084    26.131     8.382
    12  35 Br       1.062    -0.186   190.201    22.237
    13   6 C        2.994    -0.038    28.927     8.823
    14   6 C        2.979     0.007    27.854     8.657
    15   6 C        2.976     0.007    27.869     8.659
    16   6 C        2.920    -0.030    28.751     8.793
    17   6 C        2.917    -0.025    28.624     8.773
    18   6 C        2.916    -0.026    28.642     8.776
    19   6 C        2.924    -0.025    28.636     8.775
    20   6 C        2.987    -0.001    28.041     8.686
    21   6 C        2.940     0.085    26.110     8.380
    22   7 N        1.851    -0.194    26.030     7.562
    23   6 C        2.939     0.090    26.005     8.364
    24   6 C        2.990    -0.063    29.546     8.916
    25   1 H        0.926     0.064     2.148     2.292
    26   1 H        0.926     0.068     2.102     2.267
    27   1 H        0.926     0.063     2.169     2.303
    28   1 H        0.926     0.063     2.168     2.302
    29   1 H        0.926     0.066     2.133     2.284
    30   1 H        0.926     0.051     2.310     2.377
    31   1 H        0.926     0.050     2.323     2.383
    32   1 H        0.926     0.051     2.306     2.375
    33   1 H        0.926     0.053     2.289     2.366
    34   1 H        0.926     0.070     2.087     2.259

molecular dipole:
                 x           y           z       tot (Debye)
 q only:       -0.604      -0.690      -0.004
   full:       -0.580      -0.623      -0.006       2.164

 projected vibrational frequencies (cm⁻¹)
eigval :       -0.00    -0.00    -0.00     0.00     0.00     0.00
eigval :       18.03    46.54    57.86    66.60    80.21   119.27
eigval :      120.37   140.34   147.24   193.85   215.60   229.65
eigval :      246.26   272.19   300.49   324.87   346.01   367.97
eigval :      384.20   403.50   413.34   414.44   446.02   475.35
eigval :      513.64   527.99   540.60   542.83   570.80   590.36
eigval :      604.74   609.74   610.27   661.53   665.98   676.22
eigval :      707.32   717.74   768.10   776.98   786.02   788.54
eigval :      811.50   827.52   853.48   862.16   868.50   869.48
eigval :      908.26   910.80   911.10   919.89  1009.30  1054.69
eigval :     1080.59  1081.40  1103.98  1128.21  1141.20  1149.33
eigval :     1176.44  1211.39  1216.93  1226.22  1235.51  1245.96
eigval :     1266.34  1287.30  1293.71  1318.37  1335.00  1351.78
eigval :     1359.21  1383.27  1401.74  1405.54  1412.38  1456.37
eigval :     1466.37  1485.58  1518.46  1522.10  1526.77  1543.52
eigval :     1559.70  1583.51  3084.07  3090.05  3096.47  3098.66
eigval :     3098.80  3103.84  3106.77  3110.48  3111.51  3123.71

   temp. (K)  partition function   enthalpy   heat capacity  entropy
                                   cal/mol     cal/K/mol   cal/K/mol   J/K/mol
 298.15  VIB  0.755E+07            10202.271     66.937     61.897
         ROT  0.264E+08              888.752      2.981     36.939
         INT  0.199E+15            11091.023     69.918     98.836
         TR   0.887E+28             1481.254      4.968     44.102
         TOT                       12572.2773    74.8864   142.9376   598.0508

       T/K    H(0)-H(T)+PV         H(T)/Eh          T*S/Eh         G(T)/Eh
   ------------------------------------------------------------------------
    298.15    0.200352E-01    0.251941E+00    0.679143E-01    0.184027E+00
   ------------------------------------------------------------------------

         :::::::::::::::::::::::::::::::::::::::::::::::::::::
         ::                  THERMODYNAMIC                  ::
         :::::::::::::::::::::::::::::::::::::::::::::::::::::
         :: total free energy         -61.764573336297 Eh   ::
         ::.................................................::
         :: total energy              -61.948600037304 Eh   ::
         :: zero point energy           0.231905755138 Eh   ::
         :: G(RRHO) w/o ZPVE           -0.047879054131 Eh   ::
         :: G(RRHO) contrib.            0.184026701008 Eh   ::
         :::::::::::::::::::::::::::::::::::::::::::::::::::::

           -------------------------------------------------
          | TOTAL ENERGY              -61.948600037304 Eh   |
          | TOTAL ENTHALPY            -61.696659082945 Eh   |
          | TOTAL FREE ENERGY         -61.764573336297 Eh   |
          | GRADIENT NORM               0.000051825892 Eh/α |
          | HOMO-LUMO GAP               1.014823910423 eV   |
           -------------------------------------------------

 * finished run on 2025/09/02 at 18:33:13.082
