   * xtb version 6.7.1 (edcfbbe) compiled by 'albert@albert-system' on 2024-07-22

   ID    Z sym.   atoms
    1   35 Br     1, 12
    2    6 C      2-5, 7-11, 13-21, 23, 24
    3    7 N      6, 22
    4    1 H      25-34

          program call               : xtb data2507/toluene/D–A–D/D–A–D_toluene_S0_crest.xyz --gfn 2 --gbsa toluene --ohess vtight --parallel 40 --molden --ceasefiles --namespace data2507/toluene/D–A–D/D–A–D_toluene_S0_finalOpt
      * Solvation model:               GBSA
        Solvent                        toluene
        Solvent mass                       9.2140E+01 g/mol
          :  Hamiltonian                  GFN2-xTB          :
 * total energy  :   -62.0000181 Eh     change       -0.1585143E-08 Eh
 * total energy  :   -62.0000328 Eh     change       -0.1473589E-04 Eh
 * total energy  :   -62.0000348 Eh     change       -0.2030305E-05 Eh
 * total energy  :   -62.0000354 Eh     change       -0.5716496E-06 Eh
 * total energy  :   -62.0000353 Eh     change        0.1428996E-06 Eh
 * total energy  :   -62.0000356 Eh     change       -0.2963475E-06 Eh
 * total energy  :   -62.0000357 Eh     change       -0.9486681E-07 Eh
   *** GEOMETRY OPTIMIZATION CONVERGED AFTER 7 ITERATIONS ***

 final structure:
================
34
 xtb: 6.7.1 (edcfbbe)
Br           6.61859021358829        0.43087460763592        0.00350860581203
C            4.72531556826220        0.67891841260727        0.00260665061341
C            4.22882326927507        1.99646341510587        0.00077822804095
C            2.88163165384540        2.21338562987060       -0.00005038201529
C            1.98768506342164        1.11952222014806        0.00075191547842
N            0.66470489134650        1.33492563034371       -0.00060502312313
C           -0.13675788104700        0.28587727055542       -0.00023744371565
C           -1.56721941172680        0.49642415243529       -0.00142224097600
C           -2.06805969830469        1.80251113697593       -0.00312501638833
C           -3.42131849923660        2.04480645335212       -0.00323990401506
C           -4.28320721749617        0.95462368251413       -0.00096991485407
Br          -6.17217944366617        1.26296138535561        0.00025387417247
C           -3.82012190076270       -0.34251585317966        0.00033399414153
C           -2.44566534329309       -0.60635730388080       -0.00048572225586
C           -1.91726807662504       -1.96420305841428       -0.00062604142670
C           -2.74309174420360       -3.09438555020622       -0.00310667172087
C           -2.21682701964925       -4.36880489371359       -0.00363139313031
C           -0.84015467251246       -4.56372498355360       -0.00140007182565
C           -0.00318310123739       -3.47149751331032        0.00084838569836
C           -0.52269938292992       -2.17318066775050        0.00094824362006
C            0.38371219925079       -1.04630651926675        0.00169747484451
N            1.68486787836715       -1.26898933861604        0.00335118391328
C            2.50705866616258       -0.20950866362491        0.00279363154224
C            3.90384290336510       -0.41145131202307        0.00382826129995
H            4.92326300051705        2.82242861318936       -0.00013454851475
H            2.47211879432075        3.21123188277732       -0.00148101965662
H           -1.36078006058736        2.61653492525065       -0.00430008508135
H           -3.80866193347647        3.05148225709643       -0.00478863807016
H           -4.53646818842739       -1.14676935782854        0.00218745181713
H           -3.81502793896204       -2.98517156376917       -0.00508053504303
H           -2.88154741069347       -5.21975207089329       -0.00585277380465
H           -0.43229063426420       -5.56302834036441       -0.00171421437814
H            1.06941444151113       -3.58546779357915        0.00229155565017
H            4.28368193506818       -1.42102961073942        0.00535107155109

          :  Hamiltonian                  GFN2-xTB          :
         :: gradient norm              0.000076544354 Eh/a0 ::
         :: HOMO-LUMO gap              1.310916606137 eV    ::
         :: SCC energy               -62.993111071442 Eh    ::
         :: -> dispersion             -0.048092046999 Eh    ::
         :: -> Gsolv                  -0.030039385023 Eh    ::
         :: repulsion energy           0.993075401906 Eh    ::

    * Orbital Energies and Occupations

         #    Occupation            Energy/Eh            Energy/eV
      -------------------------------------------------------------
         1        2.0000           -0.8491632             -23.1069
       ...           ...                  ...                  ...
        45        2.0000           -0.4514360             -12.2842
        46        2.0000           -0.4432632             -12.0618
        47        2.0000           -0.4414600             -12.0127
        48        2.0000           -0.4370277             -11.8921
        49        2.0000           -0.4357150             -11.8564
        50        2.0000           -0.4294608             -11.6862
        51        2.0000           -0.4233645             -11.5203
        52        2.0000           -0.4193187             -11.4102
        53        2.0000           -0.4162715             -11.3273
        54        2.0000           -0.4151086             -11.2957
        55        2.0000           -0.4085388             -11.1169
        56        2.0000           -0.4018546             -10.9350
        57        2.0000           -0.3701829             -10.0732 (HOMO)
        58                         -0.3220075              -8.7623 (LUMO)
        59                         -0.2861976              -7.7878
        60                         -0.2721721              -7.4062
        61                         -0.2481235              -6.7518
        62                         -0.2390228              -6.5041
        63                         -0.2238006              -6.0899
        64                         -0.2179604              -5.9310
        65                         -0.2144478              -5.8354
        66                         -0.2141276              -5.8267
        67                         -0.1751071              -4.7649
        68                         -0.1277724              -3.4769
       ...                                ...                  ...
       116                          0.6942664              18.8919
      -------------------------------------------------------------
                  HL-Gap            0.0481754 Eh            1.3109 eV

     #   Z          covCN         q      C6AA      α(0)
     1  35 Br       1.070    -0.165   189.617    22.203
     2   6 C        2.914     0.086    26.094     8.376
     3   6 C        2.985    -0.031    28.764     8.798
     4   6 C        2.919    -0.039    28.969     8.826
     5   6 C        2.965     0.080    26.206     8.397
     6   7 N        1.848    -0.248    27.309     7.745
     7   6 C        2.960     0.086    26.079     8.376
     8   6 C        2.986    -0.005    28.144     8.702
     9   6 C        2.928    -0.025    28.621     8.774
    10   6 C        2.983    -0.032    28.791     8.802
    11   6 C        2.916     0.088    26.038     8.368
    12  35 Br       1.064    -0.179   190.012    22.226
    13   6 C        2.996    -0.038    28.945     8.825
    14   6 C        2.978     0.012    27.748     8.641
    15   6 C        2.976     0.009    27.823     8.652
    16   6 C        2.922    -0.031    28.765     8.795
    17   6 C        2.918    -0.022    28.556     8.763
    18   6 C        2.916    -0.024    28.599     8.769
    19   6 C        2.923    -0.025    28.622     8.773
    20   6 C        2.987    -0.003    28.102     8.696
    21   6 C        2.959     0.088    26.039     8.370
    22   7 N        1.848    -0.250    27.358     7.752
    23   6 C        2.969     0.083    26.139     8.386
    24   6 C        2.994    -0.048    29.185     8.862
    25   1 H        0.926     0.071     2.072     2.251
    26   1 H        0.926     0.071     2.073     2.251
    27   1 H        0.926     0.072     2.061     2.245
    28   1 H        0.926     0.064     2.151     2.293
    29   1 H        0.926     0.068     2.112     2.273
    30   1 H        0.926     0.052     2.299     2.371
    31   1 H        0.926     0.051     2.302     2.373
    32   1 H        0.926     0.051     2.312     2.378
    33   1 H        0.926     0.061     2.189     2.314
    34   1 H        0.926     0.072     2.064     2.246

molecular dipole:
                 x           y           z       tot (Debye)
 q only:       -0.524      -0.585      -0.002
   full:       -0.518      -0.550      -0.003       1.920

 projected vibrational frequencies (cm⁻¹)
eigval :       -0.00    -0.00    -0.00     0.00     0.00     0.00
eigval :       15.84    42.31    53.18    68.18    76.83   113.16
eigval :      120.67   147.18   149.12   199.09   218.06   246.66
eigval :      247.06   282.62   302.35   344.35   351.45   374.19
eigval :      383.57   406.41   413.61   423.70   440.18   474.72
eigval :      512.37   550.84   551.04   556.65   574.55   592.60
eigval :      602.92   617.36   663.10   680.24   697.43   706.69
eigval :      730.89   767.24   777.98   779.95   810.02   822.15
eigval :      837.40   858.62   867.16   872.57   875.89   912.89
eigval :      919.20   919.75   930.14   938.49  1024.78  1057.98
eigval :     1064.61  1084.97  1108.75  1140.79  1149.44  1151.92
eigval :     1177.55  1204.87  1225.72  1235.17  1251.72  1279.24
eigval :     1285.74  1296.61  1315.43  1331.55  1337.40  1360.86
eigval :     1391.69  1405.98  1418.13  1425.61  1453.64  1466.89
eigval :     1480.37  1499.31  1530.11  1545.52  1561.73  1569.31
eigval :     1583.44  1590.50  3084.19  3094.23  3097.16  3101.45
eigval :     3105.28  3107.96  3109.06  3111.94  3115.67  3123.41

   temp. (K)  partition function   enthalpy   heat capacity  entropy
                                   cal/mol     cal/K/mol   cal/K/mol   J/K/mol
 298.15  VIB  0.825E+07            10030.301     65.521     61.039
         ROT  0.262E+08              888.752      2.981     36.927
         INT  0.216E+15            10919.053     68.501     97.966
         TR   0.887E+28             1481.254      4.968     44.102
         TOT                       12400.3068    73.4696   142.0678   594.4118

       T/K    H(0)-H(T)+PV         H(T)/Eh          T*S/Eh         G(T)/Eh
   ------------------------------------------------------------------------
    298.15    0.197611E-01    0.254135E+00    0.675010E-01    0.186634E+00
   ------------------------------------------------------------------------

         :::::::::::::::::::::::::::::::::::::::::::::::::::::
         ::                  THERMODYNAMIC                  ::
         :::::::::::::::::::::::::::::::::::::::::::::::::::::
         :: total free energy         -61.813401409391 Eh   ::
         ::.................................................::
         :: total energy              -62.000035668680 Eh   ::
         :: zero point energy           0.234374119603 Eh   ::
         :: G(RRHO) w/o ZPVE           -0.047739860313 Eh   ::
         :: G(RRHO) contrib.            0.186634259289 Eh   ::
         :::::::::::::::::::::::::::::::::::::::::::::::::::::

           -------------------------------------------------
          | TOTAL ENERGY              -62.000035668680 Eh   |
          | TOTAL ENTHALPY            -61.745900402327 Eh   |
          | TOTAL FREE ENERGY         -61.813401409391 Eh   |
          | GRADIENT NORM               0.000076698891 Eh/α |
          | HOMO-LUMO GAP               1.310918182791 eV   |
           -------------------------------------------------

 * finished run on 2025/09/02 at 18:31:50.812
