   * xtb version 6.7.1 (edcfbbe) compiled by 'albert@albert-system' on 2024-07-22

   ID    Z sym.   atoms
    1    7 N      1, 14, 24
    2    6 C      2-13, 15-23, 25-36
    3    1 H      37-55

          program call               : xtb data2507/toluene/ACRFLCN/ACRFLCN_toluene_S0_crest.xyz --gfn 2 --gbsa toluene --ohess vtight --parallel 40 --molden --ceasefiles --namespace data2507/toluene/ACRFLCN/ACRFLCN_toluene_S0_finalOpt
      * Solvation model:               GBSA
        Solvent                        toluene
        Solvent mass                       9.2140E+01 g/mol
          :  Hamiltonian                  GFN2-xTB          :
 * total energy  :   -89.1243207 Eh     change       -0.1290999E-08 Eh
 * total energy  :   -89.1243398 Eh     change       -0.1911381E-04 Eh
 * total energy  :   -89.1243423 Eh     change       -0.2524599E-05 Eh
 * total energy  :   -89.1243429 Eh     change       -0.5216361E-06 Eh
 * total energy  :   -89.1243452 Eh     change       -0.2363163E-05 Eh
 * total energy  :   -89.1243454 Eh     change       -0.1885132E-06 Eh
 * total energy  :   -89.1243459 Eh     change       -0.5020475E-06 Eh
 * total energy  :   -89.1243462 Eh     change       -0.2861098E-06 Eh
 * total energy  :   -89.1243465 Eh     change       -0.3013141E-06 Eh
 * total energy  :   -89.1243468 Eh     change       -0.2653327E-06 Eh
 * total energy  :   -89.1243509 Eh     change       -0.2518209E-06 Eh
 * total energy  :   -89.1243506 Eh     change        0.3275842E-06 Eh
 * total energy  :   -89.1243515 Eh     change       -0.8911162E-06 Eh
 * total energy  :   -89.1243516 Eh     change       -0.1341441E-06 Eh
 * total energy  :   -89.1243518 Eh     change       -0.2014860E-06 Eh
 * total energy  :   -89.1243519 Eh     change       -0.1318850E-06 Eh
 * total energy  :   -89.1243521 Eh     change       -0.1582177E-06 Eh
 * total energy  :   -89.1243521 Eh     change        0.1093525E-09 Eh
 * total energy  :   -89.1243522 Eh     change       -0.9715428E-07 Eh
   *** GEOMETRY OPTIMIZATION CONVERGED AFTER 30 ITERATIONS ***

 final structure:
================
55
 xtb: 6.7.1 (edcfbbe)
N           -1.72150453981833       -6.00103694543776        0.00121041075396
C           -1.99581865070609       -4.88606706097550        0.00073643557691
C           -2.33258063311428       -3.51528153957520        0.00012882477889
C           -3.67943713571544       -3.13701164030583       -0.00115593573099
C           -4.03098379730192       -1.80040025979125       -0.00143835025560
C           -3.02370908142432       -0.84535427076007       -0.00044573572306
C           -1.67180446703501       -1.22922414475586        0.00053643708268
C           -1.31270474482969       -2.55575261239141        0.00097441858087
C           -0.76327263988278       -0.01583370099263        0.00093348226659
C           -1.77776352627143        1.11019570053450        0.00068987209636
C           -1.53988885806642        2.46372058803133        0.00100338332973
C           -2.64235200452593        3.32708999801350        0.00049200510001
C           -2.43064699023338        4.72267841612198        0.00054600566813
N           -2.25793160320353        5.85783794655482        0.00054616350656
C           -3.94953829695521        2.82872159589420       -0.00026320984522
C           -4.17899594275627        1.46584618051728       -0.00066834212450
C           -3.08950882103135        0.60577522265713       -0.00024780766197
C            0.07541052573076        0.02120653940727        1.25906238890332
C           -0.56849193833188        0.00485524001397        2.48781399365142
C            0.14315345640698        0.03449784022574        3.67257583721274
C            1.52676530431209        0.08085529516010        3.62735159937095
C            2.18365513799439        0.09694469856303        2.41441113874440
C            1.47157795059269        0.06829026386986        1.21094594587312
N            2.14364923351264        0.08661568237282        0.00126467407984
C            3.57090126241939        0.11246736035795        0.00112375547700
C            4.28296656621090       -1.08017387820843       -0.01361725736284
C            5.66687970771312       -1.05430324974744       -0.01461237423586
C            6.33949972042334        0.15671840308930       -0.00052561468095
C            5.62833540723864        1.34554427922585        0.01458175556070
C            4.24421205187880        1.32746117070988        0.01524761720633
C            1.47176917474379        0.07028368172247       -1.20856081240541
C            2.18396457936686        0.10399613899807       -2.41183502957319
C            1.52735206023957        0.08905605226202       -3.62493462657136
C            0.14387261296733        0.03929201974378       -3.67052558110808
C           -0.56795577786868        0.00655045418353       -2.48595612797270
C            0.07567037453803        0.02192397681077       -1.25704409562565
H           -4.44064559634414       -3.90330665513769       -0.00193450587844
H           -5.07039425071848       -1.51066278673395       -0.00249388509531
H           -0.27678658848173       -2.86117324991123        0.00204427744826
H           -0.53580474563710        2.86156274981767        0.00156619204879
H           -4.77664771038648        3.52332407614251       -0.00050355725793
H           -5.18799873467366        1.08353549172598       -0.00126722694898
H           -1.64849097793333       -0.03217846130891        2.51178958635847
H           -0.37600496613206        0.02152568486839        4.61858200142785
H            2.10044888991138        0.10419056546961        4.54203302006190
H            3.26179532907583        0.13189558185882        2.39158143673264
H            3.74858577346637       -2.01897309561545       -0.02447713384689
H            6.21969951146219       -1.98181043499764       -0.02637980259160
H            7.41910602839601        0.17393461325820       -0.00131577595453
H            6.15136362531959        2.29018991647502        0.02565660278882
H            3.68056823907193        2.24895343004856        0.02675334559909
H            3.26198478187302        0.14218522458943       -2.38874474296175
H            2.10115517654108        0.11604980933586       -4.53943900259021
H           -0.37506731506090        0.02676656829048       -4.61665783394287
H           -1.64789126706679       -0.03201756497628       -2.51023148614041

          :  Hamiltonian                  GFN2-xTB          :
         :: gradient norm              0.000066480188 Eh/a0 ::
         :: HOMO-LUMO gap              1.528146799857 eV    ::
         :: SCC energy               -90.874191953435 Eh    ::
         :: -> dispersion             -0.082302891432 Eh    ::
         :: -> Gsolv                  -0.042577478077 Eh    ::
         :: repulsion energy           1.749839778431 Eh    ::

    * Orbital Energies and Occupations

         #    Occupation            Energy/Eh            Energy/eV
      -------------------------------------------------------------
         1        2.0000           -0.6829856             -18.5850
       ...           ...                  ...                  ...
        71        2.0000           -0.4339779             -11.8091
        72        2.0000           -0.4332492             -11.7893
        73        2.0000           -0.4305729             -11.7165
        74        2.0000           -0.4298599             -11.6971
        75        2.0000           -0.4200182             -11.4293
        76        2.0000           -0.4186093             -11.3909
        77        2.0000           -0.4181261             -11.3778
        78        2.0000           -0.4125407             -11.2258
        79        2.0000           -0.4118785             -11.2078
        80        2.0000           -0.4110100             -11.1842
        81        2.0000           -0.4016615             -10.9298
        82        2.0000           -0.4013855             -10.9223
        83        2.0000           -0.3554299              -9.6717 (HOMO)
        84                         -0.2992715              -8.1436 (LUMO)
        85                         -0.2615944              -7.1183
        86                         -0.2489740              -6.7749
        87                         -0.2469544              -6.7200
        88                         -0.2384557              -6.4887
        89                         -0.2369473              -6.4477
        90                         -0.2314780              -6.2988
        91                         -0.2308058              -6.2805
        92                         -0.2269649              -6.1760
        93                         -0.2168004              -5.8994
        94                         -0.2155723              -5.8660
       ...                                ...                  ...
       163                          1.1554108              31.4403
      -------------------------------------------------------------
                  HL-Gap            0.0561584 Eh            1.5281 eV

     #   Z          covCN         q      C6AA      α(0)
     1   7 N        0.911    -0.270    26.983     7.513
     2   6 C        1.913     0.119    28.165     8.571
     3   6 C        2.976     0.016    27.644     8.624
     4   6 C        2.928    -0.021    28.521     8.758
     5   6 C        2.913    -0.027    28.687     8.783
     6   6 C        3.033     0.012    27.708     8.634
     7   6 C        3.057     0.011    27.720     8.634
     8   6 C        2.921    -0.021    28.531     8.759
     9   6 C        3.948     0.015    20.261     6.396
    10   6 C        3.057     0.011    27.719     8.634
    11   6 C        2.921    -0.021    28.530     8.759
    12   6 C        2.976     0.016    27.644     8.624
    13   6 C        1.913     0.119    28.165     8.571
    14   7 N        0.911    -0.270    26.983     7.513
    15   6 C        2.928    -0.021    28.521     8.758
    16   6 C        2.913    -0.027    28.688     8.783
    17   6 C        3.033     0.012    27.708     8.634
    18   6 C        2.982    -0.013    28.338     8.732
    19   6 C        2.925    -0.037    28.919     8.819
    20   6 C        2.917    -0.044    29.086     8.844
    21   6 C        2.919    -0.031    28.782     8.798
    22   6 C        2.924    -0.057    29.411     8.894
    23   6 C        2.925     0.060    26.646     8.465
    24   7 N        2.753    -0.069    22.579     7.057
    25   6 C        2.927     0.066    26.529     8.447
    26   6 C        2.921    -0.037    28.920     8.819
    27   6 C        2.920    -0.027    28.667     8.780
    28   6 C        2.920    -0.029    28.716     8.788
    29   6 C        2.920    -0.027    28.669     8.780
    30   6 C        2.921    -0.037    28.921     8.819
    31   6 C        2.925     0.060    26.646     8.465
    32   6 C        2.924    -0.057    29.411     8.894
    33   6 C        2.919    -0.031    28.782     8.798
    34   6 C        2.917    -0.044    29.086     8.844
    35   6 C        2.925    -0.037    28.920     8.819
    36   6 C        2.982    -0.013    28.338     8.732
    37   1 H        0.926     0.048     2.348     2.396
    38   1 H        0.926     0.054     2.271     2.357
    39   1 H        0.926     0.040     2.446     2.446
    40   1 H        0.926     0.040     2.445     2.445
    41   1 H        0.926     0.048     2.348     2.396
    42   1 H        0.926     0.054     2.271     2.357
    43   1 H        0.926     0.026     2.643     2.542
    44   1 H        0.926     0.031     2.573     2.509
    45   1 H        0.926     0.034     2.524     2.485
    46   1 H        0.926     0.033     2.543     2.494
    47   1 H        0.926     0.041     2.432     2.439
    48   1 H        0.926     0.044     2.393     2.419
    49   1 H        0.926     0.044     2.395     2.420
    50   1 H        0.926     0.044     2.392     2.418
    51   1 H        0.926     0.042     2.424     2.435
    52   1 H        0.926     0.033     2.543     2.494
    53   1 H        0.926     0.034     2.524     2.485
    54   1 H        0.926     0.031     2.573     2.508
    55   1 H        0.926     0.026     2.642     2.542

molecular dipole:
                 x           y           z       tot (Debye)
 q only:        0.648       0.008      -0.001
   full:        0.467      -0.001      -0.001       1.188

 projected vibrational frequencies (cm⁻¹)
eigval :       -0.00    -0.00     0.00     0.00     0.00     0.00
eigval :        8.18    18.16    30.07    34.54    40.38    44.85
eigval :       60.42    67.22    77.20    82.61   110.13   124.22
eigval :      153.04   157.80   157.89   172.90   198.24   231.58
eigval :      244.98   248.84   250.01   261.28   296.53   316.24
eigval :      367.88   371.06   379.28   387.64   399.01   412.51
eigval :      422.08   433.03   435.68   441.85   457.42   475.48
eigval :      482.94   487.91   505.04   509.97   540.94   555.50
eigval :      573.80   591.96   592.33   594.61   606.65   607.64
eigval :      609.25   628.66   645.17   670.07   675.04   675.15
eigval :      689.49   704.05   730.97   733.20   749.31   764.88
eigval :      778.79   785.40   821.16   836.27   856.37   867.19
eigval :      867.38   873.04   876.62   880.23   896.03   906.17
eigval :      910.39   910.60   910.72   911.28   914.25   922.68
eigval :      923.37   930.27   933.97   948.56   956.72   976.67
eigval :      995.77  1006.08  1078.47  1087.07  1105.60  1106.72
eigval :     1115.07  1125.31  1137.53  1143.73  1155.63  1157.18
eigval :     1179.80  1181.39  1182.24  1184.88  1189.39  1205.09
eigval :     1217.52  1230.84  1231.50  1249.94  1255.70  1264.41
eigval :     1270.34  1274.11  1290.47  1307.30  1316.61  1322.29
eigval :     1323.85  1333.62  1339.92  1355.75  1410.18  1425.41
eigval :     1430.54  1432.70  1436.39  1436.39  1457.37  1468.64
eigval :     1477.98  1493.28  1558.20  1570.83  1571.51  1582.26
eigval :     1583.14  1587.28  1588.19  1591.91  1592.20  1601.75
eigval :     2358.31  2361.09  3074.89  3075.13  3078.30  3079.04
eigval :     3079.19  3079.82  3085.66  3086.30  3087.04  3088.21
eigval :     3090.28  3090.56  3093.78  3093.99  3097.91  3097.94
eigval :     3100.05  3102.41  3103.18

   temp. (K)  partition function   enthalpy   heat capacity  entropy
                                   cal/mol     cal/K/mol   cal/K/mol   J/K/mol
 298.15  VIB  0.226E+13            15991.727    101.391     99.250
         ROT  0.257E+08              888.752      2.981     36.887
         INT  0.581E+20            16880.479    104.372    136.137
         TR   0.947E+28             1481.254      4.968     44.231
         TOT                       18361.7331   109.3402   180.3677   754.6584

       T/K    H(0)-H(T)+PV         H(T)/Eh          T*S/Eh         G(T)/Eh
   ------------------------------------------------------------------------
    298.15    0.292613E-01    0.437758E+00    0.856985E-01    0.352059E+00
   ------------------------------------------------------------------------

         :::::::::::::::::::::::::::::::::::::::::::::::::::::
         ::                  THERMODYNAMIC                  ::
         :::::::::::::::::::::::::::::::::::::::::::::::::::::
         :: total free energy         -88.772293064806 Eh   ::
         ::.................................................::
         :: total energy              -89.124352170787 Eh   ::
         :: zero point energy           0.408496331863 Eh   ::
         :: G(RRHO) w/o ZPVE           -0.056437225882 Eh   ::
         :: G(RRHO) contrib.            0.352059105980 Eh   ::
         :::::::::::::::::::::::::::::::::::::::::::::::::::::

           -------------------------------------------------
          | TOTAL ENERGY              -89.124352170787 Eh   |
          | TOTAL ENTHALPY            -88.686594554710 Eh   |
          | TOTAL FREE ENERGY         -88.772293064806 Eh   |
          | GRADIENT NORM               0.000066444939 Eh/α |
          | HOMO-LUMO GAP               1.528146633843 eV   |
           -------------------------------------------------

 * finished run on 2025/07/17 at 05:10:35.032
