   * xtb version 6.7.1 (edcfbbe) compiled by 'albert@albert-system' on 2024-07-22

   ID    Z sym.   atoms
    1    7 N      1, 14, 24
    2    6 C      2-13, 15-23, 25-36
    3    1 H      37-55

          program call               : xtb data2507/toluene/ACRFLCN/ACRFLCN.xyz --gfn 2 --gbsa toluene --ohess vtight --parallel 40 --molden --ceasefiles --namespace data2507/toluene/ACRFLCN/ACRFLCN_toluene_S0_preOpt
      * Solvation model:               GBSA
        Solvent                        toluene
        Solvent mass                       9.2140E+01 g/mol
          :  Hamiltonian                  GFN2-xTB          :
 * total energy  :   -89.1072945 Eh     change       -0.1158497E-08 Eh
 * total energy  :   -89.1205163 Eh     change       -0.1322178E-01 Eh
 * total energy  :   -89.1239705 Eh     change       -0.3454188E-02 Eh
 * total energy  :   -89.1242348 Eh     change       -0.2642604E-03 Eh
 * total energy  :   -89.1243169 Eh     change       -0.8219609E-04 Eh
 * total energy  :   -89.1243303 Eh     change       -0.1331305E-04 Eh
 * total energy  :   -89.1242920 Eh     change        0.3828468E-04 Eh
 * total energy  :   -89.1243349 Eh     change       -0.4288911E-04 Eh
 * total energy  :   -89.1243409 Eh     change       -0.6033192E-05 Eh
 * total energy  :   -89.1243426 Eh     change       -0.1653449E-05 Eh
 * total energy  :   -89.1243344 Eh     change        0.8137408E-05 Eh
 * total energy  :   -89.1243437 Eh     change       -0.9293022E-05 Eh
 * total energy  :   -89.1243426 Eh     change        0.1150023E-05 Eh
 * total energy  :   -89.1243439 Eh     change       -0.1363991E-05 Eh
 * total energy  :   -89.1243440 Eh     change       -0.1199061E-06 Eh
 * total energy  :   -89.1243440 Eh     change       -0.1807337E-09 Eh
 * total energy  :   -89.1243441 Eh     change       -0.8599176E-07 Eh
   *** GEOMETRY OPTIMIZATION CONVERGED AFTER 17 ITERATIONS ***

 final structure:
================
55
 xtb: 6.7.1 (edcfbbe)
N           -2.22172719420485       -5.93522846993499        0.00006737396682
C           -2.44588351825616       -4.80911758476184        0.00014987861284
C           -2.72120746531344       -3.42470111889541        0.00009480754292
C           -4.04960824433778       -2.98601883094513        0.00004220347270
C           -4.34040149579785       -1.63486057025741        0.00001399102088
C           -3.29103513159094       -0.72630416623595        0.00004436311858
C           -1.95784765741888       -1.17089239889714        0.00004496494255
C           -1.65899300455991       -2.51224837977144        0.00008074797539
C           -0.99540977422392       -0.00000036445842        0.00001401928500
C           -1.95783926267329        1.17089833858857        0.00000470575510
C           -1.65897480830900        2.51225225774543       -0.00003308401384
C           -2.72118155522702        3.42471137846101       -0.00008417752820
C           -2.44584076542184        4.80913497270382       -0.00023043811606
N           -2.22166659196802        5.93526218765124       -0.00050577510916
C           -4.04958523201452        2.98604272483181       -0.00006062514133
C           -4.34038919475499        1.63488628592427        0.00002340516905
C           -3.29102981819731        0.72632198583889        0.00003584173740
C           -0.15585848777361        0.00000693356973        1.25805995123379
C           -0.79986937632009        0.00000231722103        2.48686867288330
C           -0.08756934449290       -0.00002361344193        3.67159727514723
C            1.29681746344110       -0.00003563206339        3.62623484163310
C            1.95378102136746       -0.00002409119207        2.41322618403503
C            1.24108263654075       -0.00000779149657        1.20977755020507
N            1.91326077180214       -0.00001501589216        0.00000806941722
C            3.34076013691536       -0.00000996213069        0.00000764356236
C            4.03356899842444       -1.20407327181339       -0.00002206390740
C            5.41777180696249       -1.20016397937795       -0.00001609100715
C            6.10977282744594        0.00000150721902        0.00001883186188
C            5.41776193800418        1.20016129922931        0.00004210800366
C            4.03355915294263        1.20405903807705        0.00003675265050
C            1.24108036984696       -0.00001523315608       -1.20976014762694
C            1.95378014847130       -0.00000734589466       -2.41320869454874
C            1.29681726931481        0.00001298873254       -3.62621747129723
C           -0.08756941358968        0.00001774071424       -3.67157701131108
C           -0.79987047328576       -0.00000212413430       -2.48684821675733
C           -0.15586247366998       -0.00001536699961       -1.25803706651674
H           -4.84499664403745       -3.71683787866859        0.00002198341366
H           -5.36567662733836       -1.29854061164581       -0.00003952759953
H           -0.63795950969655       -2.86432411671576        0.00010100839450
H           -0.63793845942679        2.86431926610096       -0.00005263699406
H           -4.84496776296398        3.71686812141583       -0.00013278673944
H           -5.36566700169518        1.29857452778808        0.00007460258743
H           -1.88050303462985        0.00001421972697        2.51085346619027
H           -0.60683348846137       -0.00004257646192        4.61763825208923
H            1.87106136884957       -0.00005918885828        4.54086235491921
H            3.03248172063340       -0.00003364333418        2.39033318661199
H            3.48461153250658       -2.13448158890162       -0.00005013914543
H            5.95574241853089       -2.13644094801187       -0.00004018641315
H            7.18952572375154        0.00000595708377        0.00002871499159
H            5.95572476413195        2.13644272485128        0.00006933958784
H            3.48459409226981        2.13446285976701        0.00005547575538
H            3.03248134314956       -0.00001049219345       -2.39031881288309
H            1.87106030395850        0.00002970856642       -4.54084611941255
H           -0.60683249303254        0.00004490149342       -4.61761816907318
H           -1.88050350457744        0.00000111324033       -2.51083432663189

          :  Hamiltonian                  GFN2-xTB          :
         :: gradient norm              0.000059155033 Eh/a0 ::
         :: HOMO-LUMO gap              1.528182515918 eV    ::
         :: SCC energy               -90.874187115343 Eh    ::
         :: -> dispersion             -0.082303607368 Eh    ::
         :: -> Gsolv                  -0.042565114464 Eh    ::
         :: repulsion energy           1.749842984867 Eh    ::

    * Orbital Energies and Occupations

         #    Occupation            Energy/Eh            Energy/eV
      -------------------------------------------------------------
         1        2.0000           -0.6829918             -18.5852
       ...           ...                  ...                  ...
        71        2.0000           -0.4339781             -11.8091
        72        2.0000           -0.4332550             -11.7895
        73        2.0000           -0.4305712             -11.7164
        74        2.0000           -0.4298592             -11.6971
        75        2.0000           -0.4200098             -11.4290
        76        2.0000           -0.4186106             -11.3910
        77        2.0000           -0.4181241             -11.3777
        78        2.0000           -0.4125397             -11.2258
        79        2.0000           -0.4118806             -11.2078
        80        2.0000           -0.4110129             -11.1842
        81        2.0000           -0.4016569             -10.9296
        82        2.0000           -0.4013844             -10.9222
        83        2.0000           -0.3554287              -9.6717 (HOMO)
        84                         -0.2992690              -8.1435 (LUMO)
        85                         -0.2615971              -7.1184
        86                         -0.2489713              -6.7749
        87                         -0.2469533              -6.7199
        88                         -0.2384579              -6.4888
        89                         -0.2369489              -6.4477
        90                         -0.2314767              -6.2988
        91                         -0.2308032              -6.2805
        92                         -0.2269663              -6.1761
        93                         -0.2167942              -5.8993
        94                         -0.2155663              -5.8659
       ...                                ...                  ...
       163                          1.1554701              31.4419
      -------------------------------------------------------------
                  HL-Gap            0.0561597 Eh            1.5282 eV

     #   Z          covCN         q      C6AA      α(0)
     1   7 N        0.911    -0.270    26.983     7.513
     2   6 C        1.913     0.119    28.165     8.571
     3   6 C        2.976     0.016    27.644     8.624
     4   6 C        2.928    -0.021    28.521     8.758
     5   6 C        2.913    -0.027    28.687     8.783
     6   6 C        3.033     0.012    27.708     8.634
     7   6 C        3.058     0.011    27.719     8.634
     8   6 C        2.921    -0.021    28.531     8.759
     9   6 C        3.948     0.015    20.261     6.396
    10   6 C        3.058     0.011    27.719     8.634
    11   6 C        2.921    -0.021    28.531     8.759
    12   6 C        2.976     0.016    27.643     8.624
    13   6 C        1.913     0.119    28.165     8.571
    14   7 N        0.911    -0.270    26.983     7.513
    15   6 C        2.928    -0.021    28.521     8.758
    16   6 C        2.913    -0.027    28.687     8.783
    17   6 C        3.033     0.012    27.708     8.634
    18   6 C        2.982    -0.013    28.338     8.732
    19   6 C        2.925    -0.037    28.919     8.819
    20   6 C        2.917    -0.044    29.086     8.844
    21   6 C        2.919    -0.031    28.782     8.798
    22   6 C        2.924    -0.057    29.411     8.894
    23   6 C        2.925     0.060    26.646     8.465
    24   7 N        2.753    -0.069    22.578     7.057
    25   6 C        2.927     0.066    26.529     8.447
    26   6 C        2.921    -0.037    28.921     8.819
    27   6 C        2.920    -0.027    28.668     8.780
    28   6 C        2.920    -0.029    28.716     8.788
    29   6 C        2.920    -0.027    28.668     8.780
    30   6 C        2.921    -0.037    28.921     8.819
    31   6 C        2.925     0.060    26.646     8.465
    32   6 C        2.924    -0.057    29.411     8.894
    33   6 C        2.919    -0.031    28.782     8.798
    34   6 C        2.917    -0.044    29.086     8.844
    35   6 C        2.925    -0.037    28.919     8.819
    36   6 C        2.982    -0.013    28.338     8.732
    37   1 H        0.926     0.048     2.348     2.396
    38   1 H        0.926     0.054     2.271     2.357
    39   1 H        0.926     0.040     2.446     2.446
    40   1 H        0.926     0.040     2.446     2.446
    41   1 H        0.926     0.048     2.348     2.396
    42   1 H        0.926     0.054     2.271     2.357
    43   1 H        0.926     0.026     2.643     2.542
    44   1 H        0.926     0.031     2.573     2.508
    45   1 H        0.926     0.034     2.524     2.485
    46   1 H        0.926     0.033     2.543     2.494
    47   1 H        0.926     0.042     2.428     2.437
    48   1 H        0.926     0.044     2.392     2.419
    49   1 H        0.926     0.044     2.395     2.420
    50   1 H        0.926     0.044     2.392     2.419
    51   1 H        0.926     0.042     2.428     2.437
    52   1 H        0.926     0.033     2.543     2.494
    53   1 H        0.926     0.034     2.524     2.485
    54   1 H        0.926     0.031     2.573     2.508
    55   1 H        0.926     0.026     2.643     2.542

molecular dipole:
                 x           y           z       tot (Debye)
 q only:        0.647      -0.000       0.000
   full:        0.466      -0.000       0.000       1.184

 projected vibrational frequencies (cm⁻¹)
eigval :       -0.00    -0.00    -0.00     0.00     0.00     0.00
eigval :        8.11    14.60    30.54    33.21    40.44    43.71
eigval :       60.90    67.47    77.80    83.27   109.44   124.33
eigval :      154.65   155.70   158.13   172.19   198.40   231.25
eigval :      246.12   248.77   249.78   260.62   295.96   315.81
eigval :      367.40   370.67   379.40   386.65   398.87   412.62
eigval :      422.03   432.88   435.46   442.54   457.51   475.20
eigval :      483.80   487.74   504.75   509.57   542.04   555.93
eigval :      574.59   591.52   592.31   594.68   607.10   607.62
eigval :      609.51   628.82   645.36   670.49   674.70   674.71
eigval :      689.59   704.43   731.17   733.14   749.43   766.03
eigval :      778.71   785.24   822.10   837.05   856.34   868.01
eigval :      868.07   875.97   877.26   878.24   896.40   906.50
eigval :      910.41   911.65   911.65   912.31   914.63   921.98
eigval :      922.24   931.71   935.62   948.58   957.13   977.12
eigval :      995.23  1006.81  1078.05  1086.87  1105.54  1106.63
eigval :     1114.24  1125.33  1138.63  1143.16  1155.69  1157.11
eigval :     1177.79  1181.17  1182.24  1184.40  1189.85  1205.72
eigval :     1218.91  1230.76  1231.76  1249.56  1254.79  1264.09
eigval :     1270.35  1273.26  1290.22  1307.28  1316.50  1322.31
eigval :     1323.81  1333.61  1339.90  1356.00  1410.00  1425.27
eigval :     1430.46  1432.78  1436.29  1436.29  1457.34  1468.64
eigval :     1477.97  1493.29  1558.05  1570.80  1571.45  1582.28
eigval :     1583.08  1587.35  1588.22  1591.93  1592.19  1601.74
eigval :     2358.45  2361.21  3075.09  3075.32  3077.60  3078.37
eigval :     3079.05  3079.06  3084.74  3086.68  3087.43  3089.15
eigval :     3089.59  3089.99  3093.78  3093.99  3097.58  3098.04
eigval :     3100.03  3102.34  3103.10

   temp. (K)  partition function   enthalpy   heat capacity  entropy
                                   cal/mol     cal/K/mol   cal/K/mol   J/K/mol
 298.15  VIB  0.290E+13            15997.648    101.343     99.445
         ROT  0.128E+08              888.752      2.981     35.509
         INT  0.372E+20            16886.400    104.324    134.954
         TR   0.947E+28             1481.254      4.968     44.231
         TOT                       18367.6541   109.2919   179.1848   749.7093

       T/K    H(0)-H(T)+PV         H(T)/Eh          T*S/Eh         G(T)/Eh
   ------------------------------------------------------------------------
    298.15    0.292707E-01    0.437769E+00    0.851365E-01    0.352632E+00
   ------------------------------------------------------------------------

         :::::::::::::::::::::::::::::::::::::::::::::::::::::
         ::                  THERMODYNAMIC                  ::
         :::::::::::::::::::::::::::::::::::::::::::::::::::::
         :: total free energy         -88.771711758128 Eh   ::
         ::.................................................::
         :: total energy              -89.124344130483 Eh   ::
         :: zero point energy           0.408498143654 Eh   ::
         :: G(RRHO) w/o ZPVE           -0.055865771299 Eh   ::
         :: G(RRHO) contrib.            0.352632372355 Eh   ::
         :::::::::::::::::::::::::::::::::::::::::::::::::::::

           -------------------------------------------------
          | TOTAL ENERGY              -89.124344130483 Eh   |
          | TOTAL ENTHALPY            -88.686575266886 Eh   |
          | TOTAL FREE ENERGY         -88.771711758128 Eh   |
          | GRADIENT NORM               0.000059364741 Eh/α |
          | HOMO-LUMO GAP               1.528182631028 eV   |
           -------------------------------------------------

 * finished run on 2025/07/17 at 05:08:22.024
