   * xtb version 6.7.1 (edcfbbe) compiled by 'albert@albert-system' on 2024-07-22

   ID    Z sym.   atoms
    1    7 N      1, 14, 24
    2    6 C      2-13, 15-23, 25-36
    3    1 H      37-55

          program call               : xtb data2507/toluene/ACRFLCN/ACRFLCN_toluene_T1_crest.xyz --gfn 2 --uhf 2 --gbsa toluene --ohess vtight --parallel 40 --molden --ceasefiles --namespace data2507/toluene/ACRFLCN/ACRFLCN_toluene_T1_finalOpt
      * Solvation model:               GBSA
        Solvent                        toluene
        Solvent mass                       9.2140E+01 g/mol
          :  Hamiltonian                  GFN2-xTB          :
 * total energy  :   -89.0434256 Eh     change       -0.3317339E-08 Eh
 * total energy  :   -89.0435091 Eh     change       -0.8351567E-04 Eh
 * total energy  :   -89.0435308 Eh     change       -0.2170586E-04 Eh
 * total energy  :   -89.0435358 Eh     change       -0.4991075E-05 Eh
 * total energy  :   -89.0435314 Eh     change        0.4479620E-05 Eh
 * total energy  :   -89.0435424 Eh     change       -0.1107163E-04 Eh
 * total energy  :   -89.0435450 Eh     change       -0.2572420E-05 Eh
 * total energy  :   -89.0435481 Eh     change       -0.3092782E-05 Eh
 * total energy  :   -89.0435499 Eh     change       -0.1817045E-05 Eh
 * total energy  :   -89.0435511 Eh     change       -0.1181285E-05 Eh
 * total energy  :   -89.0435590 Eh     change       -0.1275583E-06 Eh
 * total energy  :   -89.0435591 Eh     change       -0.1734132E-06 Eh
 * total energy  :   -89.0435593 Eh     change       -0.1831818E-06 Eh
 * total energy  :   -89.0435593 Eh     change        0.6378542E-09 Eh
 * total energy  :   -89.0435593 Eh     change        0.3891785E-08 Eh
 * total energy  :   -89.0435593 Eh     change        0.1499856E-08 Eh
 * total energy  :   -89.0435593 Eh     change        0.3732772E-07 Eh
 * total energy  :   -89.0435594 Eh     change       -0.1463936E-06 Eh
 * total energy  :   -89.0435595 Eh     change       -0.6008513E-07 Eh
   *** GEOMETRY OPTIMIZATION CONVERGED AFTER 49 ITERATIONS ***

 final structure:
================
55
 xtb: 6.7.1 (edcfbbe)
N           -2.47480681788107       -5.79610743151126       -0.00183186364611
C           -2.61248358751213       -4.64659524759652        0.00095134884013
C           -2.77248325715788       -3.26638466291433        0.00369045038241
C           -4.07327461469830       -2.69622922659593        0.00791632720727
C           -4.25470985450060       -1.34446564654825        0.01020372282738
C           -3.12498786906634       -0.49068174922257        0.00810932468048
C           -1.81790132157608       -1.07638252850709        0.00425829640905
C           -1.62982764694080       -2.41964452041579        0.00200595685211
C           -0.75286661485348        0.01577177009200        0.00285812253090
C           -1.62305479824782        1.27011238748296        0.00428923282274
C           -1.21543880416666        2.56366765835266        0.00228266953541
C           -2.20211296709604        3.58798709574048        0.00461142904733
C           -1.81503184155504        4.92243609910878        0.00197672501409
N           -1.48643903103816        6.03258898904082       -0.00020646835047
C           -3.57926654039837        3.24043901952906        0.00941615583975
C           -3.98141326788274        1.93722698179317        0.01126236786011
C           -3.00858690804338        0.90810599729412        0.00833641743717
C            0.07280354106247       -0.04730310584541        1.25363933854333
C           -0.56418800278768       -0.02467765466383        2.48677692949791
C            0.15649789813296       -0.07390823846116        3.66482305242848
C            1.54489702472636       -0.14693360909483        3.61969315610980
C            2.19910333132690       -0.16944899778141        2.40961365451818
C            1.47637318917472       -0.12038621929474        1.20662916697062
N            2.13770719325393       -0.14495998644267       -0.00016223607099
C            3.56659770072402       -0.19045764585290       -0.00141954000166
C            4.22002088261958       -1.41637094436164       -0.00760586462384
C            5.60395553845921       -1.45016474811302       -0.00828341825477
C            6.32993123637578       -0.26998495250272       -0.00276086294644
C            5.67321077911457        0.95000459400449        0.00329005895365
C            4.28971279115725        0.99560575609387        0.00397625908641
C            1.47385408436607       -0.12005354023758       -1.20554526213952
C            2.19409189740989       -0.16775611622863       -2.41007057658701
C            1.53728300626348       -0.14549884066342       -3.61874920587451
C            0.14872652729361       -0.07366131757459       -3.66091235484529
C           -0.56947371109433       -0.02484916379351       -2.48133340956401
C            0.07015781614351       -0.04731840113732       -1.24956545739921
H           -4.92209655794255       -3.36593388079846        0.00927555887258
H           -5.24763957189519       -0.92079834053625        0.01340418253568
H           -0.64504074314854       -2.86514806223828       -0.00119687455439
H           -0.17054331614368        2.83982283121137       -0.00104924511314
H           -4.30590393670049        4.04105973379710        0.01143809414303
H           -5.03070270010753        1.68328350810043        0.01477903912246
H           -1.64200557486605        0.03293786459969        2.51299536929662
H           -0.35732487902767       -0.05570809519069        4.61318524826863
H            2.11460503164849       -0.18569760134487        4.53519292860055
H            3.27543726821408       -0.22560714123289        2.38187102896501
H            3.64426245055052       -2.32981225406812       -0.01177273970079
H            6.11358447631519       -2.40151247726687       -0.01292945851536
H            7.40871380505572       -0.30079487821590       -0.00305231113183
H            6.23642427343502        1.87062573678414        0.00753999292818
H            3.76721537551452        1.94054202987803        0.00860572944255
H            3.27055338668329       -0.22255382657615       -2.38459463765454
H            2.10506501368890       -0.18342947739895       -4.53547941922730
H           -0.36713882722676       -0.05577263690396       -4.60816933152639
H           -1.64737140015534        0.03236591843079       -2.50521438374225

          :  Hamiltonian                  GFN2-xTB          :
         :: gradient norm              0.000049573574 Eh/a0 ::
         :: HOMO-LUMO gap              0.830445718225 eV    ::
         :: SCC energy               -90.774710847212 Eh    ::
         :: -> dispersion             -0.081997503483 Eh    ::
         :: -> Gsolv                  -0.052376417240 Eh    ::
         :: repulsion energy           1.731151363195 Eh    ::

    * Orbital Energies and Occupations

         #    Occupation            Energy/Eh            Energy/eV
      -------------------------------------------------------------
         1        2.0000           -0.7049629             -19.1830
       ...           ...                  ...                  ...
        72        2.0000           -0.4318965             -11.7525
        73        2.0000           -0.4296591             -11.6916
        74        2.0000           -0.4272110             -11.6250
        75        2.0000           -0.4256313             -11.5820
        76        2.0000           -0.4207590             -11.4494
        77        2.0000           -0.4151712             -11.2974
        78        2.0000           -0.4140041             -11.2656
        79        2.0000           -0.4114520             -11.1962
        80        2.0000           -0.4103569             -11.1664
        81        2.0000           -0.4093989             -11.1403
        82        1.6335           -0.3791158             -10.3163
        83        1.3665           -0.3780759             -10.2880
        84        1.0000           -0.2895804              -7.8799 (HOMO)
        85        0.0000           -0.2590615              -7.0494 (LUMO)
        86                         -0.2517179              -6.8496
        87                         -0.2492092              -6.7813
        88                         -0.2484611              -6.7610
        89                         -0.2460217              -6.6946
        90                         -0.2429072              -6.6098
        91                         -0.2301719              -6.2633
        92                         -0.2228770              -6.0648
        93                         -0.2218811              -6.0377
        94                         -0.1970552              -5.3621
        95                         -0.1958801              -5.3302
       ...                                ...                  ...
       163                          1.1617217              31.6121
      -------------------------------------------------------------
                  HL-Gap            0.0305189 Eh            0.8305 eV

     #   Z          covCN         q      C6AA      α(0)
     1   7 N        0.911    -0.334    28.595     7.734
     2   6 C        1.911     0.104    28.535     8.627
     3   6 C        2.971    -0.010    28.270     8.721
     4   6 C        2.920    -0.028    28.698     8.785
     5   6 C        2.907    -0.039    28.960     8.824
     6   6 C        3.025    -0.006    28.137     8.701
     7   6 C        3.048    -0.000    27.986     8.676
     8   6 C        2.914    -0.034    28.835     8.806
     9   6 C        3.942     0.016    20.233     6.392
    10   6 C        3.049     0.000    27.980     8.675
    11   6 C        2.914    -0.034    28.840     8.806
    12   6 C        2.971    -0.010    28.274     8.722
    13   6 C        1.911     0.103    28.537     8.627
    14   7 N        0.911    -0.334    28.597     7.734
    15   6 C        2.920    -0.028    28.700     8.785
    16   6 C        2.907    -0.039    28.958     8.824
    17   6 C        3.025    -0.006    28.138     8.701
    18   6 C        2.982     0.007    27.847     8.656
    19   6 C        2.922    -0.028    28.694     8.784
    20   6 C        2.917    -0.023    28.575     8.766
    21   6 C        2.917    -0.022    28.561     8.764
    22   6 C        2.920    -0.044    29.094     8.845
    23   6 C        2.928     0.062    26.613     8.460
    24   7 N        2.754     0.001    21.244     6.845
    25   6 C        2.931     0.056    26.742     8.481
    26   6 C        2.920    -0.033    28.826     8.804
    27   6 C        2.920    -0.022    28.555     8.763
    28   6 C        2.919    -0.023    28.590     8.768
    29   6 C        2.920    -0.022    28.552     8.762
    30   6 C        2.920    -0.033    28.820     8.803
    31   6 C        2.928     0.062    26.613     8.460
    32   6 C        2.920    -0.044    29.094     8.845
    33   6 C        2.917    -0.022    28.561     8.764
    34   6 C        2.917    -0.023    28.575     8.766
    35   6 C        2.922    -0.028    28.694     8.784
    36   6 C        2.981     0.007    27.848     8.656
    37   1 H        0.926     0.025     2.660     2.551
    38   1 H        0.926     0.032     2.558     2.501
    39   1 H        0.926     0.021     2.725     2.581
    40   1 H        0.926     0.020     2.730     2.584
    41   1 H        0.926     0.025     2.659     2.550
    42   1 H        0.926     0.032     2.556     2.500
    43   1 H        0.926     0.047     2.362     2.403
    44   1 H        0.926     0.054     2.276     2.359
    45   1 H        0.926     0.057     2.232     2.336
    46   1 H        0.926     0.057     2.234     2.337
    47   1 H        0.926     0.051     2.304     2.374
    48   1 H        0.926     0.055     2.255     2.348
    49   1 H        0.926     0.054     2.275     2.358
    50   1 H        0.926     0.055     2.258     2.350
    51   1 H        0.926     0.050     2.318     2.381
    52   1 H        0.926     0.057     2.234     2.337
    53   1 H        0.926     0.057     2.232     2.336
    54   1 H        0.926     0.053     2.277     2.359
    55   1 H        0.926     0.047     2.363     2.404

molecular dipole:
                 x           y           z       tot (Debye)
 q only:        4.423      -0.277       0.001
   full:        4.124      -0.251       0.003      10.501

 projected vibrational frequencies (cm⁻¹)
eigval :       -0.00    -0.00    -0.00    -0.00     0.00     0.00
eigval :        5.12    17.47    28.96    34.29    42.03    48.30
eigval :       67.69    68.97    77.94    78.00   109.52   125.23
eigval :      138.56   154.31   156.62   176.64   198.15   220.12
eigval :      239.42   243.16   247.57   258.09   288.92   312.08
eigval :      333.82   367.80   381.61   389.55   396.57   402.66
eigval :      406.08   415.74   421.17   432.13   442.10   446.74
eigval :      474.44   484.69   489.92   518.19   529.69   542.43
eigval :      555.40   573.62   589.34   591.99   592.99   597.23
eigval :      598.17   608.64   642.94   652.63   670.89   674.73
eigval :      677.12   699.48   702.17   721.13   745.08   764.05
eigval :      773.23   775.22   784.69   800.81   828.29   842.04
eigval :      854.31   868.44   869.37   873.88   891.67   896.92
eigval :      899.11   904.50   906.46   917.35   917.89   925.76
eigval :      926.04   929.65   933.94   934.95   936.44   948.57
eigval :      978.42   992.30  1066.69  1076.06  1095.54  1096.12
eigval :     1107.39  1112.49  1125.11  1137.38  1150.18  1152.07
eigval :     1176.59  1176.90  1177.67  1181.98  1189.38  1195.21
eigval :     1205.56  1217.73  1228.30  1246.60  1250.61  1252.91
eigval :     1269.40  1273.25  1295.32  1303.76  1305.20  1307.61
eigval :     1314.49  1333.65  1337.70  1343.15  1376.42  1382.26
eigval :     1404.63  1415.99  1426.30  1427.30  1442.83  1454.98
eigval :     1462.74  1476.11  1478.06  1524.39  1535.46  1550.02
eigval :     1556.88  1570.01  1579.12  1580.77  1586.29  1614.50
eigval :     2241.96  2281.81  3069.33  3069.87  3072.35  3074.46
eigval :     3085.32  3086.58  3087.47  3087.88  3092.32  3092.39
eigval :     3093.02  3095.91  3096.03  3098.08  3104.96  3105.55
eigval :     3105.72  3112.75  3113.13

   temp. (K)  partition function   enthalpy   heat capacity  entropy
                                   cal/mol     cal/K/mol   cal/K/mol   J/K/mol
 298.15  VIB  0.463E+13            16255.303    103.101    101.311
         ROT  0.257E+08              888.752      2.981     36.887
         INT  0.119E+21            17144.055    106.082    138.198
         TR   0.947E+28             1481.254      4.968     44.231
         TOT                       18625.3088   111.0501   182.4287   763.2815

       T/K    H(0)-H(T)+PV         H(T)/Eh          T*S/Eh         G(T)/Eh
   ------------------------------------------------------------------------
    298.15    0.296813E-01    0.434726E+00    0.866777E-01    0.348049E+00
   ------------------------------------------------------------------------

         :::::::::::::::::::::::::::::::::::::::::::::::::::::
         ::                  THERMODYNAMIC                  ::
         :::::::::::::::::::::::::::::::::::::::::::::::::::::
         :: total free energy         -88.695510787324 Eh   ::
         ::.................................................::
         :: total energy              -89.043559489915 Eh   ::
         :: zero point energy           0.405045123919 Eh   ::
         :: G(RRHO) w/o ZPVE           -0.056996421328 Eh   ::
         :: G(RRHO) contrib.            0.348048702591 Eh   ::
         :::::::::::::::::::::::::::::::::::::::::::::::::::::

           -------------------------------------------------
          | TOTAL ENERGY              -89.043559489915 Eh   |
          | TOTAL ENTHALPY            -88.608833047109 Eh   |
          | TOTAL FREE ENERGY         -88.695510787324 Eh   |
          | GRADIENT NORM               0.000050846411 Eh/α |
          | HOMO-LUMO GAP               0.830461177992 eV   |
           -------------------------------------------------

 * finished run on 2025/07/17 at 05:13:24.570
