   * xtb version 6.7.1 (edcfbbe) compiled by 'albert@albert-system' on 2024-07-22

   ID    Z sym.   atoms
    1    7 N      1, 14, 24
    2    6 C      2-13, 15-23, 25-36
    3    1 H      37-55

          program call               : xtb data2507/toluene/ACRFLCN/ACRFLCN_toluene_S0_finalOpt.xtbopt.xyz --gfn 2 --uhf 2 --gbsa toluene --ohess vtight --parallel 40 --molden --ceasefiles --namespace data2507/toluene/ACRFLCN/ACRFLCN_toluene_T1_preOpt
      * Solvation model:               GBSA
        Solvent                        toluene
        Solvent mass                       9.2140E+01 g/mol
          :  Hamiltonian                  GFN2-xTB          :
 * total energy  :   -89.0365805 Eh     change       -0.3966775E-08 Eh
 * total energy  :   -89.0421593 Eh     change       -0.5578776E-02 Eh
 * total energy  :   -89.0434854 Eh     change       -0.1326104E-02 Eh
 * total energy  :   -89.0435204 Eh     change       -0.3507595E-04 Eh
 * total energy  :   -89.0435079 Eh     change        0.1256368E-04 Eh
 * total energy  :   -89.0435300 Eh     change       -0.2211250E-04 Eh
 * total energy  :   -89.0435304 Eh     change       -0.4311935E-06 Eh
 * total energy  :   -89.0435303 Eh     change        0.1110566E-06 Eh
 * total energy  :   -89.0435308 Eh     change       -0.4979268E-06 Eh
 * total energy  :   -89.0435311 Eh     change       -0.3056421E-06 Eh
 * total energy  :   -89.0435309 Eh     change        0.2181428E-06 Eh
 * total energy  :   -89.0435312 Eh     change       -0.3183605E-06 Eh
 * total energy  :   -89.0435311 Eh     change        0.9475471E-07 Eh
 * total energy  :   -89.0435313 Eh     change       -0.1459211E-06 Eh
 * total energy  :   -89.0435312 Eh     change        0.6472212E-07 Eh
 * total energy  :   -89.0435311 Eh     change        0.4853959E-07 Eh
 * total energy  :   -89.0435313 Eh     change       -0.1754096E-06 Eh
 * total energy  :   -89.0435313 Eh     change        0.2336688E-07 Eh
 * total energy  :   -89.0435313 Eh     change       -0.4298739E-07 Eh
   *** GEOMETRY OPTIMIZATION CONVERGED AFTER 19 ITERATIONS ***

 final structure:
================
55
 xtb: 6.7.1 (edcfbbe)
N           -1.71141325496005       -5.99820213505214       -0.00002392976211
C           -1.99816024666169       -4.87651809161141       -0.00013152595263
C           -2.33469693288423       -3.52847762161053       -0.00023894406458
C           -3.69778697596969       -3.12946957806105       -0.00091835958431
C           -4.05089312527497       -1.81209210597990       -0.00093261527124
C           -3.04000006255956       -0.82041837920199       -0.00025069562933
C           -1.66897732990287       -1.23422356400554        0.00031369997196
C           -1.31001901414594       -2.54214423969437        0.00035818754657
C           -0.75249516917192       -0.01392486113696        0.00075442695336
C           -1.77563365506213        1.11794904221223        0.00079029900936
C           -1.53665163066604        2.45304795523303        0.00117975787312
C           -2.64654787782420        3.34241159205678        0.00077809865468
C           -2.43369329962821        4.71546679177043        0.00109715316755
N           -2.24959294717546        5.85847794221714        0.00141052782736
C           -3.96788380346592        2.82160677948456       -0.00001796301236
C           -4.20029187198312        1.47766736335158       -0.00037884392093
C           -3.10367093042489        0.58176973004055        0.00001823893669
C            0.07318542429516        0.02136119429252        1.25239142255447
C           -0.56543119737065        0.00400095718987        2.48475807493629
C            0.15487111629400        0.03227207095163        3.66370206086566
C            1.54448317281931        0.07842658141842        3.62021615133580
C            2.20025313304013        0.09523228134053        2.41089111360723
C            1.47790705259924        0.06772573179329        1.20697611540719
N            2.14077500016424        0.08568582272307        0.00093198628573
C            3.57020224984716        0.11282593705130        0.00088364938858
C            4.27892401635189       -1.08189994965992       -0.01244122263692
C            5.66287846368825       -1.05313937407083       -0.01265898697431
C            6.33446223245345        0.15868718321021        0.00035403447365
C            5.62287222558199        1.34749539393810        0.01370630262576
C            4.23862418670638        1.33056931255419        0.01400706967108
C            1.47797965827608        0.06971925706191       -1.20517999378902
C            2.20032414863155        0.10182674864343       -2.40898800822434
C            1.54467941356414        0.08626731931236       -3.61839381326321
C            0.15517280932702        0.03724449960941       -3.66207695057645
C           -0.56518301458410        0.00606528403415       -2.48324159767110
C            0.07330797596734        0.02232894979522       -1.25079264768378
H           -4.45400677977220       -3.90220496628669       -0.00140770707924
H           -5.08994372609053       -1.51904297969652       -0.00142997216630
H           -0.27611821764682       -2.85742885294425        0.00085925259719
H           -0.53554707339563        2.86069378877894        0.00172380924087
H           -4.79092220333508        3.52272594332898       -0.00035479866978
H           -5.20853399726129        1.09183039896058       -0.00101662058656
H           -1.64421406216845       -0.03243832042560        2.50958814682391
H           -0.36016379132301        0.01856943074426        4.61148394327109
H            2.11391709040004        0.10056705786445        4.53644227004829
H            3.27752723607984        0.12993875773511        2.38443962780756
H            3.74507638879907       -2.02042188450855       -0.02237542953830
H            6.21488148102165       -1.98047715674762       -0.02295728509520
H            7.41355024341289        0.17650838473875        0.00011266969762
H            6.14399417391716        2.29254274527370        0.02378039572343
H            3.67440445636116        2.25112741698147        0.02418294507938
H            3.27749635540073        0.13933422952836       -2.38238951713625
H            2.11412593636176        0.11181462795230       -4.53452329406985
H           -0.35976262414508        0.02423916429100       -4.60992219980462
H           -1.64391821943246       -0.03158943284131       -2.50822681940554

          :  Hamiltonian                  GFN2-xTB          :
         :: gradient norm              0.000027833420 Eh/a0 ::
         :: HOMO-LUMO gap              0.830226717141 eV    ::
         :: SCC energy               -90.774744666618 Eh    ::
         :: -> dispersion             -0.081999409712 Eh    ::
         :: -> Gsolv                  -0.052347734726 Eh    ::
         :: repulsion energy           1.731213323337 Eh    ::

    * Orbital Energies and Occupations

         #    Occupation            Energy/Eh            Energy/eV
      -------------------------------------------------------------
         1        2.0000           -0.7049683             -19.1832
       ...           ...                  ...                  ...
        72        2.0000           -0.4318940             -11.7524
        73        2.0000           -0.4296577             -11.6916
        74        2.0000           -0.4272149             -11.6251
        75        2.0000           -0.4256343             -11.5821
        76        2.0000           -0.4207525             -11.4493
        77        2.0000           -0.4151683             -11.2973
        78        2.0000           -0.4139971             -11.2654
        79        2.0000           -0.4114463             -11.1960
        80        2.0000           -0.4103468             -11.1661
        81        2.0000           -0.4093944             -11.1402
        82        1.6337           -0.3791163             -10.3163
        83        1.3663           -0.3780750             -10.2879
        84        1.0000           -0.2895721              -7.8797 (HOMO)
        85        0.0000           -0.2590617              -7.0494 (LUMO)
        86                         -0.2517231              -6.8497
        87                         -0.2492103              -6.7814
        88                         -0.2484609              -6.7610
        89                         -0.2460225              -6.6946
        90                         -0.2429044              -6.6098
        91                         -0.2301687              -6.2632
        92                         -0.2228744              -6.0647
        93                         -0.2218699              -6.0374
        94                         -0.1970467              -5.3619
        95                         -0.1958717              -5.3299
       ...                                ...                  ...
       163                          1.1617289              31.6123
      -------------------------------------------------------------
                  HL-Gap            0.0305105 Eh            0.8302 eV

     #   Z          covCN         q      C6AA      α(0)
     1   7 N        0.911    -0.334    28.597     7.734
     2   6 C        1.911     0.103    28.536     8.627
     3   6 C        2.971    -0.010    28.273     8.722
     4   6 C        2.920    -0.028    28.699     8.785
     5   6 C        2.907    -0.039    28.959     8.824
     6   6 C        3.025    -0.006    28.138     8.701
     7   6 C        3.049     0.000    27.982     8.676
     8   6 C        2.914    -0.034    28.839     8.806
     9   6 C        3.943     0.016    20.233     6.392
    10   6 C        3.048    -0.000    27.984     8.676
    11   6 C        2.914    -0.034    28.837     8.806
    12   6 C        2.971    -0.010    28.271     8.722
    13   6 C        1.911     0.104    28.536     8.627
    14   7 N        0.911    -0.334    28.596     7.734
    15   6 C        2.920    -0.028    28.698     8.785
    16   6 C        2.907    -0.039    28.960     8.824
    17   6 C        3.025    -0.006    28.137     8.701
    18   6 C        2.982     0.007    27.847     8.656
    19   6 C        2.922    -0.028    28.694     8.784
    20   6 C        2.917    -0.023    28.575     8.766
    21   6 C        2.917    -0.022    28.561     8.764
    22   6 C        2.920    -0.044    29.094     8.845
    23   6 C        2.928     0.062    26.613     8.460
    24   7 N        2.754     0.001    21.244     6.845
    25   6 C        2.931     0.056    26.742     8.481
    26   6 C        2.920    -0.033    28.821     8.804
    27   6 C        2.920    -0.022    28.552     8.763
    28   6 C        2.919    -0.023    28.590     8.768
    29   6 C        2.920    -0.022    28.554     8.763
    30   6 C        2.920    -0.033    28.824     8.804
    31   6 C        2.928     0.062    26.613     8.460
    32   6 C        2.920    -0.044    29.094     8.845
    33   6 C        2.917    -0.022    28.561     8.764
    34   6 C        2.917    -0.023    28.575     8.766
    35   6 C        2.922    -0.028    28.694     8.784
    36   6 C        2.982     0.007    27.847     8.656
    37   1 H        0.926     0.025     2.660     2.550
    38   1 H        0.926     0.032     2.557     2.500
    39   1 H        0.926     0.020     2.729     2.583
    40   1 H        0.926     0.020     2.726     2.582
    41   1 H        0.926     0.025     2.660     2.550
    42   1 H        0.926     0.032     2.557     2.501
    43   1 H        0.926     0.047     2.362     2.404
    44   1 H        0.926     0.054     2.276     2.359
    45   1 H        0.926     0.057     2.232     2.336
    46   1 H        0.926     0.057     2.234     2.337
    47   1 H        0.926     0.050     2.315     2.379
    48   1 H        0.926     0.055     2.257     2.349
    49   1 H        0.926     0.054     2.275     2.358
    50   1 H        0.926     0.055     2.255     2.349
    51   1 H        0.926     0.051     2.307     2.375
    52   1 H        0.926     0.057     2.234     2.337
    53   1 H        0.926     0.057     2.232     2.336
    54   1 H        0.926     0.054     2.276     2.359
    55   1 H        0.926     0.047     2.362     2.404

molecular dipole:
                 x           y           z       tot (Debye)
 q only:        4.427       0.161       0.000
   full:        4.126       0.147      -0.000      10.493

 projected vibrational frequencies (cm⁻¹)
eigval :       -0.00    -0.00    -0.00    -0.00     0.00     0.00
eigval :        5.40    16.89    28.99    35.26    41.50    46.13
eigval :       67.34    68.28    77.59    78.20   106.63   125.21
eigval :      136.76   152.53   156.85   178.18   198.72   219.41
eigval :      238.83   242.92   247.41   258.72   288.80   312.46
eigval :      333.07   367.62   381.63   388.40   396.76   402.15
eigval :      406.28   416.12   422.02   431.31   441.11   446.09
eigval :      474.49   484.13   486.80   518.41   528.21   541.87
eigval :      555.82   573.16   589.45   592.40   592.79   597.44
eigval :      598.01   608.86   642.75   652.90   670.18   674.58
eigval :      676.13   699.04   701.03   721.05   744.37   763.90
eigval :      773.67   776.20   785.28   801.35   828.43   840.26
eigval :      854.15   870.71   871.82   873.99   891.51   897.01
eigval :      899.13   904.25   906.79   916.56   917.10   924.54
eigval :      924.94   929.52   933.87   934.76   936.35   948.30
eigval :      977.95   992.43  1067.04  1077.35  1095.29  1095.70
eigval :     1107.30  1114.39  1125.30  1138.55  1150.41  1154.26
eigval :     1176.45  1176.82  1177.98  1183.49  1188.22  1195.38
eigval :     1204.19  1217.66  1228.10  1247.40  1251.01  1254.26
eigval :     1271.01  1273.07  1295.62  1303.75  1305.56  1307.45
eigval :     1314.50  1333.43  1337.61  1343.44  1376.34  1381.99
eigval :     1404.57  1417.17  1426.38  1427.35  1442.70  1455.35
eigval :     1463.09  1476.51  1478.70  1524.54  1535.15  1549.76
eigval :     1556.95  1569.81  1579.31  1580.69  1586.51  1614.66
eigval :     2241.86  2281.72  3069.45  3069.73  3071.04  3072.95
eigval :     3085.48  3086.59  3087.66  3087.87  3092.31  3092.39
eigval :     3093.01  3095.99  3096.11  3098.18  3104.84  3105.75
eigval :     3105.96  3114.09  3114.78

   temp. (K)  partition function   enthalpy   heat capacity  entropy
                                   cal/mol     cal/K/mol   cal/K/mol   J/K/mol
 298.15  VIB  0.489E+13            16269.877    103.065    101.411
         ROT  0.257E+08              888.752      2.981     36.887
         INT  0.126E+21            17158.630    106.046    138.298
         TR   0.947E+28             1481.254      4.968     44.231
         TOT                       18639.8838   111.0144   182.5289   763.7008

       T/K    H(0)-H(T)+PV         H(T)/Eh          T*S/Eh         G(T)/Eh
   ------------------------------------------------------------------------
    298.15    0.297045E-01    0.434734E+00    0.867254E-01    0.348009E+00
   ------------------------------------------------------------------------

         :::::::::::::::::::::::::::::::::::::::::::::::::::::
         ::                  THERMODYNAMIC                  ::
         :::::::::::::::::::::::::::::::::::::::::::::::::::::
         :: total free energy         -88.695522405486 Eh   ::
         ::.................................................::
         :: total energy              -89.043531338860 Eh   ::
         :: zero point energy           0.405029750285 Eh   ::
         :: G(RRHO) w/o ZPVE           -0.057020816911 Eh   ::
         :: G(RRHO) contrib.            0.348008933374 Eh   ::
         :::::::::::::::::::::::::::::::::::::::::::::::::::::

           -------------------------------------------------
          | TOTAL ENERGY              -89.043531338860 Eh   |
          | TOTAL ENTHALPY            -88.608797043016 Eh   |
          | TOTAL FREE ENERGY         -88.695522405486 Eh   |
          | GRADIENT NORM               0.000027590076 Eh/α |
          | HOMO-LUMO GAP               0.830232164714 eV   |
           -------------------------------------------------

 * finished run on 2025/07/17 at 05:10:38.036
