   * xtb version 6.7.1 (edcfbbe) compiled by 'albert@albert-system' on 2024-07-22

   ID    Z sym.   atoms
    1    7 N      1, 21, 29, 39, 56
    2    6 C      2-20, 22-28, 30-38, 40-55, 57-64
    3    1 H      65-101

          program call               : xtb data2507/toluene/TBPM2CN/TBPM2CN_toluene_S0_finalOpt.xtbopt.xyz --gfn 2 --uhf 2 --gbsa toluene --ohess vtight --parallel 40 --molden --ceasefiles --namespace data2507/toluene/TBPM2CN/TBPM2CN_toluene_T1_preOpt
      * Solvation model:               GBSA
        Solvent                        toluene
        Solvent mass                       9.2140E+01 g/mol
          :  Hamiltonian                  GFN2-xTB          :
 * total energy  :  -159.7968378 Eh     change       -0.2590826E-07 Eh
 * total energy  :  -159.8002149 Eh     change       -0.3377134E-02 Eh
 * total energy  :  -159.8016480 Eh     change       -0.1433063E-02 Eh
 * total energy  :  -159.8020103 Eh     change       -0.3623442E-03 Eh
 * total energy  :  -159.8023748 Eh     change       -0.3644973E-03 Eh
 * total energy  :  -159.8027133 Eh     change       -0.3384743E-03 Eh
 * total energy  :  -159.8029264 Eh     change       -0.2131252E-03 Eh
 * total energy  :  -159.8031090 Eh     change       -0.1826288E-03 Eh
 * total energy  :  -159.8031910 Eh     change       -0.8193922E-04 Eh
 * total energy  :  -159.8032519 Eh     change       -0.6091847E-04 Eh
 * total energy  :  -159.8038502 Eh     change       -0.7018693E-06 Eh
 * total energy  :  -159.8038511 Eh     change       -0.8646405E-06 Eh
 * total energy  :  -159.8038519 Eh     change       -0.8231310E-06 Eh
 * total energy  :  -159.8038526 Eh     change       -0.6492711E-06 Eh
 * total energy  :  -159.8038530 Eh     change       -0.3994401E-06 Eh
 * total energy  :  -159.8038532 Eh     change       -0.2883333E-06 Eh
 * total energy  :  -159.8038536 Eh     change       -0.3365249E-06 Eh
 * total energy  :  -159.8038538 Eh     change       -0.2250086E-06 Eh
 * total energy  :  -159.8038539 Eh     change       -0.4664815E-07 Eh
   *** GEOMETRY OPTIMIZATION CONVERGED AFTER 84 ITERATIONS ***

 final structure:
================
101
 xtb: 6.7.1 (edcfbbe)
N          -10.93220245203090       -7.21928784759271       -0.54824912024269
C          -10.00937132707488       -6.53629595900472       -0.47401917641571
C           -8.88005748697946       -5.70266437334318       -0.38297809908632
C           -7.79467514855853       -6.07229767266949        0.42039778609688
C           -6.69043307393713       -5.25459930425354        0.50142197698007
C           -6.63255945565847       -4.04651747205351       -0.20285615314572
C           -5.45392160649533       -3.18300624380224       -0.10936770875520
C           -4.16921076894378       -3.73679526479614       -0.05225996549433
C           -3.07153629076716       -2.91574075999228        0.01371431547952
C           -3.21985485848346       -1.52338289345955        0.04023219498313
C           -4.50543496099459       -0.93280051659085        0.00506905802608
C           -5.59707274796958       -1.79664380582477       -0.07868059859840
C           -4.64742351355233        0.52017585715043        0.07225636559452
C           -5.89304009671059        1.12341734902345        0.10659887862915
C           -6.08103417540374        2.51124375382436        0.17846311424694
C           -7.40772351345371        3.08943507013933        0.19246536364414
C           -8.50954782302373        2.39272736135718        0.72496505540879
C           -9.76673690950851        2.94127761734851        0.73820506151847
C           -9.98591930392981        4.22252496202737        0.20588264402243
C          -11.26824005313993        4.78502706567933        0.21060525976578
N          -12.32400325605579        5.24910368973960        0.21419820356165
C           -8.89808715724656        4.93073166080853       -0.33102480861260
C           -7.64375969005190        4.37583146722608       -0.32954582350377
C           -4.92650470757501        3.32100387388144        0.24421400160087
C           -3.68157831991515        2.76829038654567        0.22032433499902
C           -3.48655484402581        1.36805721784304        0.11324069042258
C           -2.23112515529118        0.75267396679421        0.06879499709577
C           -2.08954387083729       -0.66536145956168        0.08311119540471
N           -0.80209719079393       -1.00962180921241        0.12040805714176
C           -0.09647271158269        0.12143930783987        0.09819637279628
C            1.32162765725229        0.10937855106524        0.06417868574366
C            2.14129548142647        1.20278894538249       -0.29477875014329
C            3.50460691750012        1.08609194656304       -0.30674356944754
C            4.15451000658150       -0.12147503538470        0.02162251207780
C            5.59410978780540       -0.23065755282600        0.00647110806198
C            6.41894715627684        0.88904732078153        0.22790873716588
C            7.78679902576597        0.78929338057271        0.21064836050116
C            8.41257290246302       -0.44341187238596       -0.03089240181513
N            9.79447102356983       -0.54679190299024       -0.05325603325838
C           10.42373046519074       -1.71825955245761        0.38751312585965
C            9.93670226145763       -2.40398272040712        1.50180583421482
C           10.56539876502801       -3.55488381800213        1.93556999906176
C           11.68446770902658       -4.03534323131610        1.27280702824148
C           12.17276752813187       -3.35582133773978        0.16715934759726
C           11.54984512352432       -2.20602294256670       -0.27776250712284
C           10.57610731804704        0.51733982349299       -0.52094696090693
C           10.15598001135283        1.27277157775965       -1.61738227704386
C           10.93418281821116        2.31707940892055       -2.07765118563509
C           12.13759364921526        2.62062785501594       -1.45946682782914
C           12.55957655633056        1.87125127064670       -0.37179697870425
C           11.78790085860715        0.82687150542784        0.09914852456361
C            7.60261238995807       -1.56822073644384       -0.25073813527145
C            6.23543653079058       -1.46146018913359       -0.23184063259754
C            3.33210091755137       -1.22133133155956        0.35069646032717
C            1.97185619270419       -1.11201075095305        0.37230075953799
N           -0.94242039962234        1.23653380161505        0.06905748148333
C           -0.53946768370870        2.58814265930426        0.10161824308028
C            0.03456412717990        3.11106793519812        1.25642029519921
C            0.44062263308384        4.43332978952273        1.28063360712981
C            0.27524362846531        5.23478547197981        0.16229067049030
C           -0.29913203693208        4.71340551296288       -0.98679760389869
C           -0.70655645381207        3.39226983295603       -1.02336852584012
C           -7.72533123226591       -3.68680607338494       -0.99973928404457
C           -8.83302836481227       -4.49862030717847       -1.09544636027508
H           -7.83599733692018       -6.99904447785252        0.97444943461463
H           -5.86624555208164       -5.53830961196292        1.13847333402447
H           -4.04294497006879       -4.80802539795554       -0.09505060923908
H           -2.07003043736815       -3.31698772276707        0.03780052043954
H           -6.59968558311250       -1.40157209677024       -0.09886916833660
H           -6.77690967589724        0.51075403085092        0.04647604523048
H           -8.36204330687311        1.41902561913312        1.16776059801299
H          -10.59907694460131        2.39770796160549        1.16320994726944
H           -9.06423840133152        5.91368523278376       -0.74924005765384
H           -6.82771789529653        4.92736473564186       -0.77168077216279
H           -5.02872931457808        4.38984895125653        0.35559531903903
H           -2.81930712410409        3.40938379100370        0.30448914465837
H            1.69508452219989        2.13489272476267       -0.60019919249806
H            4.09221365143046        1.93513862625030       -0.62177037811736
H            5.96987339786518        1.84196581882335        0.46055177135685
H            8.39457296277720        1.65902453856219        0.41221352670437
H            9.07591434965329       -2.01968369905750        2.02863332729530
H           10.18510043017984       -4.07472919132050        2.80224388984373
H           12.17379064727546       -4.93388078985662        1.61653912871212
H           13.04036636351900       -3.72815220619146       -0.35683155197006
H           11.92232327335955       -1.68438816332321       -1.14688614586354
H            9.22739237027356        1.02464970827650       -2.10995627587453
H           10.60360545596045        2.89181280514211       -2.92999883573636
H           12.74398129895787        3.43569886783564       -1.82410254186709
H           13.49299339182657        2.10623650772163        0.11766440401027
H           12.11110213685894        0.25111032572160        0.95371882660033
H            8.06708490620604       -2.51916163362312       -0.46622165046754
H            5.64268961272698       -2.33569794488542       -0.45073642227537
H            3.78579819379022       -2.15993767441906        0.62992986668275
H            1.35189533187743       -1.95294184126911        0.64014603887323
H            0.16004772836287        2.47623283026214        2.12128628889755
H            0.88413364542656        4.83836712637250        2.17764529762239
H            0.59242799874113        6.26627722107204        0.18558235795341
H           -0.42848686266770        5.33530144229547       -1.85988233721353
H           -1.15553259907707        2.97475294167381       -1.91303541709153
H           -7.69015673783391       -2.77106990579913       -1.57106627967178
H           -9.66888877045797       -4.21795501442004       -1.72016759882084

          :  Hamiltonian                  GFN2-xTB          :
         :: gradient norm              0.000127145034 Eh/a0 ::
         :: HOMO-LUMO gap              0.142704836920 eV    ::
         :: SCC energy              -162.875064895714 Eh    ::
         :: -> dispersion             -0.142796725299 Eh    ::
         :: -> Gsolv                  -0.082405553624 Eh    ::
         :: repulsion energy           3.071211043526 Eh    ::

    * Orbital Energies and Occupations

         #    Occupation            Energy/Eh            Energy/eV
      -------------------------------------------------------------
         1        2.0000           -0.6907868             -18.7973
       ...           ...                  ...                  ...
       138        2.0000           -0.4134823             -11.2514
       139        2.0000           -0.4132618             -11.2454
       140        2.0000           -0.4125539             -11.2262
       141        2.0000           -0.4121837             -11.2161
       142        2.0000           -0.4085169             -11.1163
       143        2.0000           -0.4080873             -11.1046
       144        2.0000           -0.3961476             -10.7797
       145        2.0000           -0.3927477             -10.6872
       146        2.0000           -0.3857182             -10.4959
       147        2.0000           -0.3846161             -10.4659
       148        1.9953           -0.3681906             -10.0190
       149        1.0047           -0.3580306              -9.7425
       150        0.9405           -0.2840455              -7.7293 (HOMO)
       151        0.0595           -0.2788009              -7.5866 (LUMO)
       152        0.0000           -0.2681935              -7.2979
       153                         -0.2514967              -6.8436
       154                         -0.2484877              -6.7617
       155                         -0.2446288              -6.6567
       156                         -0.2413569              -6.5677
       157                         -0.2410541              -6.5594
       158                         -0.2394009              -6.5144
       159                         -0.2364476              -6.4341
       160                         -0.2355219              -6.4089
       161                         -0.2342591              -6.3745
       ...                                ...                  ...
       293                          1.1649170              31.6990
      -------------------------------------------------------------
                  HL-Gap            0.0052445 Eh            0.1427 eV

     #   Z          covCN         q      C6AA      α(0)
     1   7 N        0.911    -0.293    27.537     7.590
     2   6 C        1.912     0.114    28.281     8.588
     3   6 C        2.972     0.008    27.847     8.656
     4   6 C        2.923    -0.022    28.549     8.762
     5   6 C        2.922    -0.031    28.783     8.798
     6   6 C        2.976     0.017    27.637     8.623
     7   6 C        2.974     0.009    27.814     8.651
     8   6 C        2.920    -0.035    28.869     8.811
     9   6 C        2.919    -0.031    28.770     8.796
    10   6 C        2.983    -0.005    28.143     8.702
    11   6 C        2.975    -0.000    28.031     8.685
    12   6 C        2.927    -0.042    29.034     8.837
    13   6 C        2.974    -0.003    28.102     8.695
    14   6 C        2.925    -0.041    29.030     8.836
    15   6 C        2.970     0.002    27.982     8.677
    16   6 C        2.972     0.007    27.861     8.658
    17   6 C        2.921    -0.037    28.909     8.817
    18   6 C        2.921    -0.026    28.653     8.778
    19   6 C        2.971    -0.003    28.097     8.695
    20   6 C        1.911     0.109    28.402     8.607
    21   7 N        0.911    -0.316    28.140     7.672
    22   6 C        2.921    -0.026    28.655     8.778
    23   6 C        2.921    -0.036    28.903     8.816
    24   6 C        2.917    -0.039    28.958     8.824
    25   6 C        2.913    -0.041    29.022     8.834
    26   6 C        2.973    -0.018    28.447     8.749
    27   6 C        3.044     0.036    27.158     8.547
    28   6 C        3.176     0.075    25.937     8.317
    29   7 N        1.886    -0.307    28.808     7.957
    30   6 C        3.151     0.132    24.863     8.156
    31   6 C        2.971    -0.006    28.175     8.707
    32   6 C        2.914    -0.040    29.005     8.831
    33   6 C        2.919    -0.034    28.846     8.807
    34   6 C        2.972     0.008    27.828     8.653
    35   6 C        2.971     0.012    27.745     8.640
    36   6 C        2.921    -0.032    28.808     8.802
    37   6 C        2.917    -0.043    29.068     8.841
    38   6 C        2.924     0.062    26.620     8.461
    39   7 N        2.752    -0.033    21.874     6.946
    40   6 C        2.926     0.063    26.597     8.457
    41   6 C        2.921    -0.041    29.018     8.834
    42   6 C        2.919    -0.026    28.647     8.777
    43   6 C        2.919    -0.030    28.752     8.793
    44   6 C        2.919    -0.026    28.645     8.777
    45   6 C        2.921    -0.041    29.021     8.834
    46   6 C        2.926     0.063    26.596     8.457
    47   6 C        2.921    -0.041    29.020     8.834
    48   6 C        2.919    -0.026    28.649     8.777
    49   6 C        2.919    -0.030    28.755     8.793
    50   6 C        2.919    -0.026    28.645     8.777
    51   6 C        2.921    -0.041    29.022     8.834
    52   6 C        2.917    -0.043    29.065     8.841
    53   6 C        2.921    -0.032    28.801     8.801
    54   6 C        2.917    -0.034    28.849     8.808
    55   6 C        2.924    -0.032    28.794     8.800
    56   7 N        2.821    -0.068    22.552     7.053
    57   6 C        2.911     0.067    26.490     8.440
    58   6 C        2.921    -0.038    28.947     8.823
    59   6 C        2.919    -0.025    28.639     8.776
    60   6 C        2.919    -0.030    28.740     8.791
    61   6 C        2.919    -0.026    28.663     8.780
    62   6 C        2.920    -0.038    28.942     8.822
    63   6 C        2.922    -0.032    28.787     8.799
    64   6 C        2.923    -0.022    28.550     8.762
    65   1 H        0.926     0.038     2.475     2.460
    66   1 H        0.926     0.046     2.374     2.410
    67   1 H        0.926     0.041     2.441     2.443
    68   1 H        0.926     0.050     2.320     2.382
    69   1 H        0.926     0.039     2.468     2.457
    70   1 H        0.926     0.037     2.491     2.468
    71   1 H        0.926     0.034     2.527     2.486
    72   1 H        0.926     0.027     2.635     2.539
    73   1 H        0.926     0.027     2.624     2.533
    74   1 H        0.926     0.036     2.506     2.475
    75   1 H        0.926     0.031     2.571     2.507
    76   1 H        0.926     0.029     2.601     2.522
    77   1 H        0.926     0.030     2.590     2.516
    78   1 H        0.926     0.041     2.440     2.443
    79   1 H        0.926     0.046     2.373     2.409
    80   1 H        0.926     0.044     2.399     2.422
    81   1 H        0.926     0.044     2.397     2.421
    82   1 H        0.926     0.044     2.399     2.422
    83   1 H        0.926     0.042     2.421     2.433
    84   1 H        0.926     0.044     2.402     2.423
    85   1 H        0.926     0.043     2.411     2.428
    86   1 H        0.926     0.044     2.400     2.422
    87   1 H        0.926     0.044     2.402     2.424
    88   1 H        0.926     0.042     2.422     2.434
    89   1 H        0.926     0.044     2.402     2.424
    90   1 H        0.926     0.043     2.410     2.428
    91   1 H        0.926     0.044     2.399     2.422
    92   1 H        0.926     0.047     2.361     2.403
    93   1 H        0.926     0.043     2.408     2.427
    94   1 H        0.926     0.050     2.319     2.381
    95   1 H        0.926     0.039     2.468     2.457
    96   1 H        0.926     0.047     2.360     2.403
    97   1 H        0.926     0.046     2.366     2.405
    98   1 H        0.926     0.046     2.374     2.410
    99   1 H        0.926     0.040     2.452     2.449
   100   1 H        0.926     0.043     2.414     2.430
   101   1 H        0.926     0.036     2.498     2.471

molecular dipole:
                 x           y           z       tot (Debye)
 q only:       13.895       0.266       0.062
   full:       14.302       0.711       0.069      36.396

 projected vibrational frequencies (cm⁻¹)
eigval :       -0.00    -0.00     0.00     0.00     0.00     0.00
eigval :       -2.82     8.18    11.45    13.80    18.82    25.25
eigval :       26.08    32.38    33.43    37.52    41.33    48.06
eigval :       49.02    49.86    56.36    63.57    64.35    71.70
eigval :       75.30    87.67    97.86   101.66   101.88   108.60
eigval :      111.98   123.12   136.52   141.52   147.24   152.37
eigval :      166.22   182.97   194.96   203.95   207.79   227.24
eigval :      232.11   235.26   246.66   249.73   265.72   281.03
eigval :      294.73   308.09   313.88   320.38   329.70   342.96
eigval :      365.06   367.38   370.24   370.36   374.78   375.96
eigval :      379.76   380.37   386.45   395.91   400.64   409.74
eigval :      414.71   421.08   424.86   440.12   443.18   455.66
eigval :      461.08   466.19   476.63   480.31   502.14   509.91
eigval :      515.97   520.87   524.27   531.96   537.43   539.17
eigval :      552.14   566.27   580.82   581.66   585.80   588.32
eigval :      591.54   592.64   599.33   604.36   609.83   614.22
eigval :      617.37   624.03   630.31   643.82   658.40   660.77
eigval :      662.18   665.90   669.88   674.71   679.28   681.89
eigval :      683.46   690.90   692.33   710.42   723.84   729.11
eigval :      753.82   756.97   762.81   766.14   787.91   795.95
eigval :      803.67   804.09   807.40   817.59   825.23   834.08
eigval :      835.34   842.24   849.04   851.47   857.56   865.30
eigval :      869.09   872.20   872.77   878.75   896.06   898.00
eigval :      901.71   907.64   907.96   909.05   910.88   912.64
eigval :      912.81   917.11   917.55   918.24   918.52   923.36
eigval :      924.18   926.06   927.55   929.32   929.85   930.41
eigval :      931.07   934.99   938.26   965.00   980.68   984.07
eigval :      995.28  1001.03  1002.12  1008.82  1025.49  1053.95
eigval :     1061.13  1069.51  1076.65  1078.77  1080.24  1089.04
eigval :     1104.28  1114.53  1119.16  1121.70  1134.25  1136.20
eigval :     1139.82  1145.80  1147.46  1153.75  1171.56  1176.16
eigval :     1176.82  1178.03  1178.46  1179.15  1184.41  1189.76
eigval :     1191.71  1193.25  1198.27  1212.41  1219.47  1235.09
eigval :     1238.12  1242.73  1251.85  1262.25  1264.16  1269.01
eigval :     1271.84  1272.43  1273.64  1274.96  1276.55  1282.16
eigval :     1293.81  1296.16  1304.47  1307.34  1310.14  1311.17
eigval :     1313.62  1317.44  1319.23  1322.04  1323.16  1330.08
eigval :     1331.96  1342.75  1348.74  1361.40  1392.97  1399.99
eigval :     1410.62  1414.80  1422.02  1423.60  1430.17  1430.80
eigval :     1431.71  1433.43  1438.17  1443.59  1455.44  1455.75
eigval :     1457.01  1458.03  1465.25  1470.40  1476.00  1482.11
eigval :     1489.22  1499.53  1501.60  1512.05  1519.71  1528.49
eigval :     1531.24  1548.07  1564.02  1567.31  1571.33  1574.05
eigval :     1579.50  1580.28  1581.55  1585.39  1587.04  1588.47
eigval :     2296.82  2319.67  3068.94  3071.41  3076.27  3078.72
eigval :     3079.23  3079.75  3080.55  3081.56  3082.17  3082.43
eigval :     3082.94  3083.63  3084.49  3085.65  3085.82  3085.86
eigval :     3087.72  3088.05  3088.41  3088.86  3089.94  3090.44
eigval :     3091.80  3092.26  3092.46  3093.77  3099.69  3100.12
eigval :     3100.86  3101.41  3102.31  3102.37  3103.04  3108.14
eigval :     3117.35  3120.06  3120.97

   temp. (K)  partition function   enthalpy   heat capacity  entropy
                                   cal/mol     cal/K/mol   cal/K/mol   J/K/mol
 298.15  VIB  0.231E+27            31045.735    189.515    197.906
         ROT  0.354E+09              888.752      2.981     42.100
         INT  0.818E+35            31934.487    192.496    240.005
         TR   0.226E+29             1481.254      4.968     45.954
         TOT                       33415.7409   197.4643   285.9597  1196.4554

       T/K    H(0)-H(T)+PV         H(T)/Eh          T*S/Eh         G(T)/Eh
   ------------------------------------------------------------------------
    298.15    0.532514E-01    0.813605E+00    0.135869E+00    0.677736E+00
   ------------------------------------------------------------------------

         :::::::::::::::::::::::::::::::::::::::::::::::::::::
         ::                  THERMODYNAMIC                  ::
         :::::::::::::::::::::::::::::::::::::::::::::::::::::
         :: total free energy        -159.126117708807 Eh   ::
         ::.................................................::
         :: total energy             -159.803853849102 Eh   ::
         :: zero point energy           0.760353447635 Eh   ::
         :: G(RRHO) w/o ZPVE           -0.082617307340 Eh   ::
         :: G(RRHO) contrib.            0.677736140295 Eh   ::
         :::::::::::::::::::::::::::::::::::::::::::::::::::::

           -------------------------------------------------
          | TOTAL ENERGY             -159.803853849102 Eh   |
          | TOTAL ENTHALPY           -158.990249028721 Eh   |
          | TOTAL FREE ENERGY        -159.126117708807 Eh   |
          | GRADIENT NORM               0.000127062928 Eh/α |
          | HOMO-LUMO GAP               0.142711218639 eV   |
           -------------------------------------------------

 * finished run on 2025/07/20 at 03:18:10.447
