   * xtb version 6.7.1 (edcfbbe) compiled by 'albert@albert-system' on 2024-07-22

   ID    Z sym.   atoms
    1    7 N      1, 21, 29, 39, 56
    2    6 C      2-20, 22-28, 30-38, 40-55, 57-64
    3    1 H      65-101

          program call               : xtb data2507/toluene/TBPM2CN/TBPM2CN_toluene_S0_crest.xyz --gfn 2 --gbsa toluene --ohess vtight --parallel 40 --molden --ceasefiles --namespace data2507/toluene/TBPM2CN/TBPM2CN_toluene_S0_finalOpt
      * Solvation model:               GBSA
        Solvent                        toluene
        Solvent mass                       9.2140E+01 g/mol
          :  Hamiltonian                  GFN2-xTB          :
 * total energy  :  -159.8798598 Eh     change       -0.2829694E-08 Eh
 * total energy  :  -159.8799009 Eh     change       -0.4107768E-04 Eh
 * total energy  :  -159.8799159 Eh     change       -0.1507148E-04 Eh
 * total energy  :  -159.8799238 Eh     change       -0.7856169E-05 Eh
 * total energy  :  -159.8799300 Eh     change       -0.6177836E-05 Eh
 * total energy  :  -159.8799353 Eh     change       -0.5297806E-05 Eh
 * total energy  :  -159.8799400 Eh     change       -0.4737499E-05 Eh
 * total energy  :  -159.8799456 Eh     change       -0.5628540E-05 Eh
 * total energy  :  -159.8799498 Eh     change       -0.4155711E-05 Eh
 * total energy  :  -159.8799544 Eh     change       -0.4621412E-05 Eh
 * total energy  :  -159.8800206 Eh     change       -0.8131855E-07 Eh
 * total energy  :  -159.8800207 Eh     change       -0.1790461E-06 Eh
 * total energy  :  -159.8800210 Eh     change       -0.2607233E-06 Eh
 * total energy  :  -159.8800213 Eh     change       -0.2796072E-06 Eh
 * total energy  :  -159.8800215 Eh     change       -0.2142858E-06 Eh
 * total energy  :  -159.8800217 Eh     change       -0.2559113E-06 Eh
 * total energy  :  -159.8800220 Eh     change       -0.2572174E-06 Eh
 * total energy  :  -159.8800220 Eh     change        0.1802852E-07 Eh
 * total energy  :  -159.8800221 Eh     change       -0.7311709E-07 Eh
   *** GEOMETRY OPTIMIZATION CONVERGED AFTER 69 ITERATIONS ***

 final structure:
================
101
 xtb: 6.7.1 (edcfbbe)
N          -11.21153734986744       -7.04012418997105       -0.58380771736684
C          -10.26557303449551       -6.39125814223120       -0.52614985572361
C           -9.10397215473099       -5.59438755673408       -0.45341356831482
C           -8.04699560306674       -5.97217833463430        0.37840815878159
C           -6.91231418906676       -5.19131954252988        0.44090412009501
C           -6.80525910051105       -4.02066562934704       -0.31223026180116
C           -5.59238888855850       -3.19437930191607       -0.23609021816870
C           -4.32661854959232       -3.79864841378180       -0.22450536165889
C           -3.19975149873695       -3.02152338281447       -0.16657769085919
C           -3.29826997537659       -1.62662808045729       -0.09934135099333
C           -4.56118998798763       -0.99031885974828       -0.08782774194462
C           -5.69009498375216       -1.81512298493597       -0.17161824112436
C           -4.64872410260795        0.45667253664975        0.02936851884244
C           -5.88338965665351        1.10863080723864        0.11840796288840
C           -5.99685482805184        2.48005366739485        0.26645453228434
C           -7.31803642620012        3.11656933575671        0.34287162211947
C           -8.35955778124011        2.51894867639524        1.05566480328602
C           -9.60282992042545        3.11110089739021        1.12387764164324
C           -9.83060805747513        4.32459640821307        0.47028524403830
C          -11.10095677490651        4.93476231332047        0.53304750592797
N          -12.13456757819421        5.43290144577611        0.58387294829524
C           -8.79599114243890        4.93362037658790       -0.24415545738732
C           -7.55646909278033        4.33252721058104       -0.30096919933091
C           -4.82864548316645        3.24819955110701        0.34985929641388
C           -3.60023158597988        2.64613421667555        0.26663067427599
C           -3.47560609645736        1.26033150220401        0.08381649042798
C           -2.22634523742849        0.58881154658464       -0.01880840386169
C           -2.14024465288463       -0.80331982363362       -0.05947024255397
N           -0.83948028323894       -1.19396476379659       -0.07694949120716
C           -0.13011669668582       -0.09027767786770       -0.06541776755332
C            1.32300161585097       -0.08918404381522       -0.08575781986677
C            2.07687889319458        0.87600837789859       -0.75188407835635
C            3.45549416412991        0.81609152036090       -0.73964128956983
C            4.12758422991365       -0.20893441098345       -0.07429046940033
C            5.59356478519655       -0.26256422242640       -0.05836272507270
C            6.35319923835824        0.90114647095334        0.06506181850427
C            7.73060153051589        0.85380144470227        0.09329492565312
C            8.40079233449052       -0.36588212533874       -0.01830821356149
N            9.79606438380020       -0.41879127735773        0.00534646368603
C           10.44575326114761       -1.49477662058568        0.62495722589481
C            9.93818592167604       -2.04432282008012        1.80235247379117
C           10.57929229013259       -3.10836808772762        2.40714348530662
C           11.73687438613986       -3.63532511402738        1.85711211499953
C           12.24885733243188       -3.08891210357782        0.69116211775208
C           11.60985148265050       -2.03042621784309        0.07424833553493
C           10.54945466109743        0.60119260746915       -0.59028753779405
C           10.12516578644364        1.19206503709411       -1.78061431083999
C           10.86902749583343        2.20140449657883       -2.36112209196895
C           12.04818767360359        2.63142157887363       -1.77403645166875
C           12.47795893991893        2.04300002461936       -0.59540932499973
C           11.73617976251469        1.03934207717869       -0.00244498151523
C            7.64600266073401       -1.53283069657660       -0.15265362741566
C            6.26874803250220       -1.47893836217870       -0.16402558770769
C            3.36747542448253       -1.18683452859651        0.56954206906820
C            1.99073199574668       -1.13017513195863        0.56258784164492
N           -0.92382555843062        1.03461366241117       -0.03471098274731
C           -0.45027127362974        2.36544767837416       -0.00427780552563
C            0.26525022840043        2.81495988239717        1.09872887782176
C            0.75240164444969        4.11027048714864        1.11609803324226
C            0.52813307095846        4.95402539959820        0.04069410665086
C           -0.18369794174178        4.50266793476659       -1.05978136973621
C           -0.67293356570752        3.20920730765693       -1.08864819534792
C           -7.86923862611510       -3.65191033562859       -1.13746635556826
C           -9.00706765622899       -4.42704228938526       -1.21466268536361
H           -8.12865916953535       -6.87376793435499        0.96803981602489
H           -6.10310570933317       -5.47880279991606        1.09533816186287
H           -4.24577171682967       -4.87326722798933       -0.29177428124720
H           -2.21250261227149       -3.45747358514983       -0.17579215666013
H           -6.67849898494993       -1.38469855263827       -0.16453350296461
H           -6.79354755280457        0.53543337583338        0.05430096458679
H           -8.18488443993698        1.59101813524929        1.57935875824673
H          -10.40357421789074        2.64669631581558        1.68095451869271
H           -8.97724958902528        5.87101027653444       -0.74972430269009
H           -6.76557828624376        4.79917613895790       -0.86867966025746
H           -4.89477717611265        4.31384180587966        0.50983977219124
H           -2.71132280812260        3.24921252249620        0.35604581602371
H            1.58857630756219        1.66414575766164       -1.30427816935758
H            4.02066989497524        1.56269756105297       -1.27772705843373
H            5.85536321800582        1.85339648419969        0.17508267969287
H            8.30117672580610        1.76379463085533        0.20934486742615
H            9.04088454614966       -1.62945290046815        2.23828753796365
H           10.17629132352107       -3.52309172131772        3.31980151521919
H           12.23712891373624       -4.46467131092174        2.33437557369484
H           13.14869057209557       -3.49546141377574        0.25259142146484
H           12.00643310324469       -1.61250378904664       -0.83971162916879
H            9.21206485600767        0.85124629153555       -2.24676508344709
H           10.52932102833158        2.64910863165930       -3.28396285005052
H           12.62845588483658        3.41828512727888       -2.23220894112723
H           13.39415099502143        2.37406917608805       -0.12821278388817
H           12.06980118829229        0.58867315369602        0.92111508549882
H            8.15109562065482       -2.48240731743787       -0.25421969133251
H            5.70601338792527       -2.39204326181501       -0.29073249101806
H            3.86467551314365       -1.98636247299152        1.09848209816529
H            1.40487329124842       -1.88600154593350        1.06312465508753
H            0.43647405581776        2.14704341669587        1.93009210431929
H            1.30693565207068        4.45943285509417        1.97387432210325
H            0.90982628726871        5.96352829970918        0.05807919943345
H           -0.35664106681546        5.15710046350565       -1.90083692593150
H           -1.22712273316139        2.84491771230892       -1.94185927680430
H           -7.79130643545082       -2.75960595686926       -1.74064037343572
H           -9.82508661520530       -4.14248643489775       -1.86059435419672

          :  Hamiltonian                  GFN2-xTB          :
         :: gradient norm              0.000120424766 Eh/a0 ::
         :: HOMO-LUMO gap              1.758929223316 eV    ::
         :: SCC energy              -162.970450792011 Eh    ::
         :: -> dispersion             -0.142933261105 Eh    ::
         :: -> Gsolv                  -0.076217109233 Eh    ::
         :: repulsion energy           3.090428737124 Eh    ::

    * Orbital Energies and Occupations

         #    Occupation            Energy/Eh            Energy/eV
      -------------------------------------------------------------
         1        2.0000           -0.6934353             -18.8693
       ...           ...                  ...                  ...
       137        2.0000           -0.4130414             -11.2394
       138        2.0000           -0.4108969             -11.1811
       139        2.0000           -0.4098412             -11.1523
       140        2.0000           -0.4093434             -11.1388
       141        2.0000           -0.4083115             -11.1107
       142        2.0000           -0.4055438             -11.0354
       143        2.0000           -0.4053400             -11.0299
       144        2.0000           -0.4017177             -10.9313
       145        2.0000           -0.3953697             -10.7586
       146        2.0000           -0.3895051             -10.5990
       147        2.0000           -0.3842937             -10.4572
       148        2.0000           -0.3694058             -10.0520
       149        2.0000           -0.3498082              -9.5188 (HOMO)
       150                         -0.2851686              -7.7598 (LUMO)
       151                         -0.2791151              -7.5951
       152                         -0.2658953              -7.2354
       153                         -0.2561542              -6.9703
       154                         -0.2502541              -6.8098
       155                         -0.2431656              -6.6169
       156                         -0.2429040              -6.6098
       157                         -0.2427291              -6.6050
       158                         -0.2412224              -6.5640
       159                         -0.2312526              -6.2927
       160                         -0.2295298              -6.2458
       ...                                ...                  ...
       293                          1.1592517              31.5448
      -------------------------------------------------------------
                  HL-Gap            0.0646395 Eh            1.7589 eV

     #   Z          covCN         q      C6AA      α(0)
     1   7 N        0.911    -0.278    27.175     7.539
     2   6 C        1.912     0.118    28.196     8.576
     3   6 C        2.973     0.013    27.720     8.636
     4   6 C        2.924    -0.019    28.479     8.752
     5   6 C        2.923    -0.029    28.732     8.790
     6   6 C        2.977     0.023    27.492     8.601
     7   6 C        2.975     0.006    27.876     8.661
     8   6 C        2.921    -0.034    28.848     8.808
     9   6 C        2.919    -0.032    28.798     8.800
    10   6 C        2.985    -0.002    28.061     8.689
    11   6 C        2.977    -0.003    28.090     8.694
    12   6 C        2.927    -0.040    28.984     8.829
    13   6 C        2.978     0.000    28.018     8.683
    14   6 C        2.928    -0.039    28.958     8.825
    15   6 C        2.974     0.006    27.876     8.661
    16   6 C        2.976     0.022    27.505     8.603
    17   6 C        2.923    -0.030    28.749     8.793
    18   6 C        2.924    -0.019    28.480     8.752
    19   6 C        2.973     0.013    27.712     8.635
    20   6 C        1.912     0.118    28.197     8.576
    21   7 N        0.911    -0.277    27.154     7.537
    22   6 C        2.924    -0.019    28.481     8.752
    23   6 C        2.923    -0.029    28.736     8.791
    24   6 C        2.921    -0.035    28.870     8.811
    25   6 C        2.917    -0.040    28.999     8.831
    26   6 C        2.978    -0.004    28.114     8.697
    27   6 C        3.073     0.022    27.437     8.588
    28   6 C        3.204     0.061    26.070     8.317
    29   7 N        1.894    -0.316    29.037     7.989
    30   6 C        3.190     0.137    24.569     8.085
    31   6 C        2.974    -0.005    28.150     8.703
    32   6 C        2.920    -0.036    28.907     8.817
    33   6 C        2.924    -0.035    28.883     8.813
    34   6 C        2.975     0.013    27.710     8.635
    35   6 C        2.975     0.000    28.018     8.683
    36   6 C        2.924    -0.034    28.858     8.810
    37   6 C        2.920    -0.049    29.218     8.864
    38   6 C        2.923     0.065    26.546     8.449
    39   7 N        2.752    -0.077    22.744     7.083
    40   6 C        2.924     0.065    26.538     8.448
    41   6 C        2.922    -0.048    29.185     8.859
    42   6 C        2.919    -0.030    28.752     8.793
    43   6 C        2.919    -0.039    28.967     8.826
    44   6 C        2.919    -0.030    28.751     8.793
    45   6 C        2.922    -0.048    29.182     8.859
    46   6 C        2.923     0.065    26.537     8.448
    47   6 C        2.922    -0.048    29.189     8.860
    48   6 C        2.919    -0.030    28.754     8.793
    49   6 C        2.919    -0.039    28.971     8.827
    50   6 C        2.919    -0.030    28.752     8.793
    51   6 C        2.922    -0.048    29.185     8.859
    52   6 C        2.920    -0.049    29.211     8.863
    53   6 C        2.924    -0.034    28.852     8.809
    54   6 C        2.923    -0.034    28.848     8.808
    55   6 C        2.926    -0.030    28.737     8.791
    56   7 N        2.840    -0.052    22.243     7.005
    57   6 C        2.912     0.066    26.522     8.445
    58   6 C        2.921    -0.037    28.928     8.820
    59   6 C        2.920    -0.024    28.613     8.772
    60   6 C        2.919    -0.028    28.698     8.785
    61   6 C        2.920    -0.026    28.649     8.777
    62   6 C        2.921    -0.037    28.921     8.819
    63   6 C        2.923    -0.030    28.750     8.793
    64   6 C        2.924    -0.019    28.485     8.752
    65   1 H        0.926     0.043     2.415     2.430
    66   1 H        0.926     0.049     2.331     2.387
    67   1 H        0.926     0.039     2.462     2.453
    68   1 H        0.926     0.049     2.338     2.391
    69   1 H        0.926     0.042     2.427     2.436
    70   1 H        0.926     0.044     2.395     2.420
    71   1 H        0.926     0.048     2.340     2.392
    72   1 H        0.926     0.042     2.418     2.432
    73   1 H        0.926     0.043     2.412     2.429
    74   1 H        0.926     0.049     2.330     2.387
    75   1 H        0.926     0.038     2.471     2.458
    76   1 H        0.926     0.034     2.523     2.484
    77   1 H        0.926     0.029     2.599     2.521
    78   1 H        0.926     0.039     2.459     2.452
    79   1 H        0.926     0.037     2.492     2.468
    80   1 H        0.926     0.034     2.537     2.491
    81   1 H        0.926     0.032     2.553     2.499
    82   1 H        0.926     0.034     2.534     2.490
    83   1 H        0.926     0.032     2.558     2.501
    84   1 H        0.926     0.033     2.539     2.492
    85   1 H        0.926     0.032     2.563     2.504
    86   1 H        0.926     0.032     2.556     2.500
    87   1 H        0.926     0.033     2.537     2.491
    88   1 H        0.926     0.032     2.560     2.502
    89   1 H        0.926     0.033     2.540     2.492
    90   1 H        0.926     0.032     2.564     2.504
    91   1 H        0.926     0.033     2.539     2.492
    92   1 H        0.926     0.037     2.487     2.466
    93   1 H        0.926     0.041     2.429     2.437
    94   1 H        0.926     0.045     2.387     2.416
    95   1 H        0.926     0.039     2.464     2.455
    96   1 H        0.926     0.048     2.348     2.396
    97   1 H        0.926     0.048     2.343     2.393
    98   1 H        0.926     0.048     2.343     2.394
    99   1 H        0.926     0.042     2.419     2.432
   100   1 H        0.926     0.048     2.344     2.394
   101   1 H        0.926     0.042     2.420     2.433

molecular dipole:
                 x           y           z       tot (Debye)
 q only:        4.429       1.532       0.075
   full:        4.973       1.913       0.082      13.544

 projected vibrational frequencies (cm⁻¹)
eigval :       -0.00    -0.00    -0.00     0.00     0.00     0.00
eigval :        4.64     7.60     9.98    12.59    18.85    22.53
eigval :       29.93    30.60    36.50    38.84    40.24    47.94
eigval :       50.50    52.97    55.53    63.60    64.91    70.35
eigval :       79.28    84.47    92.36   100.84   102.68   107.19
eigval :      108.17   117.39   137.38   140.23   144.02   152.88
eigval :      171.87   186.04   191.91   201.09   203.41   222.71
eigval :      232.08   242.33   249.21   252.10   269.94   287.28
eigval :      300.05   310.54   313.76   321.26   329.39   352.11
eigval :      365.19   366.27   371.88   376.28   376.85   378.58
eigval :      380.99   386.14   389.71   398.04   402.35   417.16
eigval :      420.84   424.22   437.58   448.66   458.18   464.85
eigval :      469.51   480.62   484.60   490.72   502.87   508.05
eigval :      519.86   532.16   533.73   541.79   543.27   548.66
eigval :      566.99   569.07   582.17   583.81   587.40   589.37
eigval :      593.34   595.77   603.59   605.14   612.20   615.83
eigval :      628.07   632.94   642.86   654.29   659.21   664.28
eigval :      667.99   678.30   680.92   683.94   685.30   687.98
eigval :      695.83   702.20   707.90   715.57   734.08   736.40
eigval :      756.55   757.95   766.12   768.55   792.79   805.73
eigval :      807.50   810.27   814.77   830.20   833.48   838.78
eigval :      858.90   865.53   866.54   869.02   870.32   872.45
eigval :      875.28   876.69   877.62   884.55   890.46   891.55
eigval :      900.28   909.33   913.47   914.71   914.92   916.32
eigval :      919.63   921.42   923.15   923.89   925.54   927.28
eigval :      927.53   927.97   928.50   929.28   929.80   931.20
eigval :      932.31   946.97   949.94   976.09   987.09   997.53
eigval :     1003.97  1008.32  1011.40  1025.49  1038.72  1070.01
eigval :     1076.41  1079.74  1080.58  1081.75  1082.64  1100.30
eigval :     1112.24  1119.98  1122.25  1131.33  1135.73  1136.65
eigval :     1138.53  1146.83  1157.13  1176.12  1178.05  1178.10
eigval :     1178.96  1184.04  1184.74  1185.76  1188.27  1193.34
eigval :     1193.90  1200.96  1202.56  1214.92  1221.24  1232.18
eigval :     1238.37  1243.64  1262.93  1265.23  1268.30  1270.53
eigval :     1272.84  1277.25  1277.81  1278.28  1285.91  1292.68
eigval :     1298.81  1306.73  1308.17  1310.40  1312.52  1312.81
eigval :     1314.55  1319.47  1323.96  1324.16  1326.23  1331.77
eigval :     1334.29  1348.85  1373.46  1389.61  1390.35  1396.24
eigval :     1406.90  1411.72  1414.72  1425.20  1430.44  1434.41
eigval :     1435.85  1440.85  1458.58  1469.72  1472.67  1474.11
eigval :     1481.28  1482.69  1491.45  1494.83  1517.60  1534.63
eigval :     1542.24  1546.20  1548.85  1553.09  1561.37  1567.44
eigval :     1575.73  1577.14  1579.38  1580.74  1581.39  1583.39
eigval :     1590.38  1591.27  1591.96  1596.43  1598.61  1602.79
eigval :     2358.58  2358.96  3071.07  3071.32  3071.75  3072.24
eigval :     3075.12  3077.02  3078.56  3079.44  3080.43  3080.65
eigval :     3080.69  3081.09  3081.93  3082.23  3082.36  3083.09
eigval :     3083.20  3083.42  3084.51  3086.12  3086.86  3088.14
eigval :     3089.87  3090.83  3092.39  3092.64  3092.97  3093.13
eigval :     3093.94  3095.15  3097.17  3098.89  3099.19  3100.13
eigval :     3101.92  3113.91  3119.71

   temp. (K)  partition function   enthalpy   heat capacity  entropy
                                   cal/mol     cal/K/mol   cal/K/mol   J/K/mol
 298.15  VIB  0.150E+27            30817.857    187.920    196.728
         ROT  0.351E+09              888.752      2.981     42.080
         INT  0.527E+35            31706.609    190.901    238.808
         TR   0.226E+29             1481.254      4.968     45.954
         TOT                       33187.8630   195.8695   284.7625  1191.4462

       T/K    H(0)-H(T)+PV         H(T)/Eh          T*S/Eh         G(T)/Eh
   ------------------------------------------------------------------------
    298.15    0.528882E-01    0.817273E+00    0.135300E+00    0.681973E+00
   ------------------------------------------------------------------------

         :::::::::::::::::::::::::::::::::::::::::::::::::::::
         ::                  THERMODYNAMIC                  ::
         :::::::::::::::::::::::::::::::::::::::::::::::::::::
         :: total free energy        -159.198049070823 Eh   ::
         ::.................................................::
         :: total energy             -159.880022045054 Eh   ::
         :: zero point energy           0.764384589779 Eh   ::
         :: G(RRHO) w/o ZPVE           -0.082411615547 Eh   ::
         :: G(RRHO) contrib.            0.681972974232 Eh   ::
         :::::::::::::::::::::::::::::::::::::::::::::::::::::

           -------------------------------------------------
          | TOTAL ENERGY             -159.880022045054 Eh   |
          | TOTAL ENTHALPY           -159.062749229102 Eh   |
          | TOTAL FREE ENERGY        -159.198049070823 Eh   |
          | GRADIENT NORM               0.000120530199 Eh/α |
          | HOMO-LUMO GAP               1.758930613281 eV   |
           -------------------------------------------------

 * finished run on 2025/07/20 at 03:17:52.295
