   * xtb version 6.7.1 (edcfbbe) compiled by 'albert@albert-system' on 2024-07-22

   ID    Z sym.   atoms
    1    7 N      1, 21, 29, 39, 56
    2    6 C      2-20, 22-28, 30-38, 40-55, 57-64
    3    1 H      65-101

          program call               : xtb data2507/toluene/TBPM2CN/TBPM2CN.xyz --gfn 2 --gbsa toluene --ohess vtight --parallel 40 --molden --ceasefiles --namespace data2507/toluene/TBPM2CN/TBPM2CN_toluene_S0_preOpt
      * Solvation model:               GBSA
        Solvent                        toluene
        Solvent mass                       9.2140E+01 g/mol
          :  Hamiltonian                  GFN2-xTB          :
 * total energy  :  -159.8471638 Eh     change       -0.3154753E-08 Eh
 * total energy  :  -159.8635762 Eh     change       -0.1641235E-01 Eh
 * total energy  :  -159.8691413 Eh     change       -0.5565139E-02 Eh
 * total energy  :  -159.8714482 Eh     change       -0.2306916E-02 Eh
 * total energy  :  -159.8731342 Eh     change       -0.1685928E-02 Eh
 * total energy  :  -159.8740707 Eh     change       -0.9365036E-03 Eh
 * total energy  :  -159.8745900 Eh     change       -0.5193645E-03 Eh
 * total energy  :  -159.8750116 Eh     change       -0.4215902E-03 Eh
 * total energy  :  -159.8753797 Eh     change       -0.3681091E-03 Eh
 * total energy  :  -159.8758652 Eh     change       -0.4854414E-03 Eh
 * total energy  :  -159.8799795 Eh     change       -0.1075033E-05 Eh
 * total energy  :  -159.8799808 Eh     change       -0.1266127E-05 Eh
 * total energy  :  -159.8799822 Eh     change       -0.1474973E-05 Eh
 * total energy  :  -159.8799839 Eh     change       -0.1616135E-05 Eh
 * total energy  :  -159.8799857 Eh     change       -0.1792647E-05 Eh
 * total energy  :  -159.8799877 Eh     change       -0.2075639E-05 Eh
 * total energy  :  -159.8799903 Eh     change       -0.2591845E-05 Eh
 * total energy  :  -159.8799935 Eh     change       -0.3179970E-05 Eh
 * total energy  :  -159.8799935 Eh     change       -0.6384596E-08 Eh
   *** GEOMETRY OPTIMIZATION CONVERGED AFTER 152 ITERATIONS ***

 final structure:
================
101
 xtb: 6.7.1 (edcfbbe)
N          -11.73815961206618       -7.26705122002132       -0.35234056218430
C          -10.79907587874813       -6.60820571771630       -0.29511286252091
C           -9.64576733190150       -5.79919912124415       -0.22441652729391
C           -8.61615202585590       -6.12385731078359        0.66238896376336
C           -7.48976427051111       -5.33102187736758        0.72343881898116
C           -7.36351110843608       -4.20065177071626       -0.08622199272561
C           -6.15741723746074       -3.36416052477524       -0.01680582630114
C           -4.89073038710353       -3.95956970092798        0.07726942931903
C           -3.76784755678424       -3.17525353077197        0.11075009065378
C           -3.87142684454227       -1.77971149881592        0.07096153621378
C           -5.13672832442080       -1.15055621450204        0.01099666732635
C           -6.26053123521873       -1.98403311933629       -0.04823295778143
C           -5.23197593205040        0.30052274032206        0.02767119350056
C           -6.46918164569181        0.95067143781736        0.09165006037678
C           -6.58777301339708        2.32863557127483        0.14148275954720
C           -7.90958871467701        2.96509770690715        0.20928363573879
C           -8.92124661444328        2.42572921770592        1.00631571508152
C          -10.16102064549370        3.02481585086588        1.07875968039169
C          -10.41520393593402        4.18506991710136        0.34343331149902
C          -11.68022333729248        4.80532155929282        0.41438368288494
N          -12.70878476714375        5.31303395280902        0.47212835963443
C           -9.41215717672943        4.73230403218890       -0.46040669924465
C           -8.17515236052806        4.12622179419873       -0.51934584338805
C           -5.42337689748848        3.10688532570937        0.14313151309928
C           -4.19258742982274        2.50643458242935        0.08780305084868
C           -4.06285512970032        1.11125901778293        0.01211620075653
C           -2.81063321156909        0.43903573805246       -0.03542911083056
C           -2.71722062874382       -0.95013339555470        0.05701692618128
N           -1.41347243518904       -1.33322428705659        0.08810543758114
C           -0.71145165828821       -0.22944422159662       -0.00300886136543
C            0.74243401998827       -0.21040737888380       -0.02223738691145
C            1.47407961398230        0.65081066835869       -0.83843124489153
C            2.85349464909176        0.62029622117389       -0.82562576348519
C            3.54789211750844       -0.26916813630441       -0.00561689700332
C            5.01482343707888       -0.28936328857618        0.00803078368048
C            5.74909947492580        0.89391193881835       -0.07882555465312
C            7.12739556627442        0.88064052293311       -0.06244313408923
C            7.82377346761874       -0.32587881676703        0.02929399050855
N            9.22043721058998       -0.34404620855543        0.03915755009661
C            9.90473638770151       -1.26915396909388        0.83848188272257
C            9.42518592155191       -1.59972698021055        2.10603709967930
C           10.10468297027153       -2.51057909536381        2.89197902999683
C           11.27237765707832       -3.09979362531685        2.43437437321009
C           11.75459022653184       -2.77285181825093        1.17708207190919
C           11.07744416124394       -1.86958656337234        0.38034638428925
C            9.94018186692137        0.56053912037659       -0.75239742764726
C            9.48635452967603        0.90270815462888       -2.02635104324697
C           10.20066832437830        1.79369600432110       -2.80417824802452
C           11.37816481088720        2.35105334013187       -2.33205610553517
C           11.83524223735714        2.01206351420402       -1.06856482522754
C           11.12325736932895        1.12875468240984       -0.27985353477503
C            7.09477898260081       -1.51376665608580        0.11093285887410
C            5.71648842792243       -1.49136522781128        0.10619170734463
C            2.80946382002911       -1.14422857342233        0.79270738805649
C            1.43125965093047       -1.11936201760627        0.78204874498338
N           -1.51053632591450        0.88861920536307       -0.08603994074657
C           -1.03953776701547        2.21529127673700       -0.19978804056340
C           -0.29102236250613        2.77100115209022        0.83050130455015
C            0.19548232883664        4.06039934967900        0.70350660161416
C           -0.06159870188947        4.79322724783545       -0.44347250451060
C           -0.80702031442805        4.23619202118041       -1.47079594422062
C           -1.29555346001426        2.94740114904075       -1.35550977768488
C           -8.40034604687187       -3.88491022322251       -0.96646090560557
C           -9.52992002736579       -4.67212686669316       -1.04169186043351
H           -8.71195004515893       -6.99462883453460        1.29468729560877
H           -6.70273655237980       -5.57696953992623        1.42038507480111
H           -4.80436554235659       -5.03576952226341        0.08808949448556
H           -2.77964843147541       -3.60665099390363        0.15716606165471
H           -7.24909826013039       -1.55756378566728       -0.10431916590067
H           -7.37668174434911        0.36952871303651        0.09233739842642
H           -8.72432602676450        1.54062096398821        1.59258814873908
H          -10.93817334728260        2.60803890337067        1.70285745849675
H           -9.61535140394625        5.62693344438751       -1.03098896949678
H           -7.40775345737755        4.54490767233878       -1.15293166953780
H           -5.49398654947915        4.18129222050670        0.22232291149943
H           -3.30592326915104        3.11864012078480        0.12039268153071
H            0.96629252414217        1.33077632058530       -1.50577161657802
H            3.40198256315312        1.28016607194232       -1.48138489814355
H            5.23111501676598        1.84049620714089       -0.12704031576768
H            7.67888522800756        1.80821984497232       -0.11401474138966
H            8.52074641572733       -1.13408390020947        2.46991564572332
H            9.72402250168227       -2.75461719534386        3.87323268105196
H           11.80304186584500       -3.80786703403021        3.05314176284551
H           12.66125325150531       -3.23098148474099        0.80907781791678
H           11.45123659967811       -1.62367170678977       -0.60305723757361
H            8.57476457228240        0.46094211743170       -2.40186699379816
H            9.83952445067417        2.04694001106639       -3.79051229906692
H           11.93598712945980        3.04355268278231       -2.94454451513456
H           12.74961882623936        2.44519332197413       -0.68956324985478
H           11.47784732068365        0.87305931455785        0.70816088429965
H            7.62086565735668       -2.45552038050383        0.17017816706995
H            5.17367607028469       -2.42425834519594        0.14517857414524
H            3.32391143039557       -1.83638251529069        1.44267309644027
H            0.86281561347013       -1.79708649492039        1.40087654580385
H           -0.09492560845820        2.19039888963811        1.71988187589157
H            0.77574241410831        4.49198787220843        1.50495353939683
H            0.31987543148750        5.79846432414716       -0.53876957331557
H           -1.00618859086941        4.80372380743980       -2.36736764702427
H           -1.87557282813111        2.50102058651319       -2.15069272942162
H           -8.30726368676280       -3.02541732730210       -1.61352420509301
H          -10.32649641603757       -4.42868840715232       -1.72984171072648

          :  Hamiltonian                  GFN2-xTB          :
         :: gradient norm              0.000078153806 Eh/a0 ::
         :: HOMO-LUMO gap              1.763878795866 eV    ::
         :: SCC energy              -162.970464810677 Eh    ::
         :: -> dispersion             -0.142939947131 Eh    ::
         :: -> Gsolv                  -0.076289325228 Eh    ::
         :: repulsion energy           3.090471301865 Eh    ::

    * Orbital Energies and Occupations

         #    Occupation            Energy/Eh            Energy/eV
      -------------------------------------------------------------
         1        2.0000           -0.6936852             -18.8761
       ...           ...                  ...                  ...
       137        2.0000           -0.4132379             -11.2448
       138        2.0000           -0.4112629             -11.1910
       139        2.0000           -0.4098692             -11.1531
       140        2.0000           -0.4094366             -11.1413
       141        2.0000           -0.4083067             -11.1106
       142        2.0000           -0.4055251             -11.0349
       143        2.0000           -0.4053864             -11.0311
       144        2.0000           -0.4017310             -10.9317
       145        2.0000           -0.3952716             -10.7559
       146        2.0000           -0.3895308             -10.5997
       147        2.0000           -0.3845421             -10.4639
       148        2.0000           -0.3696236             -10.0580
       149        2.0000           -0.3499069              -9.5215 (HOMO)
       150                         -0.2850855              -7.7576 (LUMO)
       151                         -0.2791175              -7.5952
       152                         -0.2655670              -7.2264
       153                         -0.2561999              -6.9716
       154                         -0.2505552              -6.8180
       155                         -0.2429075              -6.6098
       156                         -0.2427700              -6.6061
       157                         -0.2425558              -6.6003
       158                         -0.2411597              -6.5623
       159                         -0.2312425              -6.2924
       160                         -0.2294334              -6.2432
       ...                                ...                  ...
       293                          1.1592305              31.5443
      -------------------------------------------------------------
                  HL-Gap            0.0648214 Eh            1.7639 eV

     #   Z          covCN         q      C6AA      α(0)
     1   7 N        0.911    -0.278    27.177     7.540
     2   6 C        1.912     0.118    28.197     8.576
     3   6 C        2.973     0.013    27.721     8.636
     4   6 C        2.924    -0.019    28.480     8.752
     5   6 C        2.923    -0.029    28.733     8.790
     6   6 C        2.977     0.023    27.493     8.601
     7   6 C        2.975     0.006    27.877     8.661
     8   6 C        2.921    -0.034    28.848     8.808
     9   6 C        2.919    -0.032    28.799     8.800
    10   6 C        2.985    -0.002    28.059     8.689
    11   6 C        2.978    -0.003    28.091     8.694
    12   6 C        2.927    -0.040    28.984     8.829
    13   6 C        2.978     0.000    28.018     8.683
    14   6 C        2.928    -0.039    28.957     8.825
    15   6 C        2.974     0.006    27.875     8.660
    16   6 C        2.976     0.022    27.504     8.603
    17   6 C        2.923    -0.030    28.748     8.793
    18   6 C        2.924    -0.019    28.479     8.752
    19   6 C        2.973     0.013    27.711     8.635
    20   6 C        1.912     0.118    28.197     8.576
    21   7 N        0.911    -0.277    27.153     7.536
    22   6 C        2.924    -0.019    28.481     8.752
    23   6 C        2.923    -0.029    28.735     8.791
    24   6 C        2.921    -0.035    28.869     8.811
    25   6 C        2.917    -0.040    28.996     8.830
    26   6 C        2.978    -0.004    28.113     8.697
    27   6 C        3.074     0.022    27.440     8.589
    28   6 C        3.206     0.061    26.066     8.315
    29   7 N        1.894    -0.316    29.036     7.989
    30   6 C        3.192     0.138    24.549     8.080
    31   6 C        2.974    -0.005    28.143     8.702
    32   6 C        2.920    -0.036    28.891     8.814
    33   6 C        2.924    -0.035    28.880     8.813
    34   6 C        2.975     0.013    27.708     8.634
    35   6 C        2.975     0.000    28.015     8.682
    36   6 C        2.924    -0.034    28.858     8.810
    37   6 C        2.920    -0.049    29.212     8.863
    38   6 C        2.923     0.065    26.546     8.449
    39   7 N        2.752    -0.078    22.751     7.084
    40   6 C        2.923     0.065    26.538     8.448
    41   6 C        2.922    -0.048    29.189     8.860
    42   6 C        2.919    -0.030    28.752     8.793
    43   6 C        2.919    -0.039    28.969     8.826
    44   6 C        2.919    -0.030    28.751     8.793
    45   6 C        2.922    -0.048    29.185     8.859
    46   6 C        2.923     0.065    26.537     8.448
    47   6 C        2.922    -0.048    29.189     8.860
    48   6 C        2.919    -0.030    28.753     8.793
    49   6 C        2.919    -0.039    28.971     8.826
    50   6 C        2.919    -0.030    28.752     8.793
    51   6 C        2.922    -0.048    29.184     8.859
    52   6 C        2.920    -0.049    29.206     8.862
    53   6 C        2.924    -0.034    28.850     8.808
    54   6 C        2.923    -0.034    28.846     8.808
    55   6 C        2.925    -0.029    28.734     8.791
    56   7 N        2.840    -0.052    22.235     7.003
    57   6 C        2.913     0.066    26.527     8.446
    58   6 C        2.921    -0.038    28.933     8.821
    59   6 C        2.920    -0.024    28.615     8.772
    60   6 C        2.919    -0.028    28.701     8.785
    61   6 C        2.920    -0.026    28.649     8.777
    62   6 C        2.921    -0.037    28.922     8.819
    63   6 C        2.923    -0.030    28.751     8.793
    64   6 C        2.924    -0.019    28.485     8.752
    65   1 H        0.926     0.042     2.416     2.431
    66   1 H        0.926     0.049     2.330     2.387
    67   1 H        0.926     0.039     2.460     2.453
    68   1 H        0.926     0.048     2.339     2.392
    69   1 H        0.926     0.042     2.425     2.435
    70   1 H        0.926     0.044     2.396     2.421
    71   1 H        0.926     0.048     2.340     2.392
    72   1 H        0.926     0.042     2.418     2.431
    73   1 H        0.926     0.043     2.412     2.429
    74   1 H        0.926     0.049     2.330     2.387
    75   1 H        0.926     0.038     2.471     2.458
    76   1 H        0.926     0.034     2.523     2.484
    77   1 H        0.926     0.029     2.605     2.524
    78   1 H        0.926     0.040     2.454     2.450
    79   1 H        0.926     0.037     2.488     2.467
    80   1 H        0.926     0.034     2.536     2.490
    81   1 H        0.926     0.032     2.556     2.500
    82   1 H        0.926     0.034     2.536     2.490
    83   1 H        0.926     0.032     2.559     2.502
    84   1 H        0.926     0.033     2.541     2.493
    85   1 H        0.926     0.032     2.565     2.504
    86   1 H        0.926     0.032     2.558     2.501
    87   1 H        0.926     0.033     2.537     2.491
    88   1 H        0.926     0.032     2.560     2.502
    89   1 H        0.926     0.033     2.540     2.492
    90   1 H        0.926     0.032     2.564     2.504
    91   1 H        0.926     0.033     2.538     2.491
    92   1 H        0.926     0.037     2.484     2.465
    93   1 H        0.926     0.042     2.425     2.435
    94   1 H        0.926     0.043     2.404     2.425
    95   1 H        0.926     0.039     2.466     2.456
    96   1 H        0.926     0.048     2.350     2.397
    97   1 H        0.926     0.048     2.344     2.394
    98   1 H        0.926     0.048     2.344     2.394
    99   1 H        0.926     0.042     2.420     2.433
   100   1 H        0.926     0.048     2.344     2.394
   101   1 H        0.926     0.042     2.421     2.433

molecular dipole:
                 x           y           z       tot (Debye)
 q only:        4.399       1.564      -0.072
   full:        4.939       1.939      -0.100      13.488

 projected vibrational frequencies (cm⁻¹)
eigval :       -0.00    -0.00    -0.00     0.00     0.00     0.00
eigval :        3.24     7.33     9.71    15.88    20.03    23.07
eigval :       28.16    29.21    34.55    36.38    41.30    46.14
eigval :       49.48    50.64    53.03    62.50    66.05    69.35
eigval :       78.75    83.84    92.59   100.79   102.94   106.06
eigval :      107.10   116.69   137.51   139.66   144.58   154.10
eigval :      171.01   184.82   191.70   201.35   203.03   221.64
eigval :      232.58   242.25   248.20   250.98   269.24   286.85
eigval :      301.53   309.95   313.93   321.49   328.31   350.62
eigval :      363.79   367.98   371.32   375.87   376.83   377.87
eigval :      379.73   384.89   388.21   397.40   402.18   416.76
eigval :      420.78   424.44   437.23   447.40   456.81   465.25
eigval :      470.01   481.64   484.73   490.84   502.55   507.69
eigval :      519.73   532.10   534.57   541.40   543.11   548.98
eigval :      566.29   569.34   582.24   584.13   587.74   589.39
eigval :      593.57   595.83   603.39   604.63   612.19   615.94
eigval :      627.92   632.15   641.64   656.48   659.40   664.41
eigval :      668.22   679.09   681.53   684.18   685.69   689.32
eigval :      695.26   701.71   708.16   715.87   734.83   735.62
eigval :      757.41   758.91   768.13   768.91   793.08   805.04
eigval :      807.96   811.14   814.87   829.41   833.95   839.28
eigval :      858.83   865.70   866.55   870.21   872.02   873.00
eigval :      874.29   875.58   876.76   884.63   891.98   892.51
eigval :      903.04   909.48   912.80   914.94   915.17   918.83
eigval :      920.26   920.84   923.69   923.98   926.95   927.51
eigval :      927.98   929.35   929.64   930.11   930.64   930.96
eigval :      934.24   946.96   950.15   976.19   987.15   997.70
eigval :     1003.60  1008.48  1011.64  1025.98  1038.74  1069.99
eigval :     1078.82  1079.07  1080.62  1081.73  1082.74  1100.12
eigval :     1115.78  1120.94  1123.03  1133.13  1134.51  1136.22
eigval :     1139.43  1146.59  1157.88  1177.93  1179.67  1180.69
eigval :     1180.97  1184.81  1186.41  1187.28  1189.08  1193.50
eigval :     1193.99  1201.41  1202.59  1215.39  1221.47  1231.89
eigval :     1238.28  1243.98  1262.83  1264.96  1268.00  1273.29
eigval :     1274.44  1277.03  1277.37  1278.19  1285.89  1292.78
eigval :     1298.54  1306.59  1308.02  1311.26  1312.64  1312.82
eigval :     1314.61  1318.39  1323.85  1323.86  1325.93  1331.68
eigval :     1334.35  1348.72  1374.02  1389.64  1390.47  1395.67
eigval :     1406.96  1411.68  1414.61  1425.41  1431.82  1434.52
eigval :     1436.34  1440.86  1459.10  1469.81  1472.60  1475.05
eigval :     1481.32  1482.93  1491.50  1495.20  1518.96  1534.96
eigval :     1543.21  1546.38  1548.90  1553.47  1561.44  1567.61
eigval :     1575.53  1577.25  1579.20  1580.71  1582.15  1583.42
eigval :     1591.28  1591.29  1591.97  1596.49  1598.69  1602.77
eigval :     2358.73  2359.10  3071.24  3071.46  3072.11  3072.50
eigval :     3074.93  3076.97  3078.96  3079.42  3080.46  3080.76
eigval :     3081.41  3081.81  3081.88  3081.93  3082.86  3083.54
eigval :     3083.99  3084.27  3085.12  3085.78  3086.70  3087.95
eigval :     3089.77  3091.32  3092.12  3093.08  3093.21  3093.95
eigval :     3094.41  3094.48  3094.84  3096.76  3098.98  3099.99
eigval :     3102.08  3112.41  3117.98

   temp. (K)  partition function   enthalpy   heat capacity  entropy
                                   cal/mol     cal/K/mol   cal/K/mol   J/K/mol
 298.15  VIB  0.245E+27            30842.546    187.641    197.082
         ROT  0.350E+09              888.752      2.981     42.080
         INT  0.858E+35            31731.298    190.622    239.162
         TR   0.226E+29             1481.254      4.968     45.954
         TOT                       33212.5520   195.5905   285.1164  1192.9268

       T/K    H(0)-H(T)+PV         H(T)/Eh          T*S/Eh         G(T)/Eh
   ------------------------------------------------------------------------
    298.15    0.529276E-01    0.817380E+00    0.135468E+00    0.681912E+00
   ------------------------------------------------------------------------

         :::::::::::::::::::::::::::::::::::::::::::::::::::::
         ::                  THERMODYNAMIC                  ::
         :::::::::::::::::::::::::::::::::::::::::::::::::::::
         :: total free energy        -159.198081181046 Eh   ::
         ::.................................................::
         :: total energy             -159.879993504671 Eh   ::
         :: zero point energy           0.764452732859 Eh   ::
         :: G(RRHO) w/o ZPVE           -0.082540409235 Eh   ::
         :: G(RRHO) contrib.            0.681912323624 Eh   ::
         :::::::::::::::::::::::::::::::::::::::::::::::::::::

           -------------------------------------------------
          | TOTAL ENERGY             -159.879993504671 Eh   |
          | TOTAL ENTHALPY           -159.062613201214 Eh   |
          | TOTAL FREE ENERGY        -159.198081181046 Eh   |
          | GRADIENT NORM               0.000078223915 Eh/α |
          | HOMO-LUMO GAP               1.763879224790 eV   |
           -------------------------------------------------

 * finished run on 2025/07/20 at 03:06:59.098
