   * xtb version 6.7.1 (edcfbbe) compiled by 'albert@albert-system' on 2024-07-22

   ID    Z sym.   atoms
    1    7 N      1, 21, 29, 39, 56
    2    6 C      2-20, 22-28, 30-38, 40-55, 57-64
    3    1 H      65-101

          program call               : xtb data2507/toluene/TBPM2CN/TBPM2CN_toluene_T1_crest.xyz --gfn 2 --uhf 2 --gbsa toluene --ohess vtight --parallel 40 --molden --ceasefiles --namespace data2507/toluene/TBPM2CN/TBPM2CN_toluene_T1_finalOpt
      * Solvation model:               GBSA
        Solvent                        toluene
        Solvent mass                       9.2140E+01 g/mol
          :  Hamiltonian                  GFN2-xTB          :
 * total energy  :  -159.8036667 Eh     change       -0.2404477E-08 Eh
 * total energy  :  -159.8037566 Eh     change       -0.8991502E-04 Eh
 * total energy  :  -159.8037937 Eh     change       -0.3705291E-04 Eh
 * total energy  :  -159.8038051 Eh     change       -0.1141037E-04 Eh
 * total energy  :  -159.8038154 Eh     change       -0.1034281E-04 Eh
 * total energy  :  -159.8038279 Eh     change       -0.1246464E-04 Eh
 * total energy  :  -159.8038340 Eh     change       -0.6129605E-05 Eh
 * total energy  :  -159.8038446 Eh     change       -0.1057015E-04 Eh
 * total energy  :  -159.8038487 Eh     change       -0.4077052E-05 Eh
 * total energy  :  -159.8038535 Eh     change       -0.4840263E-05 Eh
 * total energy  :  -159.8038626 Eh     change       -0.6090159E-06 Eh
 * total energy  :  -159.8038631 Eh     change       -0.5315034E-06 Eh
 * total energy  :  -159.8038635 Eh     change       -0.4005890E-06 Eh
 * total energy  :  -159.8038639 Eh     change       -0.3713525E-06 Eh
 * total energy  :  -159.8038639 Eh     change        0.3591148E-07 Eh
 * total energy  :  -159.8038642 Eh     change       -0.3314973E-06 Eh
 * total energy  :  -159.8038639 Eh     change        0.2856147E-06 Eh
 * total energy  :  -159.8038646 Eh     change       -0.6882119E-06 Eh
 * total energy  :  -159.8038647 Eh     change       -0.8423706E-07 Eh
   *** GEOMETRY OPTIMIZATION CONVERGED AFTER 26 ITERATIONS ***

 final structure:
================
101
 xtb: 6.7.1 (edcfbbe)
N          -10.86399155555941       -7.34961726567575       -0.50226371000642
C           -9.94559194167297       -6.65921136019723       -0.44219961412522
C           -8.82238496088400       -5.81582539041288       -0.36876276864296
C           -7.71017396816608       -6.18769329223313        0.39601116109606
C           -6.61334691977327       -5.35876513702820        0.46134088495405
C           -6.58845187582095       -4.13716744642947       -0.22154284830468
C           -5.41912920967849       -3.26024226910378       -0.14060909974591
C           -4.12625120394468       -3.79730041757948       -0.11446205481325
C           -3.03885501589863       -2.96297811641941       -0.04605097580411
C           -3.20489774732471       -1.57333183855507        0.00904792803756
C           -4.49823197617137       -0.99900390551759       -0.00822884508658
C           -5.57940358968328       -1.87618018582425       -0.08688140069875
C           -4.65871425335776        0.45136935141243        0.07469682386528
C           -5.91140940702202        1.04044530901789        0.08130569014326
C           -6.11774039112425        2.42511279442913        0.16967214808623
C           -7.44989056694351        2.98923209667268        0.14850879536033
C           -8.56372086129952        2.26918668149931        0.62255645236866
C           -9.82634452098171        2.80458043659831        0.60125936125411
C          -10.03944226011757        4.09611086135536        0.09150739170006
C          -11.32625629692885        4.64696346574469        0.06184363562937
N          -12.38548421803204        5.10250183346161        0.03627293378597
C           -8.93984815896540        4.82768783129961       -0.38743729243705
C           -7.68067778180424        4.28543103157173       -0.35212919437045
C           -4.97447354099598        3.24557176583914        0.28665799129092
C           -3.72322333645627        2.70734395222546        0.28555464140502
C           -3.50882662238092        1.31175986749335        0.15361805000784
C           -2.24556099345103        0.71353204464647        0.10752914048370
C           -2.08576902484172       -0.70247483489442        0.07369213326129
N           -0.79393284924248       -1.03126269753432        0.10190357538590
C           -0.10304911365528        0.10860379842618        0.12228606972660
C            1.31549535384909        0.11656973346205        0.08995473631109
C            2.11967825241068        1.23564195961840       -0.22071144503432
C            3.48463910675832        1.13815061176771       -0.23795469979258
C            4.15005250548821       -0.07409528960118        0.03524070996000
C            5.59144115016295       -0.16315959536609        0.01061940279066
C            6.40078810077982        0.95226681472818        0.29799261161237
C            7.76990023894594        0.87202244224827        0.27395529039238
C            8.41183044110898       -0.33429252886704       -0.04605895102278
N            9.79458429259964       -0.41693161016417       -0.07613811783173
C           10.44230460897834       -1.60962725497314        0.27188692821055
C            9.96889433434044       -2.38879720145603        1.32917571320079
C           10.61592307598058       -3.56103822983057        1.66870290232803
C           11.73992624885015       -3.97067217572752        0.96784334937773
C           12.21554596681066       -3.19762755014186       -0.08038186604557
C           11.57441317948875       -2.02544910710382       -0.43101168930436
C           10.56247418040386        0.69160789737324       -0.45727189827854
C           10.13951043100797        1.51994793984589       -1.49837558747001
C           10.90303908520706        2.60941499168758       -1.87021469605776
C           12.09454066268334        2.88647924574554       -1.21759015183402
C           12.52059669932804        2.06329271881790       -0.18641264776534
C           11.76347080837133        0.97305680870976        0.19603253029047
C            7.61651705244106       -1.45393766438147       -0.33528973753178
C            6.24785526748768       -1.36800335193231       -0.30421066304942
C            3.34388502407124       -1.19816350459162        0.31701028489177
C            1.98206733773843       -1.10785053157300        0.34576880651560
N           -0.96299679032671        1.21319450070016        0.13028498083469
C           -0.57709883344587        2.56721166275172        0.22555587307297
C           -0.03144752539913        3.04804442018034        1.41186308148681
C            0.35817684892184        4.37271459299308        1.49860208277421
C            0.20463416803014        5.21777428642779        0.41114429243072
C           -0.34131357831349        4.73809126603113       -0.76955007307945
C           -0.73239754006869        3.41519704675814       -0.86846476390785
C           -7.70726706319347       -3.77636295058961       -0.98129774269491
C           -8.80827460645550       -4.59877731273008       -1.06049471827251
H           -7.72521139035842       -7.12480922845856        0.93372003594586
H           -5.76892438527607       -5.64459727129986        1.07030952364606
H           -3.98605955567744       -4.86569577811475       -0.17910810233241
H           -2.03196756272388       -3.35119242410991       -0.03887008398896
H           -6.58730264364858       -1.49450481027255       -0.08023462731620
H           -6.78565665081147        0.41945271407902       -0.01951331916523
H           -8.42250201571738        1.28696415608629        1.04815784559122
H          -10.66803770984288        2.24273598226376        0.98177401086847
H           -9.10123506181156        5.81839871527241       -0.78891061487484
H           -6.85520537381718        4.85545198388574       -0.75110936961214
H           -5.09183274309441        4.31070338230234        0.41678811328138
H           -2.87101553905972        3.35621051162963        0.40496453337002
H            1.66069239032529        2.17413261371745       -0.48449855369739
H            4.06112349347354        2.00799607882943       -0.51462563578481
H            5.93864031640240        1.88281831224095        0.58862687519659
H            8.36591843548450        1.73555770728162        0.52974701079245
H            9.10395274852544       -2.06117897109787        1.88671092569426
H           10.24551122101742       -4.15413293255343        2.49150051691568
H           12.24317909357509       -4.88655009783920        1.23791724052714
H           13.08719271146673       -3.51367302587162       -0.63385437795141
H           11.93770388981065       -1.43010820009761       -1.25551761814148
H            9.22026830153263        1.29411976282591       -2.01828505929097
H           10.57006518639360        3.24108202291563       -2.68030561691919
H           12.68874985492820        3.73813553811207       -1.51199519663877
H           13.44536868630169        2.27616805484677        0.32877096840267
H           12.08959169882538        0.33936954194179        1.00743070881628
H            8.09266272619813       -2.38272576606770       -0.61279498109688
H            5.66543397214281       -2.23502645543751       -0.57396246595357
H            3.81155630979700       -2.14171355419413        0.55357960251753
H            1.37390574833257       -1.96793474466686        0.57750658628855
H            0.08549108132895        2.37906704058122        2.25185585432266
H            0.77963933710927        4.74537794600325        2.41999113517969
H            0.50910736258862        6.25083526720205        0.48311738488740
H           -0.46141025281952        5.39436790764446       -1.61845179444481
H           -1.15953962243485        3.02967294450230       -1.78297815227729
H           -7.69869228580654       -2.85041321347336       -1.53694030492054
H           -9.66471274542138       -4.31635453551973       -1.65592523684378

          :  Hamiltonian                  GFN2-xTB          :
         :: gradient norm              0.000065473135 Eh/a0 ::
         :: HOMO-LUMO gap              0.143388465346 eV    ::
         :: SCC energy              -162.874903260848 Eh    ::
         :: -> dispersion             -0.142817696560 Eh    ::
         :: -> Gsolv                  -0.082541650824 Eh    ::
         :: repulsion energy           3.071038477192 Eh    ::

    * Orbital Energies and Occupations

         #    Occupation            Energy/Eh            Energy/eV
      -------------------------------------------------------------
         1        2.0000           -0.6908691             -18.7995
       ...           ...                  ...                  ...
       138        2.0000           -0.4134731             -11.2512
       139        2.0000           -0.4132074             -11.2439
       140        2.0000           -0.4125924             -11.2272
       141        2.0000           -0.4120786             -11.2132
       142        2.0000           -0.4085828             -11.1181
       143        2.0000           -0.4081638             -11.1067
       144        2.0000           -0.3961346             -10.7794
       145        2.0000           -0.3927482             -10.6872
       146        2.0000           -0.3856830             -10.4950
       147        2.0000           -0.3847137             -10.4686
       148        1.9951           -0.3681893             -10.0189
       149        1.0049           -0.3581022              -9.7445
       150        0.9412           -0.2840653              -7.7298 (HOMO)
       151        0.0588           -0.2787949              -7.5864 (LUMO)
       152        0.0000           -0.2681048              -7.2955
       153                         -0.2514432              -6.8421
       154                         -0.2483440              -6.7578
       155                         -0.2446792              -6.6581
       156                         -0.2414888              -6.5712
       157                         -0.2412217              -6.5640
       158                         -0.2394736              -6.5164
       159                         -0.2367014              -6.4410
       160                         -0.2353618              -6.4045
       161                         -0.2343373              -6.3766
       ...                                ...                  ...
       293                          1.1650966              31.7039
      -------------------------------------------------------------
                  HL-Gap            0.0052705 Eh            0.1434 eV

     #   Z          covCN         q      C6AA      α(0)
     1   7 N        0.911    -0.293    27.547     7.591
     2   6 C        1.912     0.114    28.283     8.589
     3   6 C        2.972     0.007    27.851     8.657
     4   6 C        2.923    -0.022    28.551     8.762
     5   6 C        2.922    -0.031    28.785     8.798
     6   6 C        2.975     0.016    27.641     8.624
     7   6 C        2.974     0.009    27.815     8.651
     8   6 C        2.920    -0.035    28.868     8.811
     9   6 C        2.919    -0.031    28.771     8.796
    10   6 C        2.983    -0.005    28.144     8.702
    11   6 C        2.975    -0.000    28.031     8.685
    12   6 C        2.927    -0.042    29.035     8.837
    13   6 C        2.974    -0.003    28.101     8.695
    14   6 C        2.925    -0.042    29.031     8.836
    15   6 C        2.970     0.002    27.983     8.677
    16   6 C        2.972     0.007    27.866     8.659
    17   6 C        2.921    -0.037    28.911     8.817
    18   6 C        2.921    -0.026    28.654     8.778
    19   6 C        2.971    -0.003    28.102     8.695
    20   6 C        1.911     0.109    28.404     8.607
    21   7 N        0.911    -0.317    28.151     7.674
    22   6 C        2.921    -0.026    28.657     8.779
    23   6 C        2.921    -0.036    28.906     8.817
    24   6 C        2.917    -0.039    28.959     8.825
    25   6 C        2.913    -0.041    29.024     8.834
    26   6 C        2.973    -0.018    28.449     8.749
    27   6 C        3.044     0.036    27.157     8.547
    28   6 C        3.176     0.075    25.938     8.317
    29   7 N        1.886    -0.307    28.801     7.956
    30   6 C        3.151     0.132    24.861     8.155
    31   6 C        2.971    -0.006    28.171     8.706
    32   6 C        2.914    -0.040    29.005     8.831
    33   6 C        2.919    -0.034    28.844     8.807
    34   6 C        2.972     0.009    27.821     8.652
    35   6 C        2.972     0.012    27.745     8.640
    36   6 C        2.921    -0.032    28.804     8.801
    37   6 C        2.917    -0.043    29.073     8.842
    38   6 C        2.924     0.062    26.612     8.460
    39   7 N        2.752    -0.033    21.876     6.947
    40   6 C        2.926     0.063    26.597     8.458
    41   6 C        2.921    -0.041    29.018     8.834
    42   6 C        2.919    -0.026    28.648     8.777
    43   6 C        2.919    -0.030    28.751     8.793
    44   6 C        2.919    -0.026    28.644     8.777
    45   6 C        2.921    -0.041    29.021     8.834
    46   6 C        2.926     0.063    26.597     8.458
    47   6 C        2.921    -0.041    29.017     8.834
    48   6 C        2.919    -0.026    28.649     8.777
    49   6 C        2.919    -0.030    28.753     8.793
    50   6 C        2.919    -0.026    28.645     8.777
    51   6 C        2.921    -0.041    29.019     8.834
    52   6 C        2.917    -0.043    29.069     8.841
    53   6 C        2.921    -0.032    28.798     8.800
    54   6 C        2.917    -0.034    28.846     8.807
    55   6 C        2.924    -0.032    28.791     8.799
    56   7 N        2.820    -0.068    22.557     7.054
    57   6 C        2.911     0.068    26.488     8.439
    58   6 C        2.921    -0.038    28.946     8.823
    59   6 C        2.919    -0.025    28.637     8.775
    60   6 C        2.919    -0.029    28.737     8.791
    61   6 C        2.919    -0.026    28.662     8.779
    62   6 C        2.920    -0.038    28.939     8.822
    63   6 C        2.922    -0.032    28.789     8.799
    64   6 C        2.923    -0.022    28.552     8.763
    65   1 H        0.926     0.038     2.477     2.461
    66   1 H        0.926     0.046     2.375     2.410
    67   1 H        0.926     0.041     2.440     2.443
    68   1 H        0.926     0.050     2.319     2.382
    69   1 H        0.926     0.038     2.470     2.457
    70   1 H        0.926     0.037     2.492     2.469
    71   1 H        0.926     0.034     2.530     2.487
    72   1 H        0.926     0.026     2.638     2.540
    73   1 H        0.926     0.027     2.627     2.534
    74   1 H        0.926     0.036     2.507     2.476
    75   1 H        0.926     0.031     2.571     2.507
    76   1 H        0.926     0.029     2.600     2.522
    77   1 H        0.926     0.030     2.585     2.514
    78   1 H        0.926     0.041     2.438     2.442
    79   1 H        0.926     0.046     2.372     2.408
    80   1 H        0.926     0.044     2.398     2.421
    81   1 H        0.926     0.044     2.394     2.420
    82   1 H        0.926     0.044     2.399     2.422
    83   1 H        0.926     0.042     2.421     2.433
    84   1 H        0.926     0.044     2.402     2.424
    85   1 H        0.926     0.043     2.412     2.429
    86   1 H        0.926     0.044     2.398     2.422
    87   1 H        0.926     0.044     2.401     2.423
    88   1 H        0.926     0.042     2.422     2.433
    89   1 H        0.926     0.044     2.401     2.423
    90   1 H        0.926     0.043     2.410     2.428
    91   1 H        0.926     0.044     2.396     2.420
    92   1 H        0.926     0.047     2.361     2.403
    93   1 H        0.926     0.043     2.406     2.426
    94   1 H        0.926     0.050     2.316     2.380
    95   1 H        0.926     0.039     2.468     2.457
    96   1 H        0.926     0.047     2.359     2.402
    97   1 H        0.926     0.046     2.364     2.404
    98   1 H        0.926     0.046     2.372     2.409
    99   1 H        0.926     0.040     2.449     2.447
   100   1 H        0.926     0.042     2.417     2.431
   101   1 H        0.926     0.036     2.501     2.473

molecular dipole:
                 x           y           z       tot (Debye)
 q only:       13.996       0.450       0.150
   full:       14.395       0.898       0.175      36.662

 projected vibrational frequencies (cm⁻¹)
eigval :       -0.00    -0.00    -0.00     0.00     0.00     0.00
eigval :      -16.16    -5.38     6.69     7.06    17.31    21.61
eigval :       23.64    29.69    31.18    36.08    40.37    47.40
eigval :       48.84    50.36    54.20    62.98    63.81    71.38
eigval :       75.14    86.97    97.15   101.06   101.50   108.58
eigval :      111.30   123.65   136.48   140.01   146.49   152.06
eigval :      165.69   183.18   194.77   204.32   207.41   226.77
eigval :      231.94   233.99   245.13   249.24   263.89   281.04
eigval :      293.56   307.90   313.93   319.63   329.76   342.44
eigval :      364.62   367.26   368.85   370.14   374.10   376.39
eigval :      378.24   379.99   387.20   394.36   399.79   409.06
eigval :      415.07   421.01   423.60   438.64   444.37   454.89
eigval :      459.35   465.70   476.80   479.46   502.22   509.52
eigval :      515.02   520.62   524.12   531.65   536.21   538.58
eigval :      552.20   564.34   580.78   581.47   585.68   588.16
eigval :      590.85   592.34   599.17   604.37   609.72   614.16
eigval :      618.04   623.51   629.80   643.90   658.75   661.44
eigval :      662.36   666.44   670.24   674.69   678.87   681.89
eigval :      683.47   690.39   692.48   709.41   725.62   728.72
eigval :      754.92   759.07   763.35   765.78   787.74   795.25
eigval :      803.84   804.48   806.91   817.41   825.99   832.38
eigval :      837.34   840.16   848.59   852.61   857.27   863.97
eigval :      871.47   873.65   875.18   878.13   896.95   899.77
eigval :      902.16   906.88   908.12   909.52   910.09   912.60
eigval :      912.81   916.86   917.31   918.52   921.02   923.64
eigval :      925.52   926.39   928.33   929.86   930.27   930.68
eigval :      935.21   935.53   937.78   965.49   980.71   983.77
eigval :      995.14  1000.64  1001.87  1008.84  1025.08  1054.84
eigval :     1058.91  1068.76  1075.36  1078.52  1079.64  1088.08
eigval :     1103.36  1113.04  1118.52  1120.63  1134.48  1136.76
eigval :     1139.59  1143.33  1147.16  1153.47  1171.45  1175.35
eigval :     1175.79  1175.82  1176.51  1179.51  1182.56  1188.93
eigval :     1191.20  1193.37  1198.09  1211.96  1219.10  1235.00
eigval :     1238.46  1243.84  1252.04  1262.62  1264.65  1268.82
eigval :     1270.72  1271.77  1273.25  1274.54  1276.03  1281.87
eigval :     1293.23  1296.18  1304.04  1306.77  1310.17  1310.98
eigval :     1313.55  1317.41  1319.38  1321.48  1323.08  1329.86
eigval :     1331.80  1342.37  1348.52  1361.16  1392.75  1400.12
eigval :     1410.60  1414.57  1422.10  1423.57  1429.59  1430.88
eigval :     1431.60  1433.15  1438.20  1442.95  1454.78  1455.52
eigval :     1457.13  1457.84  1465.77  1469.73  1475.75  1482.24
eigval :     1487.26  1499.59  1502.67  1511.57  1518.94  1528.11
eigval :     1531.44  1548.41  1563.95  1567.50  1571.49  1573.91
eigval :     1579.73  1580.20  1581.49  1585.10  1587.18  1588.34
eigval :     2296.33  2319.31  3069.11  3071.22  3076.27  3078.60
eigval :     3079.20  3079.93  3080.56  3080.64  3081.16  3082.13
eigval :     3083.26  3083.73  3084.78  3085.05  3086.01  3086.35
eigval :     3087.43  3088.08  3088.45  3088.78  3090.12  3090.64
eigval :     3091.18  3091.86  3092.68  3093.38  3099.44  3099.93
eigval :     3100.62  3100.70  3101.95  3102.21  3103.14  3108.54
eigval :     3117.41  3120.16  3121.49

   temp. (K)  partition function   enthalpy   heat capacity  entropy
                                   cal/mol     cal/K/mol   cal/K/mol   J/K/mol
 298.15  VIB  0.390E+27            31094.661    189.329    198.317
         ROT  0.354E+09              888.752      2.981     42.099
         INT  0.138E+36            31983.414    192.309    240.416
         TR   0.226E+29             1481.254      4.968     45.954
         TOT                       33464.6677   197.2776   286.3705  1198.1743

       T/K    H(0)-H(T)+PV         H(T)/Eh          T*S/Eh         G(T)/Eh
   ------------------------------------------------------------------------
    298.15    0.533293E-01    0.813525E+00    0.136064E+00    0.677461E+00
   ------------------------------------------------------------------------

         :::::::::::::::::::::::::::::::::::::::::::::::::::::
         ::                  THERMODYNAMIC                  ::
         :::::::::::::::::::::::::::::::::::::::::::::::::::::
         :: total free energy        -159.126403531346 Eh   ::
         ::.................................................::
         :: total energy             -159.803864779749 Eh   ::
         :: zero point energy           0.760195782819 Eh   ::
         :: G(RRHO) w/o ZPVE           -0.082734534416 Eh   ::
         :: G(RRHO) contrib.            0.677461248403 Eh   ::
         :::::::::::::::::::::::::::::::::::::::::::::::::::::

           -------------------------------------------------
          | TOTAL ENERGY             -159.803864779749 Eh   |
          | TOTAL ENTHALPY           -158.990339654437 Eh   |
          | TOTAL FREE ENERGY        -159.126403531346 Eh   |
          | GRADIENT NORM               0.000065382450 Eh/α |
          | HOMO-LUMO GAP               0.143416799417 eV   |
           -------------------------------------------------

 * finished run on 2025/07/20 at 03:30:14.665
