   * xtb version 6.7.1 (edcfbbe) compiled by 'albert@albert-system' on 2024-07-22

   ID    Z sym.   atoms
    1    6 C      1-20, 22-30, 32-54
    2    7 N      21, 31
    3   16 S      55
    4    8 O      56, 57
    5    1 H      58-111

          program call               : xtb data2507/toluene/1CzSO/1CzSO_toluene_S0_finalOpt.xtbopt.xyz --gfn 2 --uhf 2 --gbsa toluene --ohess vtight --parallel 40 --molden --ceasefiles --namespace data2507/toluene/1CzSO/1CzSO_toluene_T1_preOpt
      * Solvation model:               GBSA
        Solvent                        toluene
        Solvent mass                       9.2140E+01 g/mol
          :  Hamiltonian                  GFN2-xTB          :
 * total energy  :  -156.2261932 Eh     change       -0.1853607E-07 Eh
 * total energy  :  -156.2307020 Eh     change       -0.4508766E-02 Eh
 * total energy  :  -156.2323356 Eh     change       -0.1633622E-02 Eh
 * total energy  :  -156.2324361 Eh     change       -0.1004920E-03 Eh
 * total energy  :  -156.2325249 Eh     change       -0.8875388E-04 Eh
 * total energy  :  -156.2325480 Eh     change       -0.2308401E-04 Eh
 * total energy  :  -156.2325715 Eh     change       -0.2352352E-04 Eh
 * total energy  :  -156.2325825 Eh     change       -0.1102717E-04 Eh
 * total energy  :  -156.2325886 Eh     change       -0.6130487E-05 Eh
 * total energy  :  -156.2325958 Eh     change       -0.7186469E-05 Eh
 * total energy  :  -156.2326447 Eh     change       -0.1657298E-05 Eh
 * total energy  :  -156.2326458 Eh     change       -0.1115741E-05 Eh
 * total energy  :  -156.2326469 Eh     change       -0.1079172E-05 Eh
 * total energy  :  -156.2326481 Eh     change       -0.1244822E-05 Eh
 * total energy  :  -156.2326493 Eh     change       -0.1204340E-05 Eh
 * total energy  :  -156.2326502 Eh     change       -0.8328509E-06 Eh
 * total energy  :  -156.2326507 Eh     change       -0.5726335E-06 Eh
 * total energy  :  -156.2326513 Eh     change       -0.5465295E-06 Eh
 * total energy  :  -156.2326513 Eh     change       -0.5290985E-08 Eh
   *** GEOMETRY OPTIMIZATION CONVERGED AFTER 44 ITERATIONS ***

 final structure:
================
111
 xtb: 6.7.1 (edcfbbe)
C           -9.00692831135489        1.36517483525359       -3.08666425239220
C           -8.44892219127188       -0.06127786679797       -3.06857226586544
C           -9.54223724133953       -0.99531027469528       -2.52676980884228
C           -8.09648647053696       -0.45560394260533       -4.51132714074531
C           -7.20901296248192       -0.19528320104041       -2.19949937591000
C           -6.59062503634772       -1.44849454224278       -2.08598031596738
C           -5.46664867665146       -1.66309971983351       -1.31401767801030
C           -4.94238828090476       -0.58443604092013       -0.61225038474970
C           -5.52923943037288        0.69647222425407       -0.73379306196807
C           -6.65428647892025        0.88468076087579       -1.51776006101135
C           -4.72063432943779        1.58850806775853        0.06050240493520
C           -4.79906719913793        2.94267387919740        0.33779076140180
C           -3.85913871865293        3.53014000049712        1.18022707163764
C           -3.88050979511689        5.01152523873922        1.52047555971599
C           -4.08217004339328        5.17346905231636        3.03525349076883
C           -2.54234070128480        5.64200612060203        1.10461140338942
C           -5.00515991901084        5.76613591313182        0.80511844373448
C           -2.86564736084477        2.71784392256621        1.74484526762905
C           -2.76440815532588        1.36609102207735        1.48468556428867
C           -3.68832286462970        0.79822803643566        0.61605242963088
N           -3.83444716123287       -0.50862676882032        0.20246282871445
C           -3.00094577522860       -1.57443429169829        0.56109108412009
C           -3.59298819178862       -2.77912444511143        1.02774316908732
C           -2.77419112891688       -3.83074252845970        1.41079371703541
C           -1.41265963567474       -3.69140573912206        1.33478391111805
C           -0.78896323914448       -2.48583635994517        0.87749862510255
C           -1.63361460318325       -1.43080099942058        0.48404346331963
C            0.62050306862761       -2.52075467829473        0.89337348052218
C            1.52489732424088       -1.50994632102004        0.51721013883237
C            2.88145518101764       -1.72053744987287        0.62560523127658
N            3.77516519540063       -0.69869936319147        0.28515402570426
C            3.68160383966087        0.61685285204009        0.68808001931933
C            2.76333457762985        1.23572048073156        1.52437313707469
C            2.91758316639790        2.58663815699580        1.78112056670666
C            3.96354259284090        3.34182239129951        1.24285492929046
C            4.12511908515415        4.82806363360839        1.51885126988117
C            4.11314685906277        5.58844035356403        0.18328807278845
C            5.46467061756655        5.05851884951363        2.23572153281077
C            3.00764113128516        5.39636359814833        2.39843706803065
C            4.90105913621106        2.69893666158681        0.43214958437275
C            4.76844207558513        1.35170444312443        0.15750194283775
C            5.55375398102513        0.41522065246801       -0.60891262400478
C            6.70708398618483        0.54290322025203       -1.36307512907531
C            7.22547854933384       -0.56710083406828       -2.02468664482749
C            8.49249431158361       -0.49990349733754       -2.86165914331112
C            8.15684238543247       -0.88099483780718       -4.31197818854816
C            9.52279594013638       -1.48647859196886       -2.29025189195945
C            9.12299215816773        0.89611955617407       -2.86876354620374
C            6.54213506009786       -1.78733631434921       -1.92251282571930
C            5.38850653617601       -1.94134936182443       -1.18079148970618
C            4.90010202090421       -0.83397509888180       -0.49765566845240
C            3.40228588121759       -2.95174876544770        1.10846057311092
C            2.52409046372208       -3.96109115695509        1.47304876176522
C            1.17319855135548       -3.75507987148684        1.36544131751319
S           -0.15253379341353       -4.86262663466677        1.75959641333135
O           -0.17038227260581       -6.02684945639178        0.87990342717982
O           -0.17736930918482       -5.19609679295289        3.17991626150046
H           -9.29250399772829        1.68702341406226       -2.08783809400768
H           -9.89493060125794        1.39660336323523       -3.71465520871469
H           -8.28239215122097        2.06460072531960       -3.49718483064525
H          -10.44490532384209       -0.89870008524680       -3.12619347387069
H           -9.22770930994665       -2.03483086899954       -2.55257282650825
H           -9.78237738423274       -0.73713702274557       -1.49717508538662
H           -8.96785024094434       -0.33918312273919       -5.15217265003825
H           -7.29996729169996        0.18071579024374       -4.89203087065802
H           -7.76596605070272       -1.48861784069417       -4.57286334936546
H           -6.99713172708932       -2.28965645759151       -2.62528463633008
H           -5.00467783463359       -2.63727463618836       -1.26758856741324
H           -7.08007583844903        1.87090585395441       -1.58936850140049
H           -5.59508915407229        3.51838789620195       -0.10255300952136
H           -4.11942248742456        6.22926983691314        3.29480660117390
H           -5.01727045289338        4.70943660563165        3.34284382297418
H           -3.27366144121829        4.71340132621402        3.59638130288227
H           -2.37727605768652        5.50567375229248        0.03766938630561
H           -2.55156783116353        6.70838732041632        1.31922255335931
H           -1.70925000533488        5.19553126981795        1.63946879640437
H           -4.96142029222309        6.81926003292656        1.07530572088379
H           -4.90103079019753        5.69285297229247       -0.27505286905571
H           -5.98133238850263        5.38722835330316        1.09880837311883
H           -2.14602227969348        3.15457330195291        2.41924241867820
H           -1.99884061855465        0.76803579163825        1.95436912122711
H           -4.66338480377550       -2.84575800491399        1.12815627706688
H           -3.19665045423853       -4.75619885668171        1.77457409822361
H           -1.20911728202656       -0.51781654584544        0.09633876099507
H            1.15453109516408       -0.57899968731692        0.11702485604838
H            1.95657012256857        0.67926431854387        1.97593221619612
H            2.19576054539150        3.05475752118433        2.42868692044098
H            4.20507681780394        6.65726299179565        0.36367808281869
H            3.17928289772180        5.40645749900457       -0.34478730275013
H            4.93382615788492        5.28151546132296       -0.45862157233049
H            5.58970545567964        6.11575069461149        2.45952498607728
H            5.49220474744212        4.50228091572009        3.17073908063765
H            6.30381314111190        4.73884765055144        1.62436887473907
H            3.17240121406159        6.46168037537976        2.54661176171304
H            2.03624908260585        5.27000712463066        1.92624307042841
H            2.99695854742919        4.92157886221912        3.37688332166981
H            5.73626039300191        3.24004822051417        0.01716134288359
H            7.18300283582957        1.50641757429217       -1.42769573473224
H            9.04908197363068       -0.81189236514366       -4.93045490696376
H            7.40410751385637       -0.20601374116735       -4.71458809436446
H            7.77529998018464       -1.89588609524951       -4.37956906796401
H            9.75170318700854       -1.23584283254480       -1.25624438788754
H            9.15564333389455       -2.50848816026832       -2.31953607566681
H           10.44312306361227       -1.43973021093475       -2.86847265682155
H            8.44689977902811        1.62975717700137       -3.30164218707981
H           10.02843718016873        0.87946813923818       -3.47192414842599
H            9.39684490432243        1.20746357188920       -1.86330863704661
H            6.92025050220491       -2.65065146239841       -2.44725795556660
H            4.87693525208207       -2.89079199032766       -1.14396877313723
H            4.46534267071084       -3.07024370868359        1.23551648271685
H            2.89194195859788       -4.90535603917893        1.84770627925053

          :  Hamiltonian                  GFN2-xTB          :
         :: gradient norm              0.000061099707 Eh/a0 ::
         :: HOMO-LUMO gap              0.490898840518 eV    ::
         :: SCC energy              -158.816441342438 Eh    ::
         :: -> dispersion             -0.143782834209 Eh    ::
         :: -> Gsolv                  -0.080180060550 Eh    ::
         :: repulsion energy           2.583790063186 Eh    ::

    * Orbital Energies and Occupations

         #    Occupation            Energy/Eh            Energy/eV
      -------------------------------------------------------------
         1        2.0000           -0.7526190             -20.4798
       ...           ...                  ...                  ...
       134        2.0000           -0.4151464             -11.2967
       135        2.0000           -0.4145516             -11.2805
       136        2.0000           -0.4119110             -11.2087
       137        2.0000           -0.4116482             -11.2015
       138        2.0000           -0.4077041             -11.0942
       139        2.0000           -0.4072089             -11.0807
       140        2.0000           -0.3885965             -10.5743
       141        2.0000           -0.3869080             -10.5283
       142        2.0000           -0.3857348             -10.4964
       143        2.0000           -0.3814037             -10.3785
       144        1.7067           -0.3678744             -10.0104
       145        1.2933           -0.3662034              -9.9649
       146        0.9999           -0.2711378              -7.3780 (HOMO)
       147        0.0001           -0.2530970              -6.8871 (LUMO)
       148        0.0000           -0.2524923              -6.8707
       149                         -0.2388284              -6.4989
       150                         -0.2332620              -6.3474
       151                         -0.2321690              -6.3176
       152                         -0.2312508              -6.2927
       153                         -0.2042173              -5.5570
       154                         -0.2030589              -5.5255
       155                         -0.1953757              -5.3164
       156                         -0.1952143              -5.3121
       157                         -0.1892000              -5.1484
       ...                                ...                  ...
       287                          1.1539765              31.4013
      -------------------------------------------------------------
                  HL-Gap            0.0180407 Eh            0.4909 eV

     #   Z          covCN         q      C6AA      α(0)
     1   6 C        3.761    -0.111    22.663     6.786
     2   6 C        3.903     0.027    20.061     6.367
     3   6 C        3.761    -0.107    22.590     6.775
     4   6 C        3.761    -0.107    22.592     6.776
     5   6 C        2.973     0.013    27.726     8.637
     6   6 C        2.929    -0.036    28.902     8.816
     7   6 C        2.907    -0.042    29.044     8.837
     8   6 C        3.078     0.044    26.930     8.508
     9   6 C        3.063    -0.012    28.258     8.717
    10   6 C        2.916    -0.038    28.943     8.822
    11   6 C        3.063    -0.012    28.252     8.716
    12   6 C        2.916    -0.038    28.939     8.822
    13   6 C        2.973     0.013    27.725     8.637
    14   6 C        3.903     0.027    20.061     6.367
    15   6 C        3.761    -0.107    22.595     6.776
    16   6 C        3.761    -0.108    22.603     6.777
    17   6 C        3.761    -0.111    22.661     6.786
    18   6 C        2.929    -0.036    28.906     8.817
    19   6 C        2.907    -0.043    29.061     8.840
    20   6 C        3.079     0.043    26.950     8.511
    21   7 N        2.803    -0.003    21.315     6.857
    22   6 C        2.908     0.053    26.819     8.492
    23   6 C        2.920    -0.067    29.661     8.931
    24   6 C        2.922    -0.023    28.574     8.766
    25   6 C        2.985    -0.098    30.457     9.053
    26   6 C        3.107    -0.025    28.490     8.745
    27   6 C        2.916    -0.054    29.334     8.881
    28   6 C        3.107    -0.025    28.491     8.745
    29   6 C        2.916    -0.054    29.336     8.882
    30   6 C        2.908     0.052    26.823     8.492
    31   7 N        2.802    -0.002    21.304     6.855
    32   6 C        3.077     0.043    26.950     8.511
    33   6 C        2.908    -0.042    29.052     8.838
    34   6 C        2.926    -0.041    29.007     8.832
    35   6 C        2.972     0.013    27.719     8.636
    36   6 C        3.903     0.027    20.058     6.366
    37   6 C        3.761    -0.108    22.609     6.778
    38   6 C        3.761    -0.107    22.596     6.776
    39   6 C        3.761    -0.111    22.661     6.786
    40   6 C        2.918    -0.033    28.824     8.804
    41   6 C        3.062    -0.012    28.248     8.716
    42   6 C        3.062    -0.012    28.247     8.715
    43   6 C        2.916    -0.038    28.941     8.822
    44   6 C        2.973     0.013    27.720     8.636
    45   6 C        3.903     0.027    20.060     6.366
    46   6 C        3.761    -0.107    22.593     6.776
    47   6 C        3.761    -0.107    22.592     6.776
    48   6 C        3.761    -0.111    22.661     6.786
    49   6 C        2.929    -0.036    28.895     8.815
    50   6 C        2.907    -0.042    29.046     8.837
    51   6 C        3.078     0.045    26.920     8.506
    52   6 C        2.920    -0.067    29.662     8.931
    53   6 C        2.922    -0.023    28.573     8.766
    54   6 C        2.985    -0.098    30.456     9.053
    55  16 S        3.942     0.894   109.735    17.631
    56   8 O        0.860    -0.603    26.184     6.861
    57   8 O        0.860    -0.602    26.165     6.858
    58   1 H        0.925     0.040     2.453     2.449
    59   1 H        0.925     0.041     2.439     2.442
    60   1 H        0.925     0.040     2.448     2.447
    61   1 H        0.925     0.043     2.415     2.430
    62   1 H        0.925     0.038     2.475     2.460
    63   1 H        0.925     0.035     2.510     2.478
    64   1 H        0.925     0.043     2.413     2.429
    65   1 H        0.925     0.036     2.503     2.474
    66   1 H        0.925     0.038     2.473     2.459
    67   1 H        0.926     0.043     2.412     2.428
    68   1 H        0.926     0.040     2.454     2.450
    69   1 H        0.926     0.056     2.245     2.343
    70   1 H        0.926     0.055     2.255     2.348
    71   1 H        0.925     0.043     2.410     2.428
    72   1 H        0.925     0.035     2.521     2.483
    73   1 H        0.925     0.039     2.460     2.453
    74   1 H        0.925     0.036     2.501     2.473
    75   1 H        0.925     0.043     2.409     2.427
    76   1 H        0.925     0.040     2.447     2.446
    77   1 H        0.925     0.041     2.440     2.443
    78   1 H        0.925     0.039     2.456     2.451
    79   1 H        0.925     0.039     2.467     2.456
    80   1 H        0.926     0.046     2.375     2.410
    81   1 H        0.926     0.041     2.432     2.438
    82   1 H        0.926     0.043     2.409     2.427
    83   1 H        0.926     0.027     2.630     2.536
    84   1 H        0.926     0.050     2.325     2.385
    85   1 H        0.926     0.050     2.323     2.384
    86   1 H        0.926     0.042     2.424     2.435
    87   1 H        0.926     0.053     2.287     2.365
    88   1 H        0.925     0.043     2.409     2.427
    89   1 H        0.925     0.037     2.495     2.470
    90   1 H        0.925     0.040     2.445     2.445
    91   1 H        0.925     0.043     2.410     2.428
    92   1 H        0.925     0.035     2.522     2.483
    93   1 H        0.925     0.040     2.449     2.447
    94   1 H        0.925     0.041     2.432     2.439
    95   1 H        0.925     0.040     2.449     2.447
    96   1 H        0.925     0.038     2.477     2.461
    97   1 H        0.926     0.049     2.333     2.389
    98   1 H        0.926     0.055     2.252     2.347
    99   1 H        0.925     0.043     2.411     2.428
   100   1 H        0.925     0.036     2.502     2.474
   101   1 H        0.925     0.038     2.472     2.459
   102   1 H        0.925     0.036     2.509     2.477
   103   1 H        0.925     0.038     2.473     2.459
   104   1 H        0.925     0.043     2.414     2.430
   105   1 H        0.925     0.040     2.450     2.448
   106   1 H        0.925     0.041     2.438     2.442
   107   1 H        0.925     0.040     2.455     2.450
   108   1 H        0.926     0.043     2.407     2.426
   109   1 H        0.926     0.040     2.448     2.447
   110   1 H        0.926     0.043     2.407     2.426
   111   1 H        0.926     0.027     2.628     2.535

molecular dipole:
                 x           y           z       tot (Debye)
 q only:        0.304       7.823      -2.673
   full:        0.292       7.072      -2.443      19.032

 projected vibrational frequencies (cm⁻¹)
eigval :       -0.00    -0.00     0.00     0.00     0.00     0.00
eigval :        7.68     8.77    16.53    24.11    25.22    27.31
eigval :       32.23    32.98    35.45    37.53    56.23    57.41
eigval :       62.62    70.70    73.14    78.19    80.64    97.32
eigval :      100.84   109.22   120.21   139.07   148.85   153.52
eigval :      159.41   164.42   165.93   176.05   179.38   183.51
eigval :      185.31   194.94   200.84   205.99   212.60   219.29
eigval :      222.45   226.62   229.89   230.83   235.17   243.28
eigval :      255.44   260.41   265.62   267.27   280.54   298.05
eigval :      301.27   311.88   320.53   320.92   325.58   326.95
eigval :      327.77   331.60   334.34   339.12   348.24   351.59
eigval :      352.40   355.09   364.42   365.95   367.43   376.50
eigval :      384.89   390.85   397.37   401.46   402.27   405.21
eigval :      409.49   434.15   439.69   441.03   441.89   443.51
eigval :      459.24   463.87   464.85   466.64   471.81   472.70
eigval :      504.93   513.11   520.63   521.03   530.74   533.52
eigval :      545.46   571.51   580.30   586.77   590.02   590.96
eigval :      592.50   605.07   613.20   628.96   640.21   642.73
eigval :      643.35   646.81   677.44   688.12   693.10   693.67
eigval :      705.67   708.39   709.53   715.45   717.31   745.14
eigval :      752.73   756.04   802.71   819.86   824.35   826.49
eigval :      827.97   829.96   833.59   839.66   847.41   864.57
eigval :      866.39   871.27   871.54   871.74   872.90   885.13
eigval :      886.44   913.96   915.28   916.93   918.68   920.08
eigval :      922.85   923.73   928.72   936.53   959.04   959.18
eigval :      959.41   960.11   960.78   961.33   962.00   963.02
eigval :      963.04   963.89   964.21   964.65   983.68   989.76
eigval :      998.70  1028.83  1030.12  1032.37  1033.01  1033.23
eigval :     1034.32  1035.47  1035.49  1038.70  1039.65  1050.16
eigval :     1058.05  1098.36  1102.24  1124.66  1124.72  1128.04
eigval :     1130.25  1138.78  1146.71  1148.67  1150.92  1153.48
eigval :     1187.59  1191.10  1193.38  1219.43  1221.32  1221.49
eigval :     1221.71  1221.76  1221.82  1223.26  1224.10  1225.16
eigval :     1226.96  1227.73  1229.88  1235.17  1246.04  1247.19
eigval :     1264.81  1271.83  1281.06  1283.48  1283.80  1290.83
eigval :     1294.19  1320.31  1323.53  1324.80  1337.43  1339.19
eigval :     1348.72  1351.04  1353.21  1366.07  1374.65  1390.02
eigval :     1398.51  1399.08  1400.88  1401.20  1401.92  1402.07
eigval :     1402.49  1403.34  1406.50  1407.21  1425.84  1426.26
eigval :     1426.37  1428.02  1431.24  1433.11  1449.83  1452.69
eigval :     1464.03  1466.97  1470.11  1473.83  1481.32  1486.91
eigval :     1487.11  1487.55  1488.21  1489.31  1489.69  1490.45
eigval :     1490.72  1496.18  1496.59  1496.63  1497.21  1500.04
eigval :     1500.09  1500.54  1501.58  1510.75  1511.30  1511.53
eigval :     1511.58  1515.11  1515.53  1515.71  1515.97  1534.32
eigval :     1534.63  1552.41  1552.79  1564.64  1565.29  1565.99
eigval :     1567.39  1588.54  1597.49  3023.04  3023.21  3023.21
eigval :     3023.29  3023.53  3024.10  3024.34  3024.44  3026.28
eigval :     3027.15  3027.48  3027.68  3027.82  3027.91  3028.70
eigval :     3028.79  3030.34  3030.81  3030.92  3031.29  3033.42
eigval :     3033.66  3033.82  3034.38  3038.36  3038.46  3038.49
eigval :     3038.99  3046.98  3047.20  3047.37  3047.57  3050.20
eigval :     3050.63  3050.64  3052.14  3072.93  3074.01  3088.55
eigval :     3088.65  3089.12  3091.09  3092.62  3095.77  3099.17
eigval :     3100.42  3100.60  3101.68  3111.02  3111.38  3123.16
eigval :     3124.86  3125.91  3126.39

   temp. (K)  partition function   enthalpy   heat capacity  entropy
                                   cal/mol     cal/K/mol   cal/K/mol   J/K/mol
 298.15  VIB  0.573E+25            32755.372    202.261    202.051
         ROT  0.191E+09              888.752      2.981     40.877
         INT  0.110E+34            33644.124    205.242    242.928
         TR   0.207E+29             1481.254      4.968     45.786
         TOT                       35125.3780   210.2101   288.7140  1207.9793

       T/K    H(0)-H(T)+PV         H(T)/Eh          T*S/Eh         G(T)/Eh
   ------------------------------------------------------------------------
    298.15    0.559759E-01    0.963562E+00    0.137177E+00    0.826385E+00
   ------------------------------------------------------------------------

         :::::::::::::::::::::::::::::::::::::::::::::::::::::
         ::                  THERMODYNAMIC                  ::
         :::::::::::::::::::::::::::::::::::::::::::::::::::::
         :: total free energy        -155.406266423505 Eh   ::
         ::.................................................::
         :: total energy             -156.232651280268 Eh   ::
         :: zero point energy           0.907586337164 Eh   ::
         :: G(RRHO) w/o ZPVE           -0.081201480400 Eh   ::
         :: G(RRHO) contrib.            0.826384856764 Eh   ::
         :::::::::::::::::::::::::::::::::::::::::::::::::::::

           -------------------------------------------------
          | TOTAL ENERGY             -156.232651280268 Eh   |
          | TOTAL ENTHALPY           -155.269089090231 Eh   |
          | TOTAL FREE ENERGY        -155.406266423505 Eh   |
          | GRADIENT NORM               0.000061614514 Eh/α |
          | HOMO-LUMO GAP               0.490912919833 eV   |
           -------------------------------------------------

 * finished run on 2025/09/04 at 16:43:05.083
