   * xtb version 6.7.1 (edcfbbe) compiled by 'albert@albert-system' on 2024-07-22

   ID    Z sym.   atoms
    1    6 C      1-20, 22-30, 32-54
    2    7 N      21, 31
    3   16 S      55
    4    8 O      56, 57
    5    1 H      58-111

          program call               : xtb data2507/toluene/1CzSO/1CzSO_toluene_T1_crest.xyz --gfn 2 --uhf 2 --gbsa toluene --ohess vtight --parallel 40 --molden --ceasefiles --namespace data2507/toluene/1CzSO/1CzSO_toluene_T1_finalOpt
      * Solvation model:               GBSA
        Solvent                        toluene
        Solvent mass                       9.2140E+01 g/mol
          :  Hamiltonian                  GFN2-xTB          :
 * total energy  :  -156.2318571 Eh     change       -0.9244275E-08 Eh
 * total energy  :  -156.2320930 Eh     change       -0.2358720E-03 Eh
 * total energy  :  -156.2322344 Eh     change       -0.1413923E-03 Eh
 * total energy  :  -156.2322580 Eh     change       -0.2363967E-04 Eh
 * total energy  :  -156.2322792 Eh     change       -0.2115258E-04 Eh
 * total energy  :  -156.2322886 Eh     change       -0.9438992E-05 Eh
 * total energy  :  -156.2322997 Eh     change       -0.1106100E-04 Eh
 * total energy  :  -156.2323066 Eh     change       -0.6953270E-05 Eh
 * total energy  :  -156.2323162 Eh     change       -0.9602446E-05 Eh
 * total energy  :  -156.2323250 Eh     change       -0.8808547E-05 Eh
 * total energy  :  -156.2328027 Eh     change       -0.2817200E-06 Eh
 * total energy  :  -156.2328029 Eh     change       -0.2392138E-06 Eh
 * total energy  :  -156.2328032 Eh     change       -0.2415643E-06 Eh
 * total energy  :  -156.2328034 Eh     change       -0.2041873E-06 Eh
 * total energy  :  -156.2328035 Eh     change       -0.1558886E-06 Eh
 * total energy  :  -156.2328037 Eh     change       -0.1395560E-06 Eh
 * total energy  :  -156.2328038 Eh     change       -0.1374756E-06 Eh
 * total energy  :  -156.2328039 Eh     change       -0.1224414E-06 Eh
 * total energy  :  -156.2328040 Eh     change       -0.9081310E-07 Eh
   *** GEOMETRY OPTIMIZATION CONVERGED AFTER 89 ITERATIONS ***

 final structure:
================
111
 xtb: 6.7.1 (edcfbbe)
C           -9.04964165736284        0.85044070347700       -3.10084546590448
C           -8.43157596040332       -0.54851855953276       -3.01531661666660
C           -9.48566242545978       -1.50154268923575       -2.43049307535608
C           -8.05893206181766       -0.99518343254452       -4.43761183660797
C           -7.18839966665212       -0.58788150669445       -2.14154118471423
C           -6.52373455944733       -1.80888546281050       -1.95964204878382
C           -5.39298710176754       -1.93828470886516       -1.17862539655356
C           -4.90904613078153       -0.80327889166170       -0.53950611486257
C           -5.54259254468884        0.44627796281252       -0.73187624575390
C           -6.67387886023004        0.54848956268973       -1.52271398599050
C           -4.76627523314911        1.41104338977195        0.00784709166213
C           -4.89351570623051        2.77510233182989        0.20720085185726
C           -3.97422471200373        3.44379656911002        1.01102918240661
C           -4.04886224828900        4.94072027627738        1.26469429280648
C           -4.25796908387127        5.18307124708493        2.76770731697413
C           -2.73371726442573        5.59344873348820        0.81147645411191
C           -5.19894217422079        5.61202438527742        0.50789705335580
C           -2.95103814559921        2.70178016238259        1.61785813034887
C           -2.80104520497537        1.34185624367209        1.43540569356912
C           -3.70500542803782        0.69189766663280        0.60414641568868
N           -3.80405083291375       -0.64083471171374        0.26656366897287
C           -2.93335197771834       -1.65497923148746        0.68213218046461
C           -3.48353594244508       -2.85085970895214        1.21790937316143
C           -2.62928939925291       -3.85327133016705        1.65195554016436
C           -1.27340973819435       -3.67468728433137        1.55885262401701
C           -0.69146939551265       -2.47612786998506        1.03279677053061
C           -1.57184516755898       -1.47102340965283        0.58990101135079
C            0.71855390908869       -2.46845379197620        1.03332430857561
C            1.58821022835810       -1.45503167898077        0.58836499997030
C            2.95165622298170       -1.62343167080187        0.68259920153104
N            3.81139944867731       -0.60189773148770        0.26293178212837
C            3.69421493852498        0.73228093322790        0.58895733238698
C            2.78000929463121        1.37755460275163        1.41266317646528
C            2.91116437909713        2.74100314391301        1.58293936918634
C            3.92534971168993        3.49127809149652        0.97118654341526
C            3.97856860668101        4.99151863986484        1.21013886916946
C            5.11794867857827        5.67187506939883        0.44527132213005
C            4.18574816043022        5.25138892475495        2.71047406390856
C            2.65371824862904        5.62094437551452        0.75220690847076
C            4.85597788677777        2.82752371047794        0.17634398932038
C            4.74776065709773        1.46007900970690       -0.01056647484367
C            5.53917114736730        0.49912878725197       -0.73920043632773
C            6.67217260237107        0.60921076124977       -1.52652245665682
C            7.20381165826713       -0.52565405649314       -2.13353890817632
C            8.45078848155053       -0.47812256311375       -3.00144990563169
C            8.09261608965509       -0.94647739078661       -4.42047047701194
C            9.51513040492651       -1.40898698199877       -2.39973072892847
C            9.04895729640633        0.92860740462144       -3.09998843285734
C            6.55371538150674       -1.75335119732936       -1.94438567918625
C            5.42144067844731       -1.89059990979813       -1.16692614890169
C            4.92095560667337       -0.75679277512705       -0.53851594428791
C            3.51433422600043       -2.81123740450141        1.22366570824114
C            2.67079560076118       -3.82261424811787        1.65775339958829
C            1.31311917475747       -3.65993142855804        1.56147554233245
S            0.02574874695986       -4.78405584929886        2.02886551006657
O            0.03345913443521       -5.99226789975351        1.21046279150565
O            0.02572925220617       -5.04406207513876        3.46462754457849
H           -9.34620704992597        1.20855366542350       -2.11767643960299
H           -9.93952144325342        0.81359571907995       -3.72587563203267
H           -8.35639821869113        1.55879367510360       -3.54840243329144
H          -10.39226060165575       -1.46716419583915       -3.03078976319117
H           -9.13012901358649       -2.52791401669377       -2.41257340179253
H           -9.73480366291774       -1.20904822739090       -1.41229420936777
H           -8.93348108181665       -0.94940730164840       -5.08298202456907
H           -7.29150262293588       -0.34221762518649       -4.84868520187912
H           -7.68153785663212       -2.01383581955866       -4.44934269638890
H           -6.89819429891474       -2.69336436187163       -2.45066707425464
H           -4.89555605521189       -2.89069781333886       -1.07840974045974
H           -7.13563860309323        1.51281247859933       -1.64876788094722
H           -5.71034367192161        3.29553591692949       -0.26283561463276
H           -4.33009589653224        6.25032379822083        2.96584500381325
H           -5.17787979006164        4.70719617736214        3.10185853585566
H           -3.43570964529971        4.78274413862780        3.35404596810829
H           -2.56121349387867        5.39954993635416       -0.24525197183859
H           -2.78208727924824        6.66972624205179        0.96167538525007
H           -1.88583950675824        5.21080410504396        1.37174296780219
H           -5.19198710552846        6.68014748441919        0.71536656487880
H           -5.09177572450798        5.47875003163081       -0.56618443424071
H           -6.16147248103620        5.21754532905081        0.82514982633845
H           -2.24654974488971        3.20251166313105        2.26314417702476
H           -2.01314184952961        0.79988138293869        1.93526611946013
H           -4.55079802397322       -2.94651125428242        1.32804100147135
H           -3.01974742548751       -4.77098490592289        2.06746918129990
H           -1.17908602602960       -0.56712700407326        0.15086085206277
H            1.18578570166665       -0.55746696235303        0.14514694546023
H            1.99867710267537        0.82958915468044        1.91625853517722
H            2.19863326999579        3.23797646573278        2.22227196150822
H            5.09532435968801        6.74189821080435        0.64154499809291
H            5.01179357956045        5.52566126070695       -0.62724091105731
H            6.08654364210120        5.29513407875440        0.76559819151062
H            4.23925628667011        6.32152524875184        2.89865564972508
H            3.37162438951878        4.84185650412159        3.30180920554927
H            5.11446927152831        4.79497557909009        3.04735907834775
H            2.68774861289031        6.69943612251440        0.88992340452607
H            2.48186282481114        5.41255584451071       -0.30187018831356
H            1.81214232560778        5.23345523280683        1.31859053394970
H            5.66700763154086        3.35455277804951       -0.29636737931577
H            7.12206867804441        1.57827697315117       -1.65896004194751
H            8.96955897130261       -0.89355694966394       -5.06201518415516
H            7.31682607476341       -0.31059350379422       -4.84245813827830
H            7.73194415926541       -1.97122443318364       -4.42291250108545
H            9.75628376975088       -1.09929802354335       -1.38469020921735
H            9.17292236731832       -2.43958577996023       -2.36899065207259
H           10.42359344561212       -1.37082491933356       -2.99698856607081
H            8.34751131231708        1.62168533967199       -3.55858678969782
H            9.94214940953776        0.89763815352881       -3.72060155884264
H            9.33588215803579        1.30204372742077       -2.11967850971691
H            6.94126469093998       -2.63707279343461       -2.42654411486051
H            4.93534990165030       -2.84828181653135       -1.06153763556704
H            4.58230321097355       -2.89407435842395        1.33709472494510
H            3.07095757292955       -4.73505842260457        2.07562530665599

          :  Hamiltonian                  GFN2-xTB          :
         :: gradient norm              0.000087905371 Eh/a0 ::
         :: HOMO-LUMO gap              0.500727406599 eV    ::
         :: SCC energy              -158.816607243098 Eh    ::
         :: -> dispersion             -0.143766866345 Eh    ::
         :: -> Gsolv                  -0.080099818298 Eh    ::
         :: repulsion energy           2.583803238038 Eh    ::

    * Orbital Energies and Occupations

         #    Occupation            Energy/Eh            Energy/eV
      -------------------------------------------------------------
         1        2.0000           -0.7527178             -20.4825
       ...           ...                  ...                  ...
       134        2.0000           -0.4147997             -11.2873
       135        2.0000           -0.4145579             -11.2807
       136        2.0000           -0.4119877             -11.2108
       137        2.0000           -0.4117700             -11.2048
       138        2.0000           -0.4079081             -11.0997
       139        2.0000           -0.4077514             -11.0955
       140        2.0000           -0.3886573             -10.5759
       141        2.0000           -0.3859409             -10.5020
       142        2.0000           -0.3858701             -10.5001
       143        2.0000           -0.3815465             -10.3824
       144        1.7079           -0.3680589             -10.0154
       145        1.2921           -0.3663765              -9.9696
       146        0.9999           -0.2712841              -7.3820 (HOMO)
       147        0.0000           -0.2528818              -6.8813 (LUMO)
       148        0.0000           -0.2525261              -6.8716
       149                         -0.2388273              -6.4988
       150                         -0.2332047              -6.3458
       151                         -0.2314407              -6.2978
       152                         -0.2314177              -6.2972
       153                         -0.2042218              -5.5572
       154                         -0.2030140              -5.5243
       155                         -0.1955448              -5.3210
       156                         -0.1955311              -5.3207
       157                         -0.1892702              -5.1503
       ...                                ...                  ...
       287                          1.1539411              31.4003
      -------------------------------------------------------------
                  HL-Gap            0.0184022 Eh            0.5008 eV

     #   Z          covCN         q      C6AA      α(0)
     1   6 C        3.761    -0.111    22.664     6.787
     2   6 C        3.903     0.027    20.060     6.366
     3   6 C        3.761    -0.107    22.591     6.776
     4   6 C        3.761    -0.107    22.592     6.776
     5   6 C        2.973     0.013    27.723     8.637
     6   6 C        2.929    -0.036    28.900     8.816
     7   6 C        2.907    -0.042    29.042     8.837
     8   6 C        3.078     0.044    26.930     8.508
     9   6 C        3.063    -0.012    28.255     8.717
    10   6 C        2.916    -0.038    28.940     8.822
    11   6 C        3.063    -0.012    28.250     8.716
    12   6 C        2.916    -0.038    28.937     8.821
    13   6 C        2.973     0.013    27.720     8.636
    14   6 C        3.903     0.027    20.060     6.366
    15   6 C        3.761    -0.107    22.593     6.776
    16   6 C        3.761    -0.108    22.607     6.778
    17   6 C        3.761    -0.111    22.662     6.786
    18   6 C        2.929    -0.036    28.902     8.817
    19   6 C        2.907    -0.043    29.058     8.839
    20   6 C        3.079     0.043    26.949     8.511
    21   7 N        2.803    -0.003    21.309     6.856
    22   6 C        2.908     0.053    26.820     8.492
    23   6 C        2.920    -0.067    29.658     8.931
    24   6 C        2.922    -0.023    28.573     8.766
    25   6 C        2.985    -0.098    30.456     9.053
    26   6 C        3.107    -0.025    28.489     8.745
    27   6 C        2.916    -0.054    29.332     8.881
    28   6 C        3.107    -0.025    28.489     8.745
    29   6 C        2.916    -0.054    29.333     8.881
    30   6 C        2.908     0.053    26.820     8.492
    31   7 N        2.803    -0.002    21.306     6.856
    32   6 C        3.079     0.043    26.950     8.511
    33   6 C        2.907    -0.043    29.058     8.839
    34   6 C        2.929    -0.036    28.902     8.817
    35   6 C        2.973     0.013    27.720     8.636
    36   6 C        3.903     0.027    20.060     6.366
    37   6 C        3.761    -0.111    22.662     6.786
    38   6 C        3.761    -0.107    22.593     6.776
    39   6 C        3.761    -0.108    22.608     6.778
    40   6 C        2.916    -0.038    28.937     8.821
    41   6 C        3.063    -0.012    28.249     8.716
    42   6 C        3.063    -0.012    28.255     8.717
    43   6 C        2.916    -0.038    28.940     8.822
    44   6 C        2.973     0.013    27.722     8.637
    45   6 C        3.903     0.027    20.060     6.366
    46   6 C        3.761    -0.107    22.592     6.776
    47   6 C        3.761    -0.107    22.591     6.776
    48   6 C        3.761    -0.111    22.664     6.787
    49   6 C        2.929    -0.036    28.900     8.816
    50   6 C        2.907    -0.042    29.042     8.837
    51   6 C        3.078     0.044    26.931     8.508
    52   6 C        2.920    -0.067    29.658     8.931
    53   6 C        2.922    -0.023    28.573     8.766
    54   6 C        2.985    -0.098    30.456     9.053
    55  16 S        3.942     0.895   109.731    17.631
    56   8 O        0.860    -0.603    26.183     6.860
    57   8 O        0.860    -0.602    26.163     6.858
    58   1 H        0.925     0.040     2.453     2.449
    59   1 H        0.925     0.041     2.439     2.442
    60   1 H        0.925     0.040     2.447     2.446
    61   1 H        0.925     0.043     2.415     2.430
    62   1 H        0.925     0.038     2.474     2.460
    63   1 H        0.925     0.035     2.510     2.478
    64   1 H        0.925     0.043     2.411     2.428
    65   1 H        0.925     0.036     2.502     2.474
    66   1 H        0.925     0.038     2.474     2.459
    67   1 H        0.926     0.043     2.410     2.428
    68   1 H        0.926     0.040     2.452     2.449
    69   1 H        0.926     0.056     2.243     2.342
    70   1 H        0.926     0.056     2.252     2.346
    71   1 H        0.925     0.043     2.409     2.427
    72   1 H        0.925     0.035     2.521     2.483
    73   1 H        0.925     0.039     2.464     2.455
    74   1 H        0.925     0.037     2.494     2.470
    75   1 H        0.925     0.043     2.408     2.427
    76   1 H        0.925     0.040     2.446     2.446
    77   1 H        0.925     0.041     2.439     2.442
    78   1 H        0.925     0.040     2.454     2.450
    79   1 H        0.925     0.039     2.466     2.456
    80   1 H        0.926     0.045     2.379     2.412
    81   1 H        0.926     0.041     2.432     2.439
    82   1 H        0.926     0.043     2.407     2.426
    83   1 H        0.926     0.027     2.628     2.535
    84   1 H        0.926     0.050     2.324     2.384
    85   1 H        0.926     0.050     2.324     2.384
    86   1 H        0.926     0.041     2.431     2.438
    87   1 H        0.926     0.045     2.379     2.412
    88   1 H        0.925     0.041     2.439     2.442
    89   1 H        0.925     0.040     2.454     2.450
    90   1 H        0.925     0.039     2.466     2.456
    91   1 H        0.925     0.043     2.409     2.427
    92   1 H        0.925     0.039     2.464     2.455
    93   1 H        0.925     0.035     2.520     2.483
    94   1 H        0.925     0.043     2.408     2.427
    95   1 H        0.925     0.037     2.495     2.470
    96   1 H        0.925     0.040     2.445     2.445
    97   1 H        0.926     0.056     2.251     2.346
    98   1 H        0.926     0.056     2.243     2.342
    99   1 H        0.925     0.043     2.412     2.429
   100   1 H        0.925     0.036     2.503     2.474
   101   1 H        0.925     0.038     2.473     2.459
   102   1 H        0.925     0.035     2.510     2.478
   103   1 H        0.925     0.038     2.474     2.460
   104   1 H        0.925     0.043     2.415     2.430
   105   1 H        0.925     0.040     2.447     2.446
   106   1 H        0.925     0.041     2.439     2.442
   107   1 H        0.925     0.040     2.453     2.449
   108   1 H        0.926     0.043     2.410     2.428
   109   1 H        0.926     0.040     2.452     2.449
   110   1 H        0.926     0.043     2.406     2.426
   111   1 H        0.926     0.027     2.627     2.535

molecular dipole:
                 x           y           z       tot (Debye)
 q only:       -0.037       7.634      -3.138
   full:       -0.033       6.898      -2.855      18.975

 projected vibrational frequencies (cm⁻¹)
eigval :       -0.00    -0.00    -0.00     0.00     0.00     0.00
eigval :        7.39    10.46    18.63    23.94    25.26    26.83
eigval :       29.54    30.21    32.54    33.31    55.76    57.82
eigval :       59.92    71.04    73.61    78.14    81.76   100.36
eigval :      101.48   108.90   118.66   137.66   150.19   152.49
eigval :      157.12   162.95   166.88   169.62   172.31   183.67
eigval :      185.44   198.72   199.36   206.14   212.47   217.76
eigval :      219.97   223.25   224.52   229.63   229.94   238.11
eigval :      255.92   256.13   264.55   268.59   280.40   283.23
eigval :      310.69   311.35   317.48   317.52   322.39   323.20
eigval :      327.83   332.56   339.20   339.28   347.43   352.88
eigval :      355.06   355.46   363.92   365.63   366.49   376.61
eigval :      385.29   391.96   398.73   401.79   402.07   406.39
eigval :      410.74   433.91   441.05   441.25   441.59   442.41
eigval :      458.70   464.13   464.88   466.10   472.42   472.78
eigval :      504.81   513.51   521.13   521.24   530.91   533.52
eigval :      546.00   571.83   580.86   586.67   590.17   591.40
eigval :      592.53   605.59   613.47   629.26   640.99   643.08
eigval :      643.38   646.93   677.62   688.44   693.73   693.88
eigval :      705.97   709.36   710.08   715.55   717.53   745.66
eigval :      754.26   757.27   803.16   821.31   824.21   828.43
eigval :      829.34   829.69   833.12   840.62   847.51   867.06
eigval :      869.13   871.15   871.65   872.38   873.55   890.77
eigval :      891.29   915.61   918.64   919.01   919.89   921.00
eigval :      922.69   923.91   929.20   936.61   958.28   958.63
eigval :      958.98   959.01   961.38   962.17   962.34   962.55
eigval :      962.76   963.67   963.77   964.79   983.81   990.13
eigval :      998.84  1028.19  1028.91  1032.58  1033.26  1033.40
eigval :     1034.35  1034.58  1034.76  1039.04  1039.76  1050.03
eigval :     1058.06  1098.85  1102.42  1124.95  1125.07  1129.04
eigval :     1131.14  1138.88  1148.33  1148.83  1150.69  1152.37
eigval :     1187.79  1191.32  1193.87  1220.48  1221.11  1221.14
eigval :     1221.25  1221.29  1223.94  1224.11  1224.87  1224.99
eigval :     1227.08  1227.70  1229.55  1230.08  1248.12  1248.97
eigval :     1263.72  1271.53  1281.52  1283.37  1283.76  1292.06
eigval :     1294.50  1322.51  1323.82  1324.78  1337.76  1339.39
eigval :     1347.92  1350.13  1353.28  1366.22  1374.83  1390.27
eigval :     1398.93  1399.00  1399.75  1400.98  1401.49  1401.83
eigval :     1402.40  1402.74  1406.37  1406.92  1425.23  1426.19
eigval :     1426.89  1427.15  1432.93  1433.58  1452.69  1452.80
eigval :     1464.22  1469.04  1470.87  1474.18  1481.15  1486.45
eigval :     1486.85  1487.27  1487.29  1488.04  1489.23  1489.36
eigval :     1489.50  1495.12  1495.80  1495.99  1496.61  1499.64
eigval :     1500.41  1501.10  1501.17  1509.83  1510.48  1510.65
eigval :     1510.66  1514.44  1514.69  1515.35  1515.98  1534.23
eigval :     1534.44  1552.38  1552.65  1564.22  1565.03  1565.17
eigval :     1565.36  1587.65  1596.49  3022.70  3022.74  3022.88
eigval :     3022.88  3023.52  3023.69  3023.81  3024.03  3027.04
eigval :     3027.14  3027.42  3027.49  3027.86  3027.95  3028.20
eigval :     3028.52  3030.32  3030.49  3030.79  3031.01  3033.65
eigval :     3033.80  3033.88  3034.00  3038.07  3038.19  3038.26
eigval :     3038.34  3046.72  3046.81  3047.33  3048.17  3049.99
eigval :     3050.11  3052.98  3056.19  3074.31  3074.80  3088.54
eigval :     3088.86  3088.96  3089.51  3091.06  3095.29  3100.68
eigval :     3100.80  3101.23  3101.94  3111.42  3111.76  3124.76
eigval :     3124.86  3127.29  3127.49

   temp. (K)  partition function   enthalpy   heat capacity  entropy
                                   cal/mol     cal/K/mol   cal/K/mol   J/K/mol
 298.15  VIB  0.741E+25            32807.006    202.040    202.281
         ROT  0.192E+09              888.752      2.981     40.880
         INT  0.142E+34            33695.758    205.021    243.161
         TR   0.207E+29             1481.254      4.968     45.786
         TOT                       35177.0123   209.9888   288.9465  1208.9523

       T/K    H(0)-H(T)+PV         H(T)/Eh          T*S/Eh         G(T)/Eh
   ------------------------------------------------------------------------
    298.15    0.560581E-01    0.963603E+00    0.137288E+00    0.826315E+00
   ------------------------------------------------------------------------

         :::::::::::::::::::::::::::::::::::::::::::::::::::::
         ::                  THERMODYNAMIC                  ::
         :::::::::::::::::::::::::::::::::::::::::::::::::::::
         :: total free energy        -155.406488563946 Eh   ::
         ::.................................................::
         :: total energy             -156.232804004007 Eh   ::
         :: zero point energy           0.907545126340 Eh   ::
         :: G(RRHO) w/o ZPVE           -0.081229686280 Eh   ::
         :: G(RRHO) contrib.            0.826315440061 Eh   ::
         :::::::::::::::::::::::::::::::::::::::::::::::::::::

           -------------------------------------------------
          | TOTAL ENERGY             -156.232804004007 Eh   |
          | TOTAL ENTHALPY           -155.269200740338 Eh   |
          | TOTAL FREE ENERGY        -155.406488563946 Eh   |
          | GRADIENT NORM               0.000085960787 Eh/α |
          | HOMO-LUMO GAP               0.500750456599 eV   |
           -------------------------------------------------

 * finished run on 2025/09/04 at 17:17:24.760
