   * xtb version 6.7.1 (edcfbbe) compiled by 'albert@albert-system' on 2024-07-22

   ID    Z sym.   atoms
    1    6 C      1-20, 22-30, 32-54
    2    7 N      21, 31
    3   16 S      55
    4    8 O      56, 57
    5    1 H      58-111

          program call               : xtb data2507/toluene/1CzSO/1CzSO_toluene_S0_crest.xyz --gfn 2 --gbsa toluene --ohess vtight --parallel 40 --molden --ceasefiles --namespace data2507/toluene/1CzSO/1CzSO_toluene_S0_finalOpt
      * Solvation model:               GBSA
        Solvent                        toluene
        Solvent mass                       9.2140E+01 g/mol
          :  Hamiltonian                  GFN2-xTB          :
 * total energy  :  -156.3162787 Eh     change       -0.1454339E-08 Eh
 * total energy  :  -156.3164198 Eh     change       -0.1411213E-03 Eh
 * total energy  :  -156.3165313 Eh     change       -0.1114585E-03 Eh
 * total energy  :  -156.3165763 Eh     change       -0.4499490E-04 Eh
 * total energy  :  -156.3166260 Eh     change       -0.4969446E-04 Eh
 * total energy  :  -156.3166943 Eh     change       -0.6828626E-04 Eh
 * total energy  :  -156.3167366 Eh     change       -0.4237725E-04 Eh
 * total energy  :  -156.3167800 Eh     change       -0.4338318E-04 Eh
 * total energy  :  -156.3168369 Eh     change       -0.5690631E-04 Eh
 * total energy  :  -156.3168973 Eh     change       -0.6040449E-04 Eh
 * total energy  :  -156.3185251 Eh     change       -0.3522050E-06 Eh
 * total energy  :  -156.3185254 Eh     change       -0.2921617E-06 Eh
 * total energy  :  -156.3185256 Eh     change       -0.2264928E-06 Eh
 * total energy  :  -156.3185258 Eh     change       -0.2171410E-06 Eh
 * total energy  :  -156.3185260 Eh     change       -0.2273942E-06 Eh
 * total energy  :  -156.3185263 Eh     change       -0.2670030E-06 Eh
 * total energy  :  -156.3185266 Eh     change       -0.3114991E-06 Eh
 * total energy  :  -156.3185270 Eh     change       -0.3646367E-06 Eh
 * total energy  :  -156.3185270 Eh     change       -0.3526594E-08 Eh
   *** GEOMETRY OPTIMIZATION CONVERGED AFTER 152 ITERATIONS ***

 final structure:
================
111
 xtb: 6.7.1 (edcfbbe)
C           -9.00128830105315        1.41399732917937       -3.02114720734409
C           -8.47225128651386       -0.02356670152290       -3.00393515825248
C           -9.57981102879101       -0.93069475142008       -2.44713158944750
C           -8.14461776644055       -0.42923693601884       -4.44876351596544
C           -7.22328240341547       -0.17708423448854       -2.14687291583922
C           -6.63623769861924       -1.44351349858590       -2.02532785854933
C           -5.51038751973375       -1.68024000839858       -1.26153183450347
C           -4.94832147910037       -0.61195321369809       -0.58046005728379
C           -5.49707554472188        0.67918820957772       -0.71543196506226
C           -6.63070144955895        0.88933291185444       -1.48982943533031
C           -4.65708518176392        1.56462422160484        0.04634772066019
C           -4.71152570583001        2.92904538144000        0.30034572947647
C           -3.75667816463668        3.51669252291716        1.11460171836399
C           -3.74967517877338        5.00609080035294        1.43042198150242
C           -3.92664025976444        5.20021188620592        2.94392258104495
C           -2.41057986767813        5.61032578759093        0.98217899708528
C           -4.87415374802828        5.76418860282127        0.71828974425727
C           -2.76913305918650        2.69908558443555        1.67966421057262
C           -2.69217462303680        1.34056530013213        1.44390091755821
C           -3.63216718989351        0.77091275110697        0.59934438577677
N           -3.81460758318210       -0.55064954567744        0.21684418781958
C           -3.00887262868941       -1.62386322878500        0.58236539548417
C           -3.58610172149077       -2.81996136159497        1.01950009293997
C           -2.78791803444160       -3.89245686948344        1.38408785944675
C           -1.42059739505086       -3.75075194055680        1.32226973805098
C           -0.81904971953341       -2.56696129081961        0.89694587179684
C           -1.61826754188379       -1.50076624312434        0.51572448944993
C            0.64423325420789       -2.60230976363149        0.91054212427081
C            1.50102608657987       -1.57525975902462        0.54717710009360
C            2.88256669590580       -1.76595227650276        0.63881357488890
N            3.74656547899035       -0.73184486855328        0.29427914835668
C            3.62528138004694        0.59434413847285        0.68593220379100
C            2.69987724939437        1.20610293864521        1.51393143498218
C            2.84068886363108        2.55904295968327        1.77037570283662
C            3.88234949598802        3.32393019158231        1.23907034291451
C            4.03185252521651        4.81325876477866        1.52065726218511
C            3.99765665747871        5.58006171022516        0.18992269703479
C            5.37404046942830        5.05746232520460        2.22674216040461
C            2.91752340932779        5.36586060567368        2.41442097714055
C            4.82209011329179        2.69061059291781        0.43530215580173
C            4.70355525379819        1.33753315652736        0.16096709990199
C            5.51055636076948        0.41504677529984       -0.59308912161470
C            6.66757099033519        0.57191910701934       -1.34470499956872
C            7.21633759896440       -0.51897629581803       -1.99999151269694
C            8.48589276188003       -0.42375266645745       -2.83495636201067
C            8.16336818755873       -0.80770423524283       -4.28688663096731
C            9.53826940089477       -1.38603615925100       -2.26395339164135
C            9.08449140502202        0.98635833757416       -2.83718144098016
C            6.56307042918908       -1.75418173188019       -1.89844310981695
C            5.41155131200901       -1.93748952237236       -1.15838350916827
C            4.89211594689214       -0.84615537271426       -0.48012166424995
C            3.39285531779189       -2.99000345103932        1.08179549713715
C            2.53714414255485       -4.02287940971408        1.42974932643952
C            1.17966631208790       -3.81434364394843        1.34459772161977
S           -0.15222990936807       -4.94182654282691        1.74319532955124
O           -0.17230823257288       -6.07526027847507        0.84340065533930
O           -0.17158427064410       -5.25698173253354        3.15567370526921
H           -9.26242023060291        1.74643092680733       -2.01891780940666
H           -9.89859444873720        1.46196572242240       -3.63515362341239
H           -8.26838985099975        2.09647099165419       -3.44549097081935
H          -10.48821154501286       -0.81689406850971       -3.03530458722736
H           -9.28822200778441       -1.97703083164375       -2.47320503293352
H           -9.80122155389664       -0.66413195422936       -1.41533348516177
H           -9.02071156901347       -0.30236435211438       -5.08163122743813
H           -7.34205656194592        0.19249322448161       -4.84118847410287
H           -7.83031790055934       -1.46768846431038       -4.50828547407577
H           -7.07047461519643       -2.28065137135037       -2.55020152374651
H           -5.08055058368046       -2.66949343532690       -1.21655939957119
H           -7.02442781138107        1.88872960555414       -1.56753206906114
H           -5.50804114248882        3.50405692350742       -0.14093405705319
H           -3.94411943102438        6.26097640960624        3.18595159856977
H           -4.86392507785146        4.75563623768135        3.27344113069102
H           -3.11664360484819        4.73768454786307        3.50127761680623
H           -2.26437656910205        5.45232855407089       -0.08471588256163
H           -2.39854442992813        6.68067171075956        1.17762627554955
H           -1.57609165962602        5.15948093752968        1.51137378848733
H           -4.81293942614766        6.82155618040162        0.96881325986670
H           -4.78695466603076        5.66940722909656       -0.36184979192944
H           -5.85090208406731        5.40258541488693        1.03173037110613
H           -2.03259038249465        3.13608228300213        2.33635123849365
H           -1.92886340154327        0.74709270090967        1.92375591039177
H           -4.65939390201006       -2.89635157604254        1.09251042034906
H           -3.22091416113936       -4.81971386029313        1.72492667069073
H           -1.18288975363617       -0.58523598017694        0.14955426175003
H            1.11752280334173       -0.63863757062418        0.17633367493053
H            1.89472666680699        0.65025204140859        1.97000160317183
H            2.10971928962309        3.01965142876525        2.41388785656706
H            4.08663179887619        6.64934517881809        0.37104551427219
H            3.05807145896314        5.39448822547961       -0.32708250693948
H            4.81125756437628        5.27764126820182       -0.46355200596544
H            5.49028065250756        6.11494581201889        2.45558374928843
H            5.41717632498660        4.49597365187894        3.15822773072109
H            6.21096273879762        4.75031213046785        1.60571453901596
H            3.07574323870656        6.43105773144115        2.57208806065861
H            1.94356458963494        5.23740496956032        1.94825390032362
H            2.91733804356705        4.88045105952542        3.38787692788372
H            5.65618901781640        3.23529577190972        0.02127567974806
H            7.11377015237757        1.55017537990505       -1.40676525881255
H            9.05468677279351       -0.71908469120563       -4.90474446070522
H            7.39698069002693       -0.14784459486928       -4.68925260911230
H            7.80242888620823       -1.83018508966678       -4.35681521415786
H            9.75859081031216       -1.13169469365051       -1.22884280209769
H            9.19421889932250       -2.41617610874926       -2.29531571113425
H           10.45931511539827       -1.31814103020357       -2.83949929329223
H            8.39251939367194        1.70519465551238       -3.27021736462340
H            9.99288865784284        0.99305408670653       -3.43654890989238
H            9.34522929006480        1.30209912247171       -1.82943547569693
H            6.96400747005739       -2.60935585425636       -2.42073628779411
H            4.93065348958271       -2.90353872073460       -1.12930527108502
H            4.45974746306331       -3.11871876471363        1.17328343680257
H            2.91836807420171       -4.97055006155899        1.77635448278342

          :  Hamiltonian                  GFN2-xTB          :
         :: gradient norm              0.000045148218 Eh/a0 ::
         :: HOMO-LUMO gap              2.031292590272 eV    ::
         :: SCC energy              -158.920664581066 Eh    ::
         :: -> dispersion             -0.144195757341 Eh    ::
         :: -> Gsolv                  -0.067710226333 Eh    ::
         :: repulsion energy           2.602137599836 Eh    ::

    * Orbital Energies and Occupations

         #    Occupation            Energy/Eh            Energy/eV
      -------------------------------------------------------------
         1        2.0000           -0.7794191             -21.2091
       ...           ...                  ...                  ...
       133        2.0000           -0.4173417             -11.3564
       134        2.0000           -0.4137287             -11.2581
       135        2.0000           -0.4124220             -11.2226
       136        2.0000           -0.4100386             -11.1577
       137        2.0000           -0.4095856             -11.1454
       138        2.0000           -0.4079220             -11.1001
       139        2.0000           -0.4072594             -11.0821
       140        2.0000           -0.3979816             -10.8296
       141        2.0000           -0.3973573             -10.8126
       142        2.0000           -0.3763392             -10.2407
       143        2.0000           -0.3755044             -10.2180
       144        2.0000           -0.3625055              -9.8643
       145        2.0000           -0.3621402              -9.8543 (HOMO)
       146                         -0.2874915              -7.8230 (LUMO)
       147                         -0.2636658              -7.1747
       148                         -0.2563681              -6.9761
       149                         -0.2420797              -6.5873
       150                         -0.2415885              -6.5740
       151                         -0.2230212              -6.0687
       152                         -0.2202485              -5.9933
       153                         -0.2196145              -5.9760
       154                         -0.1959219              -5.3313
       155                         -0.1895511              -5.1579
       156                         -0.1854822              -5.0472
       ...                                ...                  ...
       287                          1.1760928              32.0031
      -------------------------------------------------------------
                  HL-Gap            0.0746487 Eh            2.0313 eV

     #   Z          covCN         q      C6AA      α(0)
     1   6 C        3.761    -0.107    22.599     6.777
     2   6 C        3.902     0.025    20.097     6.372
     3   6 C        3.761    -0.105    22.557     6.770
     4   6 C        3.761    -0.105    22.555     6.770
     5   6 C        2.972    -0.000    28.025     8.684
     6   6 C        2.931    -0.039    28.974     8.828
     7   6 C        2.909    -0.055    29.356     8.884
     8   6 C        3.071     0.040    27.030     8.525
     9   6 C        3.065    -0.018    28.382     8.736
    10   6 C        2.918    -0.044    29.094     8.845
    11   6 C        3.065    -0.017    28.377     8.735
    12   6 C        2.918    -0.044    29.089     8.844
    13   6 C        2.972     0.000    28.022     8.683
    14   6 C        3.902     0.025    20.096     6.372
    15   6 C        3.761    -0.105    22.556     6.770
    16   6 C        3.761    -0.105    22.554     6.770
    17   6 C        3.761    -0.107    22.597     6.776
    18   6 C        2.931    -0.039    28.972     8.827
    19   6 C        2.909    -0.055    29.360     8.885
    20   6 C        3.071     0.040    27.035     8.525
    21   7 N        2.801    -0.037    21.958     6.960
    22   6 C        2.910     0.075    26.334     8.415
    23   6 C        2.926    -0.040    29.002     8.832
    24   6 C        2.924    -0.017    28.432     8.744
    25   6 C        2.989    -0.085    30.112     9.001
    26   6 C        3.115     0.006    27.722     8.625
    27   6 C        2.923    -0.043    29.073     8.842
    28   6 C        3.115     0.006    27.722     8.625
    29   6 C        2.923    -0.043    29.073     8.842
    30   6 C        2.910     0.074    26.335     8.415
    31   7 N        2.800    -0.038    21.965     6.961
    32   6 C        3.068     0.040    27.032     8.525
    33   6 C        2.909    -0.055    29.373     8.887
    34   6 C        2.928    -0.043    29.078     8.843
    35   6 C        2.972     0.000    28.020     8.683
    36   6 C        3.903     0.025    20.095     6.372
    37   6 C        3.761    -0.105    22.562     6.771
    38   6 C        3.761    -0.105    22.554     6.770
    39   6 C        3.761    -0.107    22.595     6.776
    40   6 C        2.920    -0.040    28.982     8.828
    41   6 C        3.064    -0.017    28.365     8.734
    42   6 C        3.064    -0.017    28.381     8.736
    43   6 C        2.918    -0.044    29.087     8.844
    44   6 C        2.972    -0.000    28.025     8.684
    45   6 C        3.902     0.025    20.096     6.372
    46   6 C        3.761    -0.105    22.556     6.770
    47   6 C        3.761    -0.105    22.557     6.770
    48   6 C        3.761    -0.107    22.596     6.776
    49   6 C        2.931    -0.039    28.971     8.827
    50   6 C        2.909    -0.055    29.356     8.884
    51   6 C        3.070     0.040    27.023     8.524
    52   6 C        2.926    -0.040    29.003     8.832
    53   6 C        2.924    -0.017    28.433     8.744
    54   6 C        2.989    -0.085    30.112     9.002
    55  16 S        3.945     0.956   107.915    17.484
    56   8 O        0.860    -0.575    25.511     6.772
    57   8 O        0.860    -0.575    25.508     6.771
    58   1 H        0.925     0.036     2.497     2.471
    59   1 H        0.925     0.037     2.492     2.469
    60   1 H        0.925     0.037     2.495     2.470
    61   1 H        0.925     0.038     2.478     2.462
    62   1 H        0.925     0.036     2.506     2.476
    63   1 H        0.925     0.033     2.548     2.496
    64   1 H        0.925     0.038     2.474     2.460
    65   1 H        0.925     0.033     2.546     2.495
    66   1 H        0.925     0.036     2.508     2.477
    67   1 H        0.926     0.032     2.551     2.498
    68   1 H        0.926     0.028     2.613     2.528
    69   1 H        0.926     0.042     2.420     2.432
    70   1 H        0.926     0.042     2.426     2.436
    71   1 H        0.925     0.038     2.473     2.459
    72   1 H        0.925     0.032     2.558     2.501
    73   1 H        0.925     0.036     2.499     2.472
    74   1 H        0.925     0.033     2.545     2.495
    75   1 H        0.925     0.038     2.474     2.460
    76   1 H        0.925     0.037     2.491     2.468
    77   1 H        0.925     0.037     2.493     2.469
    78   1 H        0.925     0.036     2.500     2.472
    79   1 H        0.925     0.036     2.507     2.476
    80   1 H        0.926     0.034     2.525     2.485
    81   1 H        0.926     0.029     2.594     2.519
    82   1 H        0.926     0.070     2.083     2.257
    83   1 H        0.926     0.056     2.251     2.346
    84   1 H        0.926     0.074     2.041     2.234
    85   1 H        0.926     0.074     2.041     2.234
    86   1 H        0.926     0.029     2.596     2.520
    87   1 H        0.926     0.041     2.435     2.440
    88   1 H        0.925     0.038     2.476     2.461
    89   1 H        0.925     0.034     2.537     2.491
    90   1 H        0.925     0.036     2.496     2.471
    91   1 H        0.925     0.038     2.477     2.461
    92   1 H        0.925     0.032     2.560     2.502
    93   1 H        0.925     0.036     2.498     2.471
    94   1 H        0.925     0.037     2.487     2.466
    95   1 H        0.925     0.037     2.492     2.469
    96   1 H        0.925     0.035     2.514     2.479
    97   1 H        0.926     0.035     2.522     2.483
    98   1 H        0.926     0.041     2.430     2.438
    99   1 H        0.925     0.038     2.474     2.460
   100   1 H        0.925     0.033     2.546     2.495
   101   1 H        0.925     0.036     2.507     2.476
   102   1 H        0.925     0.033     2.547     2.496
   103   1 H        0.925     0.036     2.505     2.475
   104   1 H        0.925     0.038     2.477     2.461
   105   1 H        0.925     0.036     2.498     2.472
   106   1 H        0.925     0.037     2.491     2.468
   107   1 H        0.925     0.036     2.500     2.472
   108   1 H        0.926     0.033     2.548     2.496
   109   1 H        0.926     0.028     2.610     2.526
   110   1 H        0.926     0.070     2.084     2.257
   111   1 H        0.926     0.056     2.251     2.346

molecular dipole:
                 x           y           z       tot (Debye)
 q only:        0.105       3.770      -1.262
   full:        0.105       3.239      -1.114       8.709

 projected vibrational frequencies (cm⁻¹)
eigval :       -0.00    -0.00    -0.00    -0.00     0.00     0.00
eigval :        8.15     9.88    16.83    24.15    25.45    27.90
eigval :       33.64    35.16    36.77    37.57    58.65    60.88
eigval :       64.90    69.80    73.54    80.39    81.70    93.68
eigval :       99.81   116.65   122.75   140.49   150.67   158.93
eigval :      161.49   167.58   169.52   179.43   179.70   184.32
eigval :      186.75   196.94   204.56   208.29   214.10   217.94
eigval :      223.17   227.29   229.02   235.50   240.18   243.89
eigval :      258.75   261.81   267.43   269.84   282.48   297.18
eigval :      301.93   311.17   318.12   319.71   322.56   325.60
eigval :      329.81   333.64   337.13   343.00   356.03   356.99
eigval :      359.77   362.24   369.12   370.39   387.42   388.70
eigval :      395.57   399.59   400.61   410.73   411.70   416.37
eigval :      434.96   438.27   442.30   443.35   444.19   445.50
eigval :      461.04   464.75   465.38   467.21   468.43   472.53
eigval :      505.37   516.97   523.00   532.41   534.19   538.42
eigval :      560.10   580.72   583.52   586.19   587.16   592.12
eigval :      602.77   618.82   627.80   640.65   640.90   649.29
eigval :      678.03   682.74   688.20   688.93   690.38   698.31
eigval :      705.71   707.50   713.09   720.76   722.49   754.82
eigval :      806.65   816.29   817.04   821.47   824.55   831.24
eigval :      831.91   832.26   835.16   866.65   870.46   872.59
eigval :      873.00   874.64   875.84   880.42   885.03   907.53
eigval :      907.70   914.06   919.51   920.06   921.92   924.84
eigval :      925.07   925.29   932.41   942.98   958.92   958.98
eigval :      959.37   959.72   961.01   961.20   962.86   962.92
eigval :      963.26   963.61   963.81   963.87   999.09  1010.72
eigval :     1022.02  1031.13  1032.38  1034.04  1035.44  1035.77
eigval :     1035.84  1036.03  1036.08  1039.83  1041.34  1088.38
eigval :     1094.47  1112.36  1115.96  1129.32  1129.58  1136.69
eigval :     1141.60  1152.26  1154.24  1174.69  1177.47  1188.06
eigval :     1194.69  1206.19  1218.85  1220.42  1225.44  1225.55
eigval :     1225.67  1225.79  1226.71  1229.67  1230.90  1231.16
eigval :     1232.75  1234.68  1236.22  1245.27  1249.90  1256.44
eigval :     1265.39  1281.87  1282.75  1296.78  1301.95  1302.93
eigval :     1305.71  1317.28  1337.68  1344.01  1345.05  1349.81
eigval :     1354.43  1361.90  1364.63  1390.47  1399.32  1400.30
eigval :     1401.54  1401.91  1402.53  1402.81  1403.77  1403.93
eigval :     1410.09  1411.78  1426.42  1426.58  1427.20  1428.16
eigval :     1428.32  1433.31  1449.87  1454.13  1463.75  1472.25
eigval :     1479.63  1480.43  1481.63  1488.75  1489.23  1489.73
eigval :     1489.76  1491.07  1492.08  1492.18  1493.38  1498.32
eigval :     1498.69  1499.11  1500.00  1501.79  1502.54  1503.29
eigval :     1504.28  1511.80  1511.94  1512.08  1512.15  1517.20
eigval :     1517.47  1517.60  1518.09  1562.48  1563.67  1564.88
eigval :     1568.93  1572.64  1577.51  1580.76  1582.81  1602.78
eigval :     1603.16  1613.40  1614.93  3019.01  3019.17  3019.23
eigval :     3019.59  3019.76  3020.23  3020.66  3020.92  3023.04
eigval :     3023.67  3024.07  3024.11  3024.68  3024.90  3024.93
eigval :     3025.19  3026.90  3027.00  3027.12  3027.51  3030.48
eigval :     3030.68  3030.96  3031.85  3035.47  3035.49  3035.80
eigval :     3037.47  3043.73  3044.00  3044.56  3045.09  3047.31
eigval :     3047.75  3047.84  3050.47  3079.39  3079.66  3080.77
eigval :     3083.09  3090.49  3092.55  3092.66  3093.76  3097.62
eigval :     3098.12  3109.83  3110.13  3110.36  3115.34  3117.56
eigval :     3118.15  3118.73  3120.64

   temp. (K)  partition function   enthalpy   heat capacity  entropy
                                   cal/mol     cal/K/mol   cal/K/mol   J/K/mol
 298.15  VIB  0.227E+25            32415.550    200.533    199.768
         ROT  0.190E+09              888.752      2.981     40.861
         INT  0.432E+33            33304.303    203.513    240.629
         TR   0.207E+29             1481.254      4.968     45.786
         TOT                       34785.5567   208.4816   286.4147  1198.3591

       T/K    H(0)-H(T)+PV         H(T)/Eh          T*S/Eh         G(T)/Eh
   ------------------------------------------------------------------------
    298.15    0.554343E-01    0.967481E+00    0.136085E+00    0.831396E+00
   ------------------------------------------------------------------------

         :::::::::::::::::::::::::::::::::::::::::::::::::::::
         ::                  THERMODYNAMIC                  ::
         :::::::::::::::::::::::::::::::::::::::::::::::::::::
         :: total free energy        -155.487131201252 Eh   ::
         ::.................................................::
         :: total energy             -156.318526979184 Eh   ::
         :: zero point energy           0.912046334013 Eh   ::
         :: G(RRHO) w/o ZPVE           -0.080650556081 Eh   ::
         :: G(RRHO) contrib.            0.831395777932 Eh   ::
         :::::::::::::::::::::::::::::::::::::::::::::::::::::

           -------------------------------------------------
          | TOTAL ENERGY             -156.318526979184 Eh   |
          | TOTAL ENTHALPY           -155.351046331996 Eh   |
          | TOTAL FREE ENERGY        -155.487131201252 Eh   |
          | GRADIENT NORM               0.000045141639 Eh/α |
          | HOMO-LUMO GAP               2.031293337290 eV   |
           -------------------------------------------------

 * finished run on 2025/09/04 at 16:42:50.456
