   * xtb version 6.7.1 (edcfbbe) compiled by 'albert@albert-system' on 2024-07-22

   ID    Z sym.   atoms
    1    6 C      1-20, 22-30, 32-54
    2    7 N      21, 31
    3   16 S      55
    4    8 O      56, 57
    5    1 H      58-111

          program call               : xtb data2507/toluene/1CzSO/1CzSO.xyz --gfn 2 --gbsa toluene --ohess vtight --parallel 40 --molden --ceasefiles --namespace data2507/toluene/1CzSO/1CzSO_toluene_S0_preOpt
      * Solvation model:               GBSA
        Solvent                        toluene
        Solvent mass                       9.2140E+01 g/mol
          :  Hamiltonian                  GFN2-xTB          :
 * total energy  :  -156.2900212 Eh     change       -0.2091383E-08 Eh
 * total energy  :  -156.3076737 Eh     change       -0.1765250E-01 Eh
 * total energy  :  -156.3137742 Eh     change       -0.6100499E-02 Eh
 * total energy  :  -156.3156391 Eh     change       -0.1864925E-02 Eh
 * total energy  :  -156.3166554 Eh     change       -0.1016278E-02 Eh
 * total energy  :  -156.3169688 Eh     change       -0.3133745E-03 Eh
 * total energy  :  -156.3171059 Eh     change       -0.1371528E-03 Eh
 * total energy  :  -156.3171949 Eh     change       -0.8897090E-04 Eh
 * total energy  :  -156.3172654 Eh     change       -0.7050678E-04 Eh
 * total energy  :  -156.3173261 Eh     change       -0.6074655E-04 Eh
 * total energy  :  -156.3176896 Eh     change       -0.2611613E-06 Eh
 * total energy  :  -156.3176898 Eh     change       -0.2000512E-06 Eh
 * total energy  :  -156.3176901 Eh     change       -0.2329023E-06 Eh
 * total energy  :  -156.3176904 Eh     change       -0.3157771E-06 Eh
 * total energy  :  -156.3176908 Eh     change       -0.4483015E-06 Eh
 * total energy  :  -156.3176914 Eh     change       -0.5685424E-06 Eh
 * total energy  :  -156.3176919 Eh     change       -0.5402225E-06 Eh
 * total energy  :  -156.3176924 Eh     change       -0.4406438E-06 Eh
 * total energy  :  -156.3176924 Eh     change       -0.1040956E-07 Eh
   *** GEOMETRY OPTIMIZATION CONVERGED AFTER 68 ITERATIONS ***

 final structure:
================
111
 xtb: 6.7.1 (edcfbbe)
C           -3.38691735017306        2.94795134281230       -5.02164658978018
C           -3.44751563157031        3.27128504425920       -3.52115120350354
C           -2.18990926554090        4.04903221708365       -3.10507153318619
C           -4.66357506355804        4.17052884574816       -3.27793328506293
C           -3.51469946344944        1.97066452857306       -2.73249434854948
C           -2.46458577664527        1.05097266551962       -2.85125723012377
C           -2.43649391729977       -0.15082546361832       -2.17118003388552
C           -3.49467172718851       -0.44648789274769       -1.32630119328751
C           -4.57897546882038        0.44664425013702       -1.21367272320405
C           -4.58220861543287        1.64844330637386       -1.90943808479337
C           -5.53042712508160       -0.17143006754554       -0.32833977870201
C           -6.75980485871364        0.23123468250131        0.16829494103475
C           -7.45744891350789       -0.58629186870753        1.04891894081468
C           -8.81250122040315       -0.12733654613068        1.57134207399725
C           -8.63705807235074        1.19965034040337        2.32504174914983
C           -9.76453296817055        0.07267997257618        0.38237278797293
C           -9.45524332303902       -1.13536227011245        2.52906967653941
C           -6.87723884539809       -1.79914575098270        1.42977992474613
C           -5.65096994467232       -2.22499588246676        0.94943717091564
C           -4.98306698504935       -1.41683196872258        0.04568099441089
N           -3.74497643766415       -1.57643613897906       -0.56028445091600
C           -2.91307694723127       -2.68512112257313       -0.44467857192584
C           -3.44505577561359       -3.97380846021906       -0.55111897603904
C           -2.62464995080983       -5.08396937009288       -0.43196064960664
C           -1.27815228873859       -4.89146191757496       -0.22426304103167
C           -0.71965514364932       -3.61769539734749       -0.12383756289555
C           -1.54426777214544       -2.50791232504710       -0.22409839492325
C            0.72735240054605       -3.61695687909750        0.09899456382630
C            1.54834778278858       -2.50607465914714        0.21600128886684
C            2.91844211205908       -2.68233024173794        0.42879276856637
N            3.74689906994585       -1.57256772097869        0.55976336711924
C            3.49816771175965       -0.45855510426292        1.34891906525458
C            2.44507077344515       -0.18204129780716        2.20665430778972
C            2.47588789258186        1.00575631213111        2.91064005020064
C            3.52402866734000        1.92945953125465        2.80373502250509
C            3.46191306656294        3.21242543420887        3.62127181264738
C            2.19775346065032        3.99578961802328        3.23684164502959
C            4.67282992093705        4.12022271280629        3.38402657075508
C            3.41948449223707        2.85560159728420        5.11480605011044
C            4.58568369779563        1.62683263816054        1.96611647085600
C            4.57930869812891        0.43968139705264        1.24531766439708
C            5.52482464424609       -0.15740754093478        0.34015548948427
C            6.74988963507319        0.26662338312157       -0.15813599663690
C            7.43973332321201       -0.52945167737474       -1.05845632703845
C            8.79048114564541       -0.13361693645363       -1.63891102515111
C            9.82856040726264       -1.20536132489841       -1.27383142435377
C            9.28948015199082        1.21223397303119       -1.10376586215663
C            8.67131290572561       -0.02388777673546       -3.16645381086042
C            6.85978890733326       -1.74125528205012       -1.45666050206586
C            5.64334226754674       -2.18603740802693       -0.97764890561983
C            4.97938677789906       -1.39624039944639       -0.05221904405553
C            3.45551533020222       -3.97054110946924        0.51148742884575
C            2.63851783417146       -5.08144051778665        0.37651664725245
C            1.29068376684021       -4.89017138687654        0.17659739542178
S            0.00823801282779       -6.12060009915062       -0.03273769103641
O            0.20256400030059       -6.88021853229956       -1.24922482283757
O           -0.18349408006905       -6.89760386577658        1.17310791226598
H           -4.26267056862342        2.37382768694118       -5.31848927047049
H           -2.50135318086975        2.36879341894484       -5.26853542656666
H           -3.36432947925561        3.86795927940298       -5.60235468999676
H           -2.13631646574711        4.99087861647208       -3.64736131013511
H           -2.21712557353501        4.26561623009952       -2.03880194232528
H           -1.28538344806983        3.48490572675193       -3.31489826751896
H           -4.55755728719297        5.08680865430559       -3.85562065949543
H           -5.58228973937041        3.68090305614070       -3.59323419276999
H           -4.74490823909719        4.44346674861292       -2.22814223863492
H           -1.63605667456189        1.27593583108631       -3.50523328008310
H           -1.61801300010720       -0.83950910938743       -2.31640998952369
H           -5.42759591249893        2.30630504710001       -1.79814634238347
H           -7.15794355037907        1.18657542007931       -0.13620105726652
H           -9.59261433822644        1.53227220736991        2.72540960172088
H           -7.94111576410639        1.07319879968326        3.15223412821819
H           -8.25239308371988        1.97880908217036        1.67284692231028
H           -9.87930452520258       -0.85898899936041       -0.16851383542082
H          -10.74443357914731        0.38761299954303        0.73548952288923
H           -9.39082638262221        0.82887791925275       -0.30242431816111
H           -9.62348715930801       -2.09142719295920        2.03822425387300
H           -8.83666374072559       -1.28928840521476        3.41051286805093
H          -10.41975082977237       -0.75464697365810        2.85990635200449
H           -7.38555802838974       -2.44283610461769        2.12832973093533
H           -5.23121868221374       -3.15963304096820        1.28974602131022
H           -4.49797632792559       -4.09868331595751       -0.74809150739129
H           -3.02217203624337       -6.08350620116584       -0.51186968276029
H           -1.14829891377265       -1.51131813209937       -0.11428871430664
H            1.14865723798679       -1.50905928693576        0.12480041468577
H            1.62861980772496       -0.87500883303851        2.34308261666734
H            1.65135818711647        1.21626078548372        3.57444620074952
H            2.14897873498677        4.92616109211786        3.79906432944241
H            1.29684974836316        3.42564581193155        3.44599805941681
H            2.21150848067647        4.23446818954730        2.17503224957263
H            5.59616546688793        3.62720202705112        3.67982402946931
H            4.74259015287305        4.41453872036743        2.33920963183867
H            4.57019606892322        5.02425921822282        3.98127477474853
H            3.40045686381783        3.76226969050298        5.71625707599214
H            2.53885549208687        2.26769798972232        5.35881311402698
H            4.30053933283208        2.27818396824422        5.38869591297937
H            5.42930753847736        2.28807173710476        1.86215032867406
H            7.13707633456387        1.21789003067379        0.16595547003546
H            9.90568505404596       -1.30172632096010       -0.19242362934279
H           10.80539987376121       -0.92963338292277       -1.66606037187052
H            9.55991691028167       -2.17521518952251       -1.68350799128315
H            8.60515570072934        2.01601288790643       -1.36585427215282
H            9.41123704604047        1.18305399435701       -0.02328403841178
H           10.25813655241594        1.44005117682292       -1.54452276131868
H            9.62309573929673        0.28370605776012       -3.59487367742917
H            7.91774495320203        0.71490863320069       -3.43278333695292
H            8.38930153045203       -0.97347603763048       -3.61298061343046
H            7.37359154883539       -2.36348834030085       -2.17342003254281
H            5.22505802015726       -3.11627218317734       -1.33154775558494
H            4.50978250987451       -4.09486182941278        0.70169548488790
H            3.03977669932654       -6.08079244553804        0.43796639337988

          :  Hamiltonian                  GFN2-xTB          :
         :: gradient norm              0.000071538341 Eh/a0 ::
         :: HOMO-LUMO gap              2.020506270064 eV    ::
         :: SCC energy              -158.919451494547 Eh    ::
         :: -> dispersion             -0.143038590306 Eh    ::
         :: -> Gsolv                  -0.067783601792 Eh    ::
         :: repulsion energy           2.601759096771 Eh    ::

    * Orbital Energies and Occupations

         #    Occupation            Energy/Eh            Energy/eV
      -------------------------------------------------------------
         1        2.0000           -0.7795048             -21.2114
       ...           ...                  ...                  ...
       133        2.0000           -0.4172064             -11.3528
       134        2.0000           -0.4130236             -11.2389
       135        2.0000           -0.4129312             -11.2364
       136        2.0000           -0.4100076             -11.1569
       137        2.0000           -0.4095376             -11.1441
       138        2.0000           -0.4077877             -11.0965
       139        2.0000           -0.4074059             -11.0861
       140        2.0000           -0.3979677             -10.8293
       141        2.0000           -0.3973453             -10.8123
       142        2.0000           -0.3762860             -10.2393
       143        2.0000           -0.3754518             -10.2166
       144        2.0000           -0.3626923              -9.8694
       145        2.0000           -0.3618986              -9.8478 (HOMO)
       146                         -0.2876464              -7.8273 (LUMO)
       147                         -0.2637506              -7.1770
       148                         -0.2564358              -6.9780
       149                         -0.2420626              -6.5869
       150                         -0.2415626              -6.5733
       151                         -0.2231625              -6.0726
       152                         -0.2201944              -5.9918
       153                         -0.2195553              -5.9744
       154                         -0.1959651              -5.3325
       155                         -0.1894847              -5.1561
       156                         -0.1854389              -5.0460
       ...                                ...                  ...
       287                          1.1761896              32.0057
      -------------------------------------------------------------
                  HL-Gap            0.0742522 Eh            2.0205 eV

     #   Z          covCN         q      C6AA      α(0)
     1   6 C        3.761    -0.105    22.557     6.770
     2   6 C        3.902     0.025    20.096     6.372
     3   6 C        3.761    -0.106    22.565     6.772
     4   6 C        3.761    -0.107    22.596     6.776
     5   6 C        2.972     0.000    28.020     8.683
     6   6 C        2.931    -0.039    28.971     8.827
     7   6 C        2.909    -0.055    29.365     8.886
     8   6 C        3.070     0.040    27.023     8.524
     9   6 C        3.064    -0.017    28.376     8.735
    10   6 C        2.918    -0.044    29.082     8.843
    11   6 C        3.064    -0.017    28.369     8.734
    12   6 C        2.920    -0.040    28.988     8.829
    13   6 C        2.972     0.000    28.024     8.683
    14   6 C        3.902     0.025    20.096     6.372
    15   6 C        3.761    -0.105    22.558     6.771
    16   6 C        3.761    -0.105    22.557     6.770
    17   6 C        3.761    -0.107    22.594     6.776
    18   6 C        2.928    -0.044    29.084     8.844
    19   6 C        2.909    -0.055    29.369     8.886
    20   6 C        3.069     0.040    27.029     8.525
    21   7 N        2.800    -0.037    21.964     6.961
    22   6 C        2.910     0.074    26.335     8.415
    23   6 C        2.926    -0.040    29.001     8.831
    24   6 C        2.924    -0.017    28.433     8.744
    25   6 C        2.989    -0.085    30.113     9.002
    26   6 C        3.115     0.006    27.722     8.625
    27   6 C        2.922    -0.043    29.070     8.842
    28   6 C        3.115     0.006    27.722     8.625
    29   6 C        2.922    -0.043    29.067     8.841
    30   6 C        2.910     0.075    26.334     8.415
    31   7 N        2.801    -0.037    21.961     6.960
    32   6 C        3.071     0.040    27.031     8.525
    33   6 C        2.908    -0.055    29.364     8.886
    34   6 C        2.931    -0.039    28.974     8.828
    35   6 C        2.972     0.000    28.020     8.683
    36   6 C        3.902     0.025    20.096     6.372
    37   6 C        3.761    -0.106    22.564     6.772
    38   6 C        3.761    -0.107    22.599     6.777
    39   6 C        3.761    -0.105    22.556     6.770
    40   6 C        2.918    -0.044    29.089     8.844
    41   6 C        3.065    -0.017    28.378     8.735
    42   6 C        3.065    -0.018    28.381     8.736
    43   6 C        2.918    -0.044    29.094     8.845
    44   6 C        2.972    -0.000    28.025     8.684
    45   6 C        3.902     0.025    20.097     6.372
    46   6 C        3.761    -0.105    22.556     6.770
    47   6 C        3.761    -0.107    22.600     6.777
    48   6 C        3.761    -0.105    22.556     6.770
    49   6 C        2.931    -0.039    28.975     8.828
    50   6 C        2.909    -0.055    29.356     8.884
    51   6 C        3.071     0.040    27.030     8.525
    52   6 C        2.926    -0.040    28.998     8.831
    53   6 C        2.924    -0.017    28.433     8.744
    54   6 C        2.989    -0.085    30.111     9.001
    55  16 S        3.945     0.956   107.911    17.484
    56   8 O        0.860    -0.575    25.507     6.771
    57   8 O        0.860    -0.575    25.508     6.771
    58   1 H        0.925     0.032     2.554     2.499
    59   1 H        0.925     0.036     2.503     2.474
    60   1 H        0.925     0.038     2.474     2.460
    61   1 H        0.925     0.038     2.476     2.461
    62   1 H        0.925     0.034     2.536     2.490
    63   1 H        0.925     0.037     2.495     2.470
    64   1 H        0.925     0.037     2.492     2.469
    65   1 H        0.925     0.036     2.507     2.476
    66   1 H        0.925     0.036     2.497     2.471
    67   1 H        0.926     0.034     2.533     2.489
    68   1 H        0.926     0.030     2.592     2.518
    69   1 H        0.926     0.041     2.432     2.439
    70   1 H        0.926     0.035     2.516     2.480
    71   1 H        0.925     0.038     2.476     2.460
    72   1 H        0.925     0.032     2.552     2.498
    73   1 H        0.925     0.037     2.486     2.466
    74   1 H        0.925     0.032     2.555     2.500
    75   1 H        0.925     0.038     2.477     2.461
    76   1 H        0.925     0.037     2.487     2.466
    77   1 H        0.925     0.035     2.513     2.479
    78   1 H        0.925     0.035     2.512     2.478
    79   1 H        0.925     0.037     2.490     2.467
    80   1 H        0.926     0.040     2.452     2.449
    81   1 H        0.926     0.028     2.612     2.527
    82   1 H        0.926     0.070     2.082     2.257
    83   1 H        0.926     0.056     2.250     2.346
    84   1 H        0.926     0.074     2.042     2.235
    85   1 H        0.926     0.074     2.042     2.235
    86   1 H        0.926     0.029     2.597     2.520
    87   1 H        0.926     0.034     2.536     2.490
    88   1 H        0.925     0.038     2.477     2.461
    89   1 H        0.925     0.036     2.496     2.471
    90   1 H        0.925     0.034     2.536     2.490
    91   1 H        0.925     0.036     2.504     2.474
    92   1 H        0.925     0.037     2.494     2.470
    93   1 H        0.925     0.037     2.493     2.469
    94   1 H        0.925     0.038     2.475     2.460
    95   1 H        0.925     0.036     2.505     2.475
    96   1 H        0.925     0.032     2.555     2.500
    97   1 H        0.926     0.042     2.421     2.433
    98   1 H        0.926     0.042     2.418     2.432
    99   1 H        0.925     0.033     2.548     2.496
   100   1 H        0.925     0.038     2.477     2.461
   101   1 H        0.925     0.036     2.507     2.476
   102   1 H        0.925     0.037     2.495     2.470
   103   1 H        0.925     0.036     2.497     2.471
   104   1 H        0.925     0.037     2.492     2.469
   105   1 H        0.925     0.038     2.475     2.460
   106   1 H        0.925     0.033     2.545     2.495
   107   1 H        0.925     0.036     2.508     2.476
   108   1 H        0.926     0.032     2.551     2.498
   109   1 H        0.926     0.028     2.615     2.529
   110   1 H        0.926     0.070     2.083     2.257
   111   1 H        0.926     0.056     2.250     2.346

molecular dipole:
                 x           y           z       tot (Debye)
 q only:       -0.006       3.957       0.025
   full:       -0.006       3.420       0.012       8.692

 projected vibrational frequencies (cm⁻¹)
eigval :       -0.00    -0.00     0.00     0.00     0.00     0.00
eigval :        6.99     8.41    10.72    22.26    23.72    29.06
eigval :       30.05    33.16    33.33    37.45    57.70    61.59
eigval :       63.03    70.55    75.07    77.46    83.56    92.11
eigval :      100.09   115.33   123.06   139.35   151.23   158.19
eigval :      162.49   164.35   169.35   176.77   180.07   182.20
eigval :      187.59   194.67   203.45   206.88   214.31   221.08
eigval :      222.82   224.54   226.04   229.28   237.68   244.41
eigval :      259.86   261.11   267.58   271.42   281.57   296.64
eigval :      304.77   312.45   315.49   317.66   319.66   322.22
eigval :      325.38   332.40   341.41   348.08   352.51   356.70
eigval :      359.64   364.93   366.52   370.95   383.92   389.19
eigval :      395.08   396.04   405.71   410.49   411.40   413.92
eigval :      434.47   438.44   441.79   442.42   443.51   445.69
eigval :      459.38   464.15   465.51   466.47   468.46   473.24
eigval :      504.05   518.05   522.59   532.51   535.06   539.58
eigval :      560.13   581.88   583.70   585.76   586.88   591.94
eigval :      605.04   613.66   630.63   640.82   641.73   649.62
eigval :      680.65   681.39   688.00   688.35   690.61   699.12
eigval :      706.50   707.38   712.51   721.09   722.47   755.00
eigval :      806.49   816.18   819.73   822.39   827.50   831.16
eigval :      833.76   834.62   835.86   866.76   869.44   872.49
eigval :      872.77   876.54   879.65   880.89   887.66   905.92
eigval :      910.46   919.27   920.04   922.14   924.74   925.12
eigval :      925.55   927.75   932.27   942.96   958.96   959.16
eigval :      959.70   960.04   960.79   960.80   961.05   961.31
eigval :      962.03   962.32   962.43   964.58   998.98  1010.96
eigval :     1022.06  1030.49  1032.53  1033.82  1034.48  1034.60
eigval :     1034.76  1035.49  1036.00  1039.18  1040.66  1088.40
eigval :     1094.72  1112.62  1116.38  1129.18  1129.44  1136.71
eigval :     1142.41  1153.44  1154.49  1177.02  1177.33  1188.18
eigval :     1195.51  1208.05  1219.08  1220.13  1225.38  1225.40
eigval :     1225.68  1225.88  1226.24  1229.17  1230.38  1230.87
eigval :     1232.30  1234.30  1236.64  1245.45  1250.40  1257.90
eigval :     1265.76  1282.80  1283.22  1298.51  1302.09  1302.95
eigval :     1304.71  1316.83  1337.55  1343.81  1344.04  1351.23
eigval :     1355.55  1361.44  1363.60  1390.39  1399.82  1400.85
eigval :     1401.78  1402.09  1402.30  1402.31  1403.08  1404.30
eigval :     1410.17  1411.83  1426.42  1426.53  1427.07  1427.35
eigval :     1427.60  1433.62  1449.42  1454.01  1463.74  1472.45
eigval :     1479.84  1480.09  1481.82  1488.91  1489.36  1489.44
eigval :     1489.72  1491.61  1491.77  1492.22  1492.42  1498.54
eigval :     1498.73  1499.06  1499.56  1502.04  1502.41  1502.93
eigval :     1503.41  1511.55  1511.97  1512.04  1512.75  1517.07
eigval :     1517.70  1517.97  1518.02  1561.89  1563.43  1564.93
eigval :     1568.77  1572.79  1577.73  1580.91  1582.71  1602.66
eigval :     1602.90  1613.39  1614.79  3017.86  3019.18  3019.19
eigval :     3019.28  3019.98  3020.00  3020.27  3020.50  3023.40
eigval :     3023.48  3023.55  3023.66  3024.84  3025.09  3025.11
eigval :     3025.26  3027.02  3027.30  3027.43  3027.57  3030.43
eigval :     3030.88  3031.01  3031.17  3035.03  3035.63  3035.83
eigval :     3036.03  3043.57  3043.99  3044.21  3044.32  3047.00
eigval :     3047.62  3047.65  3047.77  3079.26  3079.73  3080.20
eigval :     3082.36  3091.40  3092.20  3093.10  3093.37  3099.15
eigval :     3099.36  3109.25  3110.37  3110.53  3114.15  3118.14
eigval :     3118.19  3118.78  3120.60

   temp. (K)  partition function   enthalpy   heat capacity  entropy
                                   cal/mol     cal/K/mol   cal/K/mol   J/K/mol
 298.15  VIB  0.765E+25            32473.802    200.347    200.936
         ROT  0.189E+09              888.752      2.981     40.856
         INT  0.145E+34            33362.554    203.328    241.793
         TR   0.207E+29             1481.254      4.968     45.786
         TOT                       34843.8080   208.2960   287.5785  1203.2285

       T/K    H(0)-H(T)+PV         H(T)/Eh          T*S/Eh         G(T)/Eh
   ------------------------------------------------------------------------
    298.15    0.555271E-01    0.967491E+00    0.136638E+00    0.830854E+00
   ------------------------------------------------------------------------

         :::::::::::::::::::::::::::::::::::::::::::::::::::::
         ::                  THERMODYNAMIC                  ::
         :::::::::::::::::::::::::::::::::::::::::::::::::::::
         :: total free energy        -155.486838808509 Eh   ::
         ::.................................................::
         :: total energy             -156.317692401211 Eh   ::
         :: zero point energy           0.911964282069 Eh   ::
         :: G(RRHO) w/o ZPVE           -0.081110689368 Eh   ::
         :: G(RRHO) contrib.            0.830853592701 Eh   ::
         :::::::::::::::::::::::::::::::::::::::::::::::::::::

           -------------------------------------------------
          | TOTAL ENERGY             -156.317692401211 Eh   |
          | TOTAL ENTHALPY           -155.350200976616 Eh   |
          | TOTAL FREE ENERGY        -155.486838808509 Eh   |
          | GRADIENT NORM               0.000071538584 Eh/α |
          | HOMO-LUMO GAP               2.020505413823 eV   |
           -------------------------------------------------

 * finished run on 2025/09/04 at 16:20:36.521
