   * xtb version 6.7.1 (edcfbbe) compiled by 'albert@albert-system' on 2024-07-22

   ID    Z sym.   atoms
    1    6 C      1-5, 7-12, 14-29, 31-37, 39-56
    2    7 N      6, 13, 30, 38
    3    1 H      57-90

          program call               : xtb data2507/toluene/BPBiPA/BPBiPA_toluene_T1_crest.xyz --gfn 2 --uhf 2 --gbsa toluene --ohess vtight --parallel 40 --molden --ceasefiles --namespace data2507/toluene/BPBiPA/BPBiPA_toluene_T1_finalOpt
      * Solvation model:               GBSA
        Solvent                        toluene
        Solvent mass                       9.2140E+01 g/mol
          :  Hamiltonian                  GFN2-xTB          :
 * total energy  :  -140.4360600 Eh     change       -0.4455188E-08 Eh
 * total energy  :  -140.4361379 Eh     change       -0.7794570E-04 Eh
 * total energy  :  -140.4362056 Eh     change       -0.6768015E-04 Eh
 * total energy  :  -140.4362350 Eh     change       -0.2939528E-04 Eh
 * total energy  :  -140.4362737 Eh     change       -0.3872985E-04 Eh
 * total energy  :  -140.4362989 Eh     change       -0.2517509E-04 Eh
 * total energy  :  -140.4363168 Eh     change       -0.1787517E-04 Eh
 * total energy  :  -140.4363365 Eh     change       -0.1969161E-04 Eh
 * total energy  :  -140.4363447 Eh     change       -0.8249573E-05 Eh
 * total energy  :  -140.4363656 Eh     change       -0.2083559E-04 Eh
 * total energy  :  -140.4367606 Eh     change       -0.2488399E-06 Eh
 * total energy  :  -140.4367608 Eh     change       -0.1953053E-06 Eh
 * total energy  :  -140.4367610 Eh     change       -0.2028300E-06 Eh
 * total energy  :  -140.4367612 Eh     change       -0.2213949E-06 Eh
 * total energy  :  -140.4367614 Eh     change       -0.2276043E-06 Eh
 * total energy  :  -140.4367616 Eh     change       -0.2121786E-06 Eh
 * total energy  :  -140.4367619 Eh     change       -0.2272284E-06 Eh
 * total energy  :  -140.4367621 Eh     change       -0.2671867E-06 Eh
 * total energy  :  -140.4367621 Eh     change       -0.4589083E-08 Eh
   *** GEOMETRY OPTIMIZATION CONVERGED AFTER 68 ITERATIONS ***

 final structure:
================
90
 xtb: 6.7.1 (edcfbbe)
C           -6.74453437949687       -4.69676503887668       -0.09570575218584
C           -7.82560540749488       -4.29066306097348        0.67076455313460
C           -8.20664502219338       -2.96242727431143        0.68408673713619
C           -7.50191723600370       -2.02061476982821       -0.06489482335931
C           -7.94089729069830       -0.63211673232446       -0.03635800252537
N           -9.19888741389878       -0.28291374940587        0.02699595667479
C           -9.21670307005968        1.08470638755902       -0.01572369365701
C          -10.28615087054552        1.97317676202506        0.02776606836083
C          -10.00014228462838        3.32170184220248       -0.01156888320221
C           -8.68634494382483        3.79053890623441       -0.08218478581238
C           -7.61021229424325        2.92649459889967       -0.12891421508805
C           -7.89066715961510        1.56950780922242       -0.10982024977323
N           -7.08795387579015        0.44946469935790       -0.12155139888153
C           -5.68421612942199        0.44666350004794       -0.08967063762580
C           -5.00472820929165       -0.27079081411636        0.89346694487945
C           -3.62766245026629       -0.27229724138462        0.91989049362385
C           -2.88333547072969        0.45898723650623       -0.01574443538811
C           -1.42671936446779        0.45913813841179        0.01226143936722
C           -0.71591804022092        1.69890502374555        0.05230254787514
C           -1.37855012317252        2.92424992017234        0.17351615101444
C           -0.69066431261861        4.13462348098423        0.11970635083635
C            0.67546641735589        4.13747211712632       -0.06441707097209
C            1.36811956128727        2.92997855337729       -0.12175529755669
C            0.71051153550168        1.70164981341933       -0.00308080923844
C            1.42535063437022        0.46412017986573        0.03281809966246
C            2.88212367835461        0.46696974065693        0.04838458242239
C            3.61765365725345       -0.26360065161217       -0.89486812832278
C            4.99483655673886       -0.25823525783602       -0.88474919627117
C            5.68382868391468        0.46254820513762        0.08934053335768
N            7.08791920667788        0.47056154910797        0.10376656818239
C            7.94372397222858       -0.60803269831171        0.01020784017035
C            7.51037894453646       -1.99814355723112        0.04527270427686
C            8.20923825652899       -2.93746534617833       -0.71227796752355
C            7.83354173755611       -4.26714627171182       -0.69380892059603
C            6.76387233679169       -4.67711503429442        0.08646449426531
C            6.08129160483309       -3.75314433912099        0.86095917919593
C            6.45014526441860       -2.42059622477924        0.84552168992040
N            9.19958511387432       -0.25439628683717       -0.06890734056101
C            9.21291211523601        1.11333210707739       -0.02882473500228
C           10.27854380419894        2.00555396314502       -0.08681701472346
C            9.98812508408134        3.35311504367788       -0.04728009119590
C            8.67352390491866        3.81735397443609        0.03766233351370
C            7.60117162357073        2.94952173726913        0.09932267343355
C            7.88629911457815        1.59351597022430        0.07999026306944
C            4.96943417413280        1.19203904134656        1.03720733581659
C            3.59127344976786        1.19892137687159        1.00941763459879
C            0.71418225586105       -0.77608193639288        0.05954215166416
C            1.37559544222597       -2.00186530669038        0.18254989789987
C            0.68839543604099       -3.21221921281451        0.12200921269023
C           -0.67673422703228       -3.21490434252410       -0.06910112261804
C           -1.36841242228901       -2.00726335350604       -0.13220759095827
C           -0.71166097479162       -0.77875457609462       -0.01110626669885
C           -3.58325211421969        1.18919170045251       -0.98487501006847
C           -4.96086544617591        1.17823225642496       -1.02915620867036
C           -6.43010905919814       -2.43931503592489       -0.85163426564445
C           -6.05588006763667       -3.77040446794587       -0.86191755193547
H           -6.44536058466316       -5.73442452067725       -0.10349254428905
H           -8.37343782543289       -5.01160065880424        1.25947248658633
H           -9.04915565492977       -2.63069693679331        1.27151877830886
H          -11.29850367037904        1.60684460421574        0.09527217396923
H          -10.80859144311914        4.03745576351974        0.02031307581015
H           -8.50909224591244        4.85581675885050       -0.09909881483458
H           -6.59591045779584        3.29409319412022       -0.17210050216693
H           -5.56665776252464       -0.82037590522084        1.63436708656996
H           -3.11125378973903       -0.81101852863288        1.70014645269076
H           -2.44766621118378        2.93745529419078        0.31896343295644
H           -1.23600205758307        5.06258315094771        0.20734156568474
H            1.21719598474196        5.06776808697727       -0.14966140713069
H            2.43699545789434        2.94797878441751       -0.26826228449955
H            3.09349175906615       -0.80497149764775       -1.66810487488443
H            5.54947674394411       -0.80693354123623       -1.63176521487576
H            9.04280960606840       -2.60254138082068       -1.31052671310655
H            8.37670223317116       -4.98618449974657       -1.28913190421878
H            6.46901662468158       -5.71596173861809        0.09850831595606
H            5.26041219650930       -4.07229518522119        1.48633494392507
H            5.92669729993164       -1.71189656763914        1.47043339183448
H           11.29132997439354        1.64263101813079       -0.16539677241152
H           10.79358524878469        4.07165014124511       -0.09042978407946
H            8.49260044328878        4.88202363066771        0.05398375177615
H            6.58612392208573        3.31355704051918        0.15383370824555
H            5.50278017389320        1.73315318403818        1.80512108580483
H            3.04581606841821        1.74364571489204        1.76575836888454
H            2.44372007402299       -2.01557145717882        0.33184303143799
H            1.23417277130488       -4.13971956781878        0.21047715160656
H           -1.21910514576339       -4.14457028101054       -0.15583101192123
H           -2.43634761326914       -2.02526606475693       -0.28222730410033
H           -3.03016658716884        1.73576064538681       -1.73433912828936
H           -5.48646946937586        1.71751986215399       -1.80363299952198
H           -5.90169039836099       -1.72890120018173       -1.47038824135974
H           -5.22609730915253       -4.08657107998361       -1.47696528126104

          :  Hamiltonian                  GFN2-xTB          :
         :: gradient norm              0.000039864423 Eh/a0 ::
         :: HOMO-LUMO gap              0.841424820519 eV    ::
         :: SCC energy              -143.057208021643 Eh    ::
         :: -> dispersion             -0.131506017560 Eh    ::
         :: -> Gsolv                  -0.061018751748 Eh    ::
         :: repulsion energy           2.620445885994 Eh    ::

    * Orbital Energies and Occupations

         #    Occupation            Energy/Eh            Energy/eV
      -------------------------------------------------------------
         1        2.0000           -0.6901031             -18.7787
       ...           ...                  ...                  ...
       120        2.0000           -0.4124797             -11.2241
       121        2.0000           -0.4103214             -11.1654
       122        2.0000           -0.4063844             -11.0583
       123        2.0000           -0.4057010             -11.0397
       124        2.0000           -0.4030811             -10.9684
       125        2.0000           -0.3856582             -10.4943
       126        2.0000           -0.3845174             -10.4633
       127        2.0000           -0.3838376             -10.4448
       128        2.0000           -0.3837593             -10.4426
       129        2.0000           -0.3819260             -10.3927
       130        2.0000           -0.3816244             -10.3845
       131        1.0000           -0.3550030              -9.6601
       132        1.0000           -0.2950065              -8.0275 (HOMO)
       133                         -0.2640847              -7.1861 (LUMO)
       134                         -0.2634551              -7.1690
       135                         -0.2407401              -6.5509
       136                         -0.2401985              -6.5361
       137                         -0.2382412              -6.4829
       138                         -0.2379170              -6.4741
       139                         -0.2319445              -6.3115
       140                         -0.2297123              -6.2508
       141                         -0.2294451              -6.2435
       142                         -0.2270846              -6.1793
       143                         -0.2207746              -6.0076
       ...                                ...                  ...
       258                          0.7053444              19.1934
      -------------------------------------------------------------
                  HL-Gap            0.0309217 Eh            0.8414 eV

     #   Z          covCN         q      C6AA      α(0)
     1   6 C        2.920    -0.027    28.683     8.783
     2   6 C        2.918    -0.027    28.673     8.781
     3   6 C        2.926    -0.028    28.694     8.785
     4   6 C        2.975    -0.000    28.036     8.685
     5   6 C        3.179     0.144    24.501     8.082
     6   7 N        1.885    -0.320    29.139     8.002
     7   6 C        3.189     0.069    26.005     8.319
     8   6 C        2.910    -0.048    29.180     8.858
     9   6 C        2.922    -0.041    29.028     8.835
    10   6 C        2.926    -0.039    28.981     8.828
    11   6 C        2.908    -0.053    29.327     8.880
    12   6 C        3.086     0.036    27.104     8.534
    13   7 N        2.824    -0.057    22.341     7.020
    14   6 C        2.912     0.060    26.655     8.466
    15   6 C        2.918    -0.041    29.009     8.832
    16   6 C        2.923    -0.030    28.753     8.794
    17   6 C        2.972     0.016    27.649     8.625
    18   6 C        2.972    -0.009    28.249     8.718
    19   6 C        2.977     0.009    27.804     8.649
    20   6 C        2.921    -0.037    28.932     8.821
    21   6 C        2.913    -0.031    28.769     8.795
    22   6 C        2.914    -0.031    28.768     8.795
    23   6 C        2.921    -0.038    28.934     8.821
    24   6 C        2.977     0.009    27.804     8.649
    25   6 C        2.972    -0.009    28.249     8.718
    26   6 C        2.972     0.016    27.649     8.625
    27   6 C        2.924    -0.030    28.752     8.793
    28   6 C        2.918    -0.041    29.009     8.832
    29   6 C        2.912     0.060    26.655     8.466
    30   7 N        2.824    -0.057    22.341     7.020
    31   6 C        3.179     0.144    24.501     8.081
    32   6 C        2.975    -0.000    28.036     8.685
    33   6 C        2.927    -0.028    28.694     8.785
    34   6 C        2.918    -0.027    28.673     8.781
    35   6 C        2.920    -0.027    28.683     8.783
    36   6 C        2.919    -0.028    28.708     8.786
    37   6 C        2.922    -0.032    28.810     8.802
    38   7 N        1.886    -0.320    29.139     8.002
    39   6 C        3.189     0.069    26.005     8.319
    40   6 C        2.910    -0.048    29.180     8.858
    41   6 C        2.922    -0.041    29.028     8.835
    42   6 C        2.926    -0.039    28.981     8.828
    43   6 C        2.908    -0.053    29.326     8.880
    44   6 C        3.086     0.036    27.104     8.534
    45   6 C        2.918    -0.042    29.050     8.839
    46   6 C        2.924    -0.031    28.778     8.797
    47   6 C        2.977     0.009    27.805     8.649
    48   6 C        2.921    -0.037    28.927     8.820
    49   6 C        2.914    -0.030    28.758     8.794
    50   6 C        2.914    -0.030    28.757     8.793
    51   6 C        2.921    -0.037    28.929     8.820
    52   6 C        2.976     0.009    27.804     8.649
    53   6 C        2.924    -0.031    28.776     8.797
    54   6 C        2.918    -0.042    29.051     8.839
    55   6 C        2.922    -0.032    28.810     8.802
    56   6 C        2.919    -0.028    28.708     8.786
    57   1 H        0.926     0.042     2.416     2.431
    58   1 H        0.926     0.042     2.418     2.432
    59   1 H        0.926     0.045     2.382     2.414
    60   1 H        0.926     0.038     2.477     2.461
    61   1 H        0.926     0.034     2.530     2.487
    62   1 H        0.926     0.035     2.513     2.479
    63   1 H        0.926     0.032     2.558     2.501
    64   1 H        0.926     0.036     2.503     2.474
    65   1 H        0.926     0.047     2.362     2.404
    66   1 H        0.926     0.035     2.516     2.480
    67   1 H        0.926     0.032     2.552     2.498
    68   1 H        0.926     0.032     2.552     2.498
    69   1 H        0.926     0.035     2.514     2.480
    70   1 H        0.926     0.047     2.363     2.404
    71   1 H        0.926     0.036     2.503     2.474
    72   1 H        0.926     0.045     2.382     2.414
    73   1 H        0.926     0.042     2.418     2.432
    74   1 H        0.926     0.042     2.416     2.431
    75   1 H        0.926     0.041     2.441     2.443
    76   1 H        0.926     0.030     2.592     2.518
    77   1 H        0.926     0.038     2.477     2.461
    78   1 H        0.926     0.034     2.530     2.487
    79   1 H        0.926     0.035     2.513     2.479
    80   1 H        0.926     0.032     2.558     2.501
    81   1 H        0.926     0.042     2.419     2.432
    82   1 H        0.926     0.046     2.365     2.405
    83   1 H        0.926     0.037     2.493     2.469
    84   1 H        0.926     0.034     2.529     2.487
    85   1 H        0.926     0.034     2.529     2.487
    86   1 H        0.926     0.037     2.492     2.469
    87   1 H        0.926     0.046     2.367     2.406
    88   1 H        0.926     0.042     2.419     2.432
    89   1 H        0.926     0.030     2.592     2.518
    90   1 H        0.926     0.041     2.441     2.443

molecular dipole:
                 x           y           z       tot (Debye)
 q only:        0.000      -0.734       0.017
   full:       -0.000      -0.245       0.019       0.624

 projected vibrational frequencies (cm⁻¹)
eigval :       -0.00     0.00     0.00     0.00     0.00     0.00
eigval :        5.60     8.86    10.66    20.53    23.72    32.19
eigval :       38.77    40.51    55.21    56.81    60.16    60.51
eigval :       68.95    70.61    77.23    78.91    86.28    94.24
eigval :      102.54   115.88   146.61   156.92   172.06   182.74
eigval :      185.04   185.54   206.01   207.11   219.40   231.70
eigval :      251.67   254.73   262.65   283.98   285.47   302.93
eigval :      322.38   332.15   341.77   353.33   368.99   372.11
eigval :      373.60   375.24   378.45   379.94   383.73   387.04
eigval :      406.24   407.81   415.05   419.96   425.03   426.68
eigval :      463.52   471.87   483.40   484.79   494.20   507.25
eigval :      539.16   541.30   548.23   548.46   566.68   570.47
eigval :      574.47   579.20   585.20   586.18   587.39   596.50
eigval :      600.31   614.87   615.56   625.67   640.99   652.96
eigval :      656.01   664.01   666.72   674.80   675.63   676.44
eigval :      685.50   687.16   697.15   710.36   712.17   718.37
eigval :      722.41   745.92   750.27   759.77   762.98   764.69
eigval :      773.83   774.00   813.94   818.10   844.59   849.60
eigval :      862.76   864.39   864.52   866.46   870.52   874.39
eigval :      875.90   877.37   883.34   883.85   890.89   893.08
eigval :      893.94   898.61   899.26   902.86   903.82   904.43
eigval :      904.86   909.97   912.69   920.04   920.69   922.92
eigval :      924.66   927.93   928.99   930.65   932.13   932.83
eigval :      936.39   945.11   965.76   967.89   990.41   993.54
eigval :     1029.80  1031.41  1060.23  1060.37  1080.29  1080.48
eigval :     1102.49  1105.71  1113.45  1117.82  1117.91  1125.55
eigval :     1129.20  1130.15  1133.11  1133.35  1134.73  1135.51
eigval :     1174.74  1174.94  1178.08  1178.35  1179.45  1180.12
eigval :     1181.26  1186.13  1191.33  1195.72  1196.20  1198.76
eigval :     1208.10  1209.13  1231.51  1254.37  1258.37  1259.46
eigval :     1261.91  1265.40  1277.10  1277.32  1278.69  1291.78
eigval :     1291.97  1296.84  1298.05  1306.11  1308.82  1315.58
eigval :     1316.88  1319.19  1319.31  1333.37  1360.66  1361.03
eigval :     1361.13  1364.22  1374.90  1375.27  1379.43  1405.38
eigval :     1406.78  1408.39  1412.81  1412.91  1420.52  1429.10
eigval :     1429.24  1458.07  1458.24  1471.05  1472.49  1480.59
eigval :     1484.31  1485.43  1486.80  1523.18  1525.19  1525.92
eigval :     1528.21  1533.28  1533.79  1552.77  1569.43  1573.17
eigval :     1578.98  1578.99  1586.80  1586.80  1595.49  1595.53
eigval :     1612.71  1612.76  3074.36  3074.38  3074.38  3074.66
eigval :     3074.70  3076.29  3077.89  3077.93  3078.08  3078.10
eigval :     3079.22  3079.36  3080.67  3081.30  3083.34  3084.59
eigval :     3084.66  3086.04  3089.09  3089.12  3090.27  3090.44
eigval :     3092.04  3092.15  3092.82  3094.61  3095.01  3098.20
eigval :     3099.19  3099.43  3099.72  3099.93  3102.32  3104.63

   temp. (K)  partition function   enthalpy   heat capacity  entropy
                                   cal/mol     cal/K/mol   cal/K/mol   J/K/mol
 298.15  VIB  0.422E+21            25643.743    163.158    161.131
         ROT  0.159E+09              888.752      2.981     40.507
         INT  0.671E+29            26532.495    166.139    201.639
         TR   0.185E+29             1481.254      4.968     45.560
         TOT                       28013.7491   171.1073   247.1988  1034.2800

       T/K    H(0)-H(T)+PV         H(T)/Eh          T*S/Eh         G(T)/Eh
   ------------------------------------------------------------------------
    298.15    0.446428E-01    0.732307E+00    0.117452E+00    0.614855E+00
   ------------------------------------------------------------------------

         :::::::::::::::::::::::::::::::::::::::::::::::::::::
         ::                  THERMODYNAMIC                  ::
         :::::::::::::::::::::::::::::::::::::::::::::::::::::
         :: total free energy        -139.821907385417 Eh   ::
         ::.................................................::
         :: total energy             -140.436762132755 Eh   ::
         :: zero point energy           0.687664142797 Eh   ::
         :: G(RRHO) w/o ZPVE           -0.072809395460 Eh   ::
         :: G(RRHO) contrib.            0.614854747338 Eh   ::
         :::::::::::::::::::::::::::::::::::::::::::::::::::::

           -------------------------------------------------
          | TOTAL ENERGY             -140.436762132755 Eh   |
          | TOTAL ENTHALPY           -139.704455239163 Eh   |
          | TOTAL FREE ENERGY        -139.821907385417 Eh   |
          | GRADIENT NORM               0.000039864406 Eh/α |
          | HOMO-LUMO GAP               0.841423514099 eV   |
           -------------------------------------------------

 * finished run on 2025/09/04 at 05:13:43.486
