   * xtb version 6.7.1 (edcfbbe) compiled by 'albert@albert-system' on 2024-07-22

   ID    Z sym.   atoms
    1    6 C      1-5, 7-12, 14-29, 31-37, 39-56
    2    7 N      6, 13, 30, 38
    3    1 H      57-90

          program call               : xtb data2507/toluene/BPBiPA/BPBiPA_toluene_S0_finalOpt.xtbopt.xyz --gfn 2 --uhf 2 --gbsa toluene --ohess vtight --parallel 40 --molden --ceasefiles --namespace data2507/toluene/BPBiPA/BPBiPA_toluene_T1_preOpt
      * Solvation model:               GBSA
        Solvent                        toluene
        Solvent mass                       9.2140E+01 g/mol
          :  Hamiltonian                  GFN2-xTB          :
 * total energy  :  -140.4266698 Eh     change       -0.3341682E-08 Eh
 * total energy  :  -140.4327231 Eh     change       -0.6053273E-02 Eh
 * total energy  :  -140.4341182 Eh     change       -0.1395107E-02 Eh
 * total energy  :  -140.4342649 Eh     change       -0.1466810E-03 Eh
 * total energy  :  -140.4344448 Eh     change       -0.1799925E-03 Eh
 * total energy  :  -140.4345706 Eh     change       -0.1257776E-03 Eh
 * total energy  :  -140.4347378 Eh     change       -0.1672131E-03 Eh
 * total energy  :  -140.4349069 Eh     change       -0.1690368E-03 Eh
 * total energy  :  -140.4350020 Eh     change       -0.9512288E-04 Eh
 * total energy  :  -140.4350532 Eh     change       -0.5119749E-04 Eh
 * total energy  :  -140.4367087 Eh     change       -0.2120348E-05 Eh
 * total energy  :  -140.4367112 Eh     change       -0.2532388E-05 Eh
 * total energy  :  -140.4367147 Eh     change       -0.3458698E-05 Eh
 * total energy  :  -140.4367188 Eh     change       -0.4088599E-05 Eh
 * total energy  :  -140.4367222 Eh     change       -0.3425654E-05 Eh
 * total energy  :  -140.4367245 Eh     change       -0.2314952E-05 Eh
 * total energy  :  -140.4367259 Eh     change       -0.1385835E-05 Eh
 * total energy  :  -140.4367269 Eh     change       -0.9616928E-06 Eh
 * total energy  :  -140.4367269 Eh     change       -0.4740059E-08 Eh
   *** GEOMETRY OPTIMIZATION CONVERGED AFTER 94 ITERATIONS ***

 final structure:
================
90
 xtb: 6.7.1 (edcfbbe)
C           -6.88852528384261       -4.68750523095388        0.13640624555923
C           -7.93856179923333       -4.23270023059048        0.91851369571230
C           -8.28067357656123       -2.89388249597130        0.90988141167092
C           -7.56801922975373       -1.99044058202773        0.12207982147373
C           -7.96671398732379       -0.58962169596915        0.12983709012592
N           -9.21253562986645       -0.20391124959485        0.21873446233461
C           -9.19391770838152        1.16255415062686        0.14820098129031
C          -10.23684989071423        2.08163174815642        0.20044989347145
C           -9.91485150400421        3.42057116839562        0.12713944596796
C           -8.59073206098154        3.85084039106100        0.01493480455051
C           -7.54070587280097        2.95592530903600       -0.04248050291032
C           -7.85802542950148        1.60791193921634        0.01004552185882
N           -7.08703232018205        0.46567637886416       -0.00022042913012
C           -5.68356213958272        0.42931212510202       -0.01530151883791
C           -4.98556533346517       -0.28776882912426        0.95500861196059
C           -3.60836613374516       -0.30860547708634        0.94071364943022
C           -2.88242619639506        0.40522945910094       -0.02203124002279
C           -1.42516620395284        0.40292132711298       -0.02101901489263
C           -0.71395140610706        1.64267675786601        0.00611725293145
C           -1.37439575516763        2.86949139652868        0.12469376801207
C           -0.68520472187031        4.07884393291739        0.06285092228342
C            0.68031851575150        4.07937439017640       -0.12490699074517
C            1.37110196958204        2.87063875866467       -0.18062619513710
C            0.71204092765593        1.64358280012316       -0.05723349442135
C            1.42573694396445        0.40535793674227       -0.02360609453291
C            2.88298415547421        0.41256910609536       -0.00946863639841
C            3.62247585882865       -0.29909264161635       -0.96332315034856
C            4.99976979721984       -0.27387738549259       -0.96111169399561
C            5.68389743977465        0.44537251574775        0.01734079348238
N            7.08735272046331        0.48480122043162        0.01963055809274
C            7.97047227268969       -0.56869178553546       -0.10142629742466
C            7.57364926435383       -1.97008302488569       -0.09898854400410
C            8.29414056567856       -2.87164551876292       -0.88176771730417
C            7.95270053664503       -4.21059576225408       -0.89623895259857
C            6.89549422626212       -4.66738002992071       -0.12501481848500
C            6.19143091801604       -3.78106095548756        0.67391780374712
C            6.52662259112487       -2.43970176458228        0.69231303526773
N            9.21636130246087       -0.18052083373723       -0.17748176806678
C            9.19421083841929        1.18596170493617       -0.10739669851906
C           10.23565741605200        2.10720866861818       -0.14998877083429
C            9.91011215054042        3.44551581586485       -0.08076318204837
C            8.58409103223634        3.87305762408169        0.01835085488292
C            7.53542712366178        2.97597230653712        0.06583291334680
C            7.85608431832754        1.62861538850981        0.01707041959295
C            4.96493063880515        1.14859895773585        0.98154915546488
C            3.58685166830225        1.13854292114032        0.95971364702549
C            0.71487224495742       -0.83442475920324        0.00413678036006
C            1.37688729318730       -2.06096691840220        0.11546216700034
C            0.68710569083077       -3.27033830179153        0.06140445559874
C           -0.68057354871379       -3.27126765404857       -0.11034012511236
C           -1.37210282435239       -2.06279918259374       -0.16277855483483
C           -0.71173593938500       -0.83548054487591       -0.05070279099672
C           -3.60000132092116        1.12744802764575       -0.98387136603648
C           -4.97835588277402        1.13336668208486       -0.98896943777297
C           -6.52814069902628       -2.45800863844939       -0.67977963281961
C           -6.19217936282061       -3.79924593580520       -0.66710996692569
H           -6.61948185390350       -5.73338253365395        0.14588565592101
H           -8.49255511702797       -4.92372418828568        1.53661387016496
H           -9.09828318881578       -2.52406053262938        1.50963123073911
H          -11.25688946603101        1.74529332924359        0.30065770939740
H          -10.70216398178352        4.15921728873665        0.16496344428530
H           -8.38443556247379        4.91020624934262       -0.02674245042733
H           -6.51809403262289        3.29400454623458       -0.11830258116353
H           -5.53262975918137       -0.81973969048975        1.71946165187974
H           -3.07618395528257       -0.84667491055515        1.71079391732718
H           -2.44281480817202        2.88509716078485        0.27469638526781
H           -1.22928716101737        5.00776069480160        0.14811533927573
H            1.22313127334959        5.00861169036947       -0.21460070798800
H            2.43970856714730        2.88676510816149       -0.32942257135820
H            3.10162250343551       -0.83891634968160       -1.73984474889122
H            5.55761851368367       -0.80434212155875       -1.71878726722028
H            9.11700517593494       -2.50024533743260       -1.47330346744798
H            8.51269204365549       -4.90012562008510       -1.51059187707182
H            6.62679847778606       -5.71330118986363       -0.13936224085633
H            5.37998063653360       -4.13665476028918        1.29191567728933
H            5.98695237948536       -1.76081463687370        1.33622838376421
H           11.25734719124207        1.77299786286535       -0.24003625626154
H           10.69618524705517        4.18581158586792       -0.11145392246134
H            8.37513808758918        4.93200918781078        0.05727284906697
H            6.51138973023961        3.31193205709784        0.13111787573496
H            5.49518605079269        1.68473555159647        1.75504970039444
H            3.03731625664225        1.66726884966177        1.72444288976968
H            2.44706697643299       -2.07591075386926        0.25014749325930
H            1.23274715619008       -4.19879587326238        0.14037763623427
H           -1.22485146640759       -4.20043212378230       -0.19033171282595
H           -2.44237984140557       -2.07909188515503       -0.29664766391986
H           -3.06160599069215        1.65638108168495       -1.75632099336624
H           -5.51958653669994        1.66716127524106       -1.75647632607579
H           -5.99488742335019       -1.77767364226717       -1.32747625783985
H           -5.38634439844661       -4.15327122978516       -1.29330392873943

          :  Hamiltonian                  GFN2-xTB          :
         :: gradient norm              0.000054562745 Eh/a0 ::
         :: HOMO-LUMO gap              0.836150377483 eV    ::
         :: SCC energy              -143.057255154595 Eh    ::
         :: -> dispersion             -0.131396987652 Eh    ::
         :: -> Gsolv                  -0.061101561843 Eh    ::
         :: repulsion energy           2.620528292160 Eh    ::

    * Orbital Energies and Occupations

         #    Occupation            Energy/Eh            Energy/eV
      -------------------------------------------------------------
         1        2.0000           -0.6901319             -18.7794
       ...           ...                  ...                  ...
       120        2.0000           -0.4124764             -11.2241
       121        2.0000           -0.4103430             -11.1660
       122        2.0000           -0.4064399             -11.0598
       123        2.0000           -0.4057519             -11.0411
       124        2.0000           -0.4032405             -10.9727
       125        2.0000           -0.3856157             -10.4931
       126        2.0000           -0.3844961             -10.4627
       127        2.0000           -0.3838443             -10.4449
       128        2.0000           -0.3837597             -10.4426
       129        2.0000           -0.3819274             -10.3928
       130        2.0000           -0.3816232             -10.3845
       131        1.0000           -0.3550885              -9.6625
       132        1.0000           -0.2948931              -8.0244 (HOMO)
       133                         -0.2641651              -7.1883 (LUMO)
       134                         -0.2635460              -7.1715
       135                         -0.2406948              -6.5496
       136                         -0.2402032              -6.5363
       137                         -0.2382877              -6.4841
       138                         -0.2379775              -6.4757
       139                         -0.2319060              -6.3105
       140                         -0.2297059              -6.2506
       141                         -0.2294403              -6.2434
       142                         -0.2271248              -6.1804
       143                         -0.2207883              -6.0080
       ...                                ...                  ...
       258                          0.7053366              19.1932
      -------------------------------------------------------------
                  HL-Gap            0.0307279 Eh            0.8362 eV

     #   Z          covCN         q      C6AA      α(0)
     1   6 C        2.920    -0.027    28.683     8.783
     2   6 C        2.918    -0.027    28.673     8.781
     3   6 C        2.927    -0.028    28.694     8.785
     4   6 C        2.975    -0.001    28.036     8.685
     5   6 C        3.178     0.144    24.505     8.083
     6   7 N        1.886    -0.320    29.138     8.002
     7   6 C        3.188     0.069    26.008     8.320
     8   6 C        2.910    -0.048    29.180     8.858
     9   6 C        2.922    -0.041    29.028     8.835
    10   6 C        2.926    -0.039    28.981     8.828
    11   6 C        2.908    -0.053    29.327     8.880
    12   6 C        3.087     0.036    27.105     8.534
    13   7 N        2.824    -0.057    22.338     7.020
    14   6 C        2.912     0.060    26.654     8.466
    15   6 C        2.918    -0.041    29.009     8.832
    16   6 C        2.924    -0.030    28.751     8.793
    17   6 C        2.973     0.016    27.648     8.625
    18   6 C        2.972    -0.009    28.249     8.718
    19   6 C        2.977     0.009    27.804     8.649
    20   6 C        2.921    -0.038    28.935     8.821
    21   6 C        2.913    -0.031    28.768     8.795
    22   6 C        2.913    -0.031    28.769     8.795
    23   6 C        2.921    -0.038    28.933     8.821
    24   6 C        2.977     0.009    27.804     8.649
    25   6 C        2.972    -0.009    28.249     8.718
    26   6 C        2.973     0.016    27.648     8.625
    27   6 C        2.923    -0.030    28.753     8.793
    28   6 C        2.918    -0.041    29.009     8.832
    29   6 C        2.912     0.060    26.654     8.466
    30   7 N        2.824    -0.057    22.338     7.020
    31   6 C        3.178     0.144    24.505     8.082
    32   6 C        2.975    -0.000    28.036     8.685
    33   6 C        2.927    -0.028    28.694     8.785
    34   6 C        2.918    -0.027    28.673     8.781
    35   6 C        2.920    -0.027    28.683     8.783
    36   6 C        2.919    -0.028    28.708     8.786
    37   6 C        2.922    -0.032    28.809     8.802
    38   7 N        1.886    -0.320    29.139     8.002
    39   6 C        3.188     0.069    26.008     8.320
    40   6 C        2.910    -0.048    29.180     8.858
    41   6 C        2.922    -0.041    29.028     8.835
    42   6 C        2.926    -0.039    28.980     8.828
    43   6 C        2.908    -0.053    29.327     8.880
    44   6 C        3.087     0.036    27.105     8.534
    45   6 C        2.918    -0.042    29.051     8.839
    46   6 C        2.924    -0.031    28.774     8.797
    47   6 C        2.976     0.009    27.804     8.649
    48   6 C        2.921    -0.037    28.928     8.820
    49   6 C        2.913    -0.030    28.757     8.794
    50   6 C        2.913    -0.030    28.758     8.794
    51   6 C        2.921    -0.037    28.926     8.820
    52   6 C        2.976     0.009    27.805     8.649
    53   6 C        2.924    -0.031    28.776     8.797
    54   6 C        2.918    -0.042    29.051     8.839
    55   6 C        2.922    -0.032    28.809     8.802
    56   6 C        2.919    -0.028    28.708     8.786
    57   1 H        0.926     0.042     2.416     2.431
    58   1 H        0.926     0.042     2.418     2.432
    59   1 H        0.926     0.045     2.381     2.413
    60   1 H        0.926     0.038     2.477     2.461
    61   1 H        0.926     0.034     2.530     2.487
    62   1 H        0.926     0.035     2.513     2.479
    63   1 H        0.926     0.032     2.558     2.501
    64   1 H        0.926     0.036     2.500     2.473
    65   1 H        0.926     0.047     2.364     2.404
    66   1 H        0.926     0.035     2.518     2.481
    67   1 H        0.926     0.032     2.552     2.498
    68   1 H        0.926     0.032     2.553     2.498
    69   1 H        0.926     0.035     2.520     2.482
    70   1 H        0.926     0.047     2.363     2.404
    71   1 H        0.926     0.036     2.500     2.473
    72   1 H        0.926     0.045     2.382     2.413
    73   1 H        0.926     0.042     2.418     2.432
    74   1 H        0.926     0.042     2.416     2.431
    75   1 H        0.926     0.041     2.441     2.443
    76   1 H        0.926     0.030     2.591     2.517
    77   1 H        0.926     0.038     2.477     2.461
    78   1 H        0.926     0.034     2.529     2.487
    79   1 H        0.926     0.035     2.513     2.479
    80   1 H        0.926     0.032     2.557     2.501
    81   1 H        0.926     0.042     2.418     2.432
    82   1 H        0.926     0.046     2.369     2.407
    83   1 H        0.926     0.037     2.495     2.470
    84   1 H        0.926     0.034     2.530     2.488
    85   1 H        0.926     0.034     2.531     2.488
    86   1 H        0.926     0.036     2.496     2.471
    87   1 H        0.926     0.046     2.367     2.406
    88   1 H        0.926     0.042     2.418     2.432
    89   1 H        0.926     0.030     2.591     2.517
    90   1 H        0.926     0.041     2.441     2.443

molecular dipole:
                 x           y           z       tot (Debye)
 q only:       -0.000      -0.798      -0.016
   full:       -0.001      -0.324      -0.018       0.825

 projected vibrational frequencies (cm⁻¹)
eigval :       -0.00    -0.00    -0.00     0.00     0.00     0.00
eigval :       -2.73    11.14    12.73    21.45    24.29    34.12
eigval :       38.81    42.16    55.76    57.83    59.20    61.83
eigval :       70.05    70.88    76.04    78.61    87.50    93.99
eigval :      102.67   115.98   145.06   157.69   171.85   182.92
eigval :      185.59   186.62   206.28   207.31   219.24   231.25
eigval :      250.98   254.54   263.62   284.17   285.63   303.30
eigval :      322.96   332.41   342.18   352.73   369.00   371.80
eigval :      373.63   375.43   378.90   379.54   383.40   386.62
eigval :      407.25   408.98   414.79   419.69   424.67   426.98
eigval :      463.34   471.49   483.70   485.18   493.89   507.61
eigval :      539.57   541.60   549.32   549.64   566.46   570.38
eigval :      574.42   578.83   585.17   586.16   587.38   596.07
eigval :      600.48   614.63   615.15   625.41   640.80   652.64
eigval :      655.64   664.06   666.70   674.65   676.38   676.61
eigval :      685.09   687.02   696.77   707.94   712.37   718.12
eigval :      722.10   746.03   750.23   759.83   764.49   765.58
eigval :      773.70   773.89   813.53   817.62   844.55   850.03
eigval :      862.64   864.63   864.91   866.65   870.85   874.63
eigval :      878.21   880.29   883.56   884.07   891.08   893.24
eigval :      893.97   899.11   899.84   903.94   904.51   906.19
eigval :      907.39   909.85   912.53   919.16   920.08   921.45
eigval :      924.41   930.06   931.14   932.12   932.52   934.06
eigval :      934.47   944.98   965.88   968.01   990.44   993.67
eigval :     1030.02  1031.83  1061.43  1061.50  1080.44  1080.49
eigval :     1102.13  1104.91  1113.27  1117.66  1117.79  1125.41
eigval :     1128.58  1129.95  1132.42  1132.58  1134.72  1136.67
eigval :     1173.13  1173.16  1178.09  1178.12  1179.20  1179.87
eigval :     1181.17  1186.12  1191.39  1195.90  1196.01  1198.61
eigval :     1208.50  1209.48  1230.75  1253.87  1257.98  1259.56
eigval :     1262.01  1265.64  1277.32  1277.54  1278.63  1290.47
eigval :     1290.60  1296.97  1297.96  1306.00  1308.61  1315.57
eigval :     1316.86  1319.18  1319.31  1333.65  1360.68  1360.92
eigval :     1361.37  1364.49  1374.78  1374.93  1379.33  1405.19
eigval :     1406.58  1408.34  1412.92  1413.13  1420.62  1429.11
eigval :     1429.25  1458.07  1458.24  1471.10  1472.69  1480.46
eigval :     1483.64  1485.02  1486.34  1522.81  1525.33  1526.00
eigval :     1528.17  1533.66  1534.16  1553.01  1569.66  1573.38
eigval :     1578.89  1578.96  1586.49  1586.73  1595.53  1595.57
eigval :     1612.83  1612.94  3074.26  3074.27  3074.49  3074.66
eigval :     3074.74  3075.99  3078.22  3078.27  3078.44  3078.49
eigval :     3079.39  3079.68  3080.74  3081.84  3083.20  3085.10
eigval :     3085.28  3085.65  3089.35  3089.36  3090.26  3090.62
eigval :     3092.31  3092.42  3092.77  3094.87  3095.40  3098.33
eigval :     3100.02  3100.10  3100.55  3100.57  3101.06  3103.58

   temp. (K)  partition function   enthalpy   heat capacity  entropy
                                   cal/mol     cal/K/mol   cal/K/mol   J/K/mol
 298.15  VIB  0.474E+21            25626.803    163.250    161.322
         ROT  0.160E+09              888.752      2.981     40.517
         INT  0.756E+29            26515.555    166.231    201.839
         TR   0.185E+29             1481.254      4.968     45.560
         TOT                       27996.8094   171.1988   247.3996  1035.1198

       T/K    H(0)-H(T)+PV         H(T)/Eh          T*S/Eh         G(T)/Eh
   ------------------------------------------------------------------------
    298.15    0.446158E-01    0.732340E+00    0.117548E+00    0.614793E+00
   ------------------------------------------------------------------------

         :::::::::::::::::::::::::::::::::::::::::::::::::::::
         ::                  THERMODYNAMIC                  ::
         :::::::::::::::::::::::::::::::::::::::::::::::::::::
         :: total free energy        -139.821933942341 Eh   ::
         ::.................................................::
         :: total energy             -140.436726861549 Eh   ::
         :: zero point energy           0.687724684434 Eh   ::
         :: G(RRHO) w/o ZPVE           -0.072931765226 Eh   ::
         :: G(RRHO) contrib.            0.614792919208 Eh   ::
         :::::::::::::::::::::::::::::::::::::::::::::::::::::

           -------------------------------------------------
          | TOTAL ENERGY             -140.436726861549 Eh   |
          | TOTAL ENTHALPY           -139.704386421415 Eh   |
          | TOTAL FREE ENERGY        -139.821933942341 Eh   |
          | GRADIENT NORM               0.000054562834 Eh/α |
          | HOMO-LUMO GAP               0.836150058652 eV   |
           -------------------------------------------------

 * finished run on 2025/09/04 at 05:08:51.500
