   * xtb version 6.7.1 (edcfbbe) compiled by 'albert@albert-system' on 2024-07-22

   ID    Z sym.   atoms
    1    6 C      1-5, 7-12, 14-29, 31-37, 39-56
    2    7 N      6, 13, 30, 38
    3    1 H      57-90

          program call               : xtb data2507/toluene/BPBiPA/BPBiPA_toluene_S0_crest.xyz --gfn 2 --gbsa toluene --ohess vtight --parallel 40 --molden --ceasefiles --namespace data2507/toluene/BPBiPA/BPBiPA_toluene_S0_finalOpt
      * Solvation model:               GBSA
        Solvent                        toluene
        Solvent mass                       9.2140E+01 g/mol
          :  Hamiltonian                  GFN2-xTB          :
 * total energy  :  -140.5044450 Eh     change       -0.4393598E-08 Eh
 * total energy  :  -140.5045188 Eh     change       -0.7380325E-04 Eh
 * total energy  :  -140.5045964 Eh     change       -0.7764266E-04 Eh
 * total energy  :  -140.5046361 Eh     change       -0.3970086E-04 Eh
 * total energy  :  -140.5046888 Eh     change       -0.5267528E-04 Eh
 * total energy  :  -140.5047244 Eh     change       -0.3563711E-04 Eh
 * total energy  :  -140.5047423 Eh     change       -0.1781989E-04 Eh
 * total energy  :  -140.5047612 Eh     change       -0.1889590E-04 Eh
 * total energy  :  -140.5047790 Eh     change       -0.1785095E-04 Eh
 * total energy  :  -140.5047985 Eh     change       -0.1950439E-04 Eh
 * total energy  :  -140.5052116 Eh     change       -0.3280847E-06 Eh
 * total energy  :  -140.5052122 Eh     change       -0.5898535E-06 Eh
 * total energy  :  -140.5052118 Eh     change        0.4202312E-06 Eh
 * total energy  :  -140.5052124 Eh     change       -0.5815433E-06 Eh
 * total energy  :  -140.5052125 Eh     change       -0.1521085E-06 Eh
 * total energy  :  -140.5052130 Eh     change       -0.4367052E-06 Eh
 * total energy  :  -140.5052134 Eh     change       -0.4221464E-06 Eh
 * total energy  :  -140.5052136 Eh     change       -0.2401579E-06 Eh
 * total energy  :  -140.5052137 Eh     change       -0.7993523E-07 Eh
   *** GEOMETRY OPTIMIZATION CONVERGED AFTER 76 ITERATIONS ***

 final structure:
================
90
 xtb: 6.7.1 (edcfbbe)
C           -6.80653540650523       -4.49135155671737        1.32407305075963
C           -7.86897080683253       -3.85777250692166        1.94921199689585
C           -8.23386224857919       -2.57942043125796        1.57183790284127
C           -7.53100235550246       -1.91513091739492        0.56752210855227
C           -7.95027235142869       -0.57329409821040        0.18553941070926
N           -9.20178481008887       -0.19926176251260        0.14234827682646
C           -9.19566076342250        1.09673057396569       -0.29790684333070
C          -10.24847895692547        1.97877885773741       -0.51901000356654
C           -9.93799322556418        3.25086987433301       -0.95126911513744
C           -8.61626790613282        3.65360022166190       -1.15639511128202
C           -7.55634289175425        2.79423839798383       -0.94558033459482
C           -7.86188189394474        1.50857771744329       -0.52830253780630
N           -7.07967986368740        0.41960516997560       -0.21220095859679
C           -5.67339159076954        0.40500096680863       -0.17409910437993
C           -5.01106565493110        0.02917784201140        0.99029746958901
C           -3.63058373506417        0.02716759689815        1.02616201647789
C           -2.88963949719981        0.41247888367139       -0.08812679683913
C           -1.41079047132036        0.41441100427524       -0.04423531448692
C           -0.71568800363925        1.63181139699986       -0.02078764553981
C           -1.39290527655462        2.88024363294107       -0.00679690596141
C           -0.70766943268065        4.05603336596904       -0.00220003000025
C            0.70196190212910        4.05722926600339       -0.01546392760891
C            1.38920391987855        2.88262114070939       -0.00861416525038
C            0.71411818568509        1.63305791668257        0.00745865356770
C            1.41137331880919        0.41691179080241        0.03293058317656
C            2.89014123456822        0.41790060518472        0.07936813285785
C            3.63431787299546        0.03191819353958       -1.03250417109777
C            5.01471688946556        0.03676170444857       -0.99350525179530
C            5.67371250081633        0.41615793800942        0.17162262637388
N            7.07987914626698        0.43322232503786        0.21288874573262
C            7.95273930196622       -0.55920553957832       -0.18100223864902
C            7.53582888432918       -1.90237492510791       -0.56093159920937
C            8.24024539648012       -2.56759669228183       -1.56349962483714
C            7.87737366851403       -3.84721809164987       -1.93856755221670
C            6.81547403675333       -4.48108220582612       -1.31282484364107
C            6.12633431104971       -3.83436145773539       -0.29980955552373
C            6.48197133428342       -2.55285425560459        0.07846212823988
N            9.20363003943669       -0.18341040873027       -0.13572036588902
C            9.19470599984023        1.11342038328255        0.30209655269715
C           10.24580093895216        1.99733556366905        0.52394997109936
C            9.93259715939308        3.26981076096695        0.95309627149644
C            8.60986323852257        3.67111195208565        1.15444705876405
C            7.55160755541450        2.80988892472368        0.94286063653300
C            7.85984791545387        1.52385543040071        0.52872360878550
C            4.94005726333604        0.80093235118227        1.28869957846565
C            3.55884415408068        0.80387339990726        1.23743975297736
C            0.71590328073107       -0.80048722496503        0.01834673094183
C            1.39156426399460       -2.04883057673524        0.06510116207637
C            0.70708259629107       -3.22465471708314        0.03556099316135
C           -0.70027018897519       -3.22588216519327       -0.04481757587124
C           -1.38672630597418       -2.05123046944919       -0.07492125333785
C           -0.71314896195885       -0.80172824890721       -0.02917886425616
C           -3.56164934845562        0.79478498902723       -1.24546552988929
C           -4.94297910591844        0.78896513614911       -1.29358397824345
C           -6.47665216955464       -2.56540170879273       -0.07127223994942
C           -6.11898690147844       -3.84566718239064        0.30931444887816
H           -6.52065615703069       -5.48962226868213        1.62069995321400
H           -8.41494539280557       -4.36175887282691        2.73304872229278
H           -9.06178523475038       -2.07421594442937        2.04546250136332
H          -11.26718344014424        1.66756387229954       -0.34860106281280
H          -10.73323317290756        3.95941642525691       -1.13142720069254
H           -8.42024162622664        4.66371073879886       -1.48478538042846
H           -6.53532674551258        3.11236076525975       -1.09493412808313
H           -5.58262459805313       -0.26069687964335        1.85962190951013
H           -3.11764538641558       -0.26444485294927        1.93065349749406
H           -2.47275549649175        2.88056865149781        0.00274920940940
H           -1.23777589745477        4.99734376968376        0.00835670162735
H            1.23046029695132        4.99942304398563       -0.02792535247027
H            2.46905337219191        2.88476250869468       -0.01821742184474
H            3.12406462447343       -0.26239832307445       -1.93763443075786
H            5.58880014121628       -0.25368605196048       -1.86097194246400
H            9.06774674333686       -2.06219544206173       -2.03764904640877
H            8.42454958543463       -4.35200278953388       -2.72104607876581
H            6.53123765440187       -5.48036069474661       -1.60762850883083
H            5.31081296562331       -4.33277062558631        0.20336303775851
H            5.95390109286713       -2.06488754178528        0.88458085724665
H           11.26530701590941        1.68719337667385        0.35643060550745
H           10.72646430720985        3.97973695307649        1.13387700513510
H            8.41172167388566        4.68153927252692        1.48058392223961
H            6.52982750540593        3.12688034975839        1.08930734642665
H            5.45524282667435        1.08392879997183        2.19491116952141
H            2.98936703490957        1.09930583234600        2.10645900428783
H            2.46930822754481       -2.04776474803860        0.12397452989144
H            1.23629808977543       -4.16578206560852        0.07000385788560
H           -1.22782133717672       -4.16792321821780       -0.07973329657883
H           -2.46446742095882       -2.05195704506772       -0.13390640433705
H           -2.99475979223512        1.08963497650462       -2.11637332394778
H           -5.46075963130031        1.06914316523027       -2.19919285737771
H           -5.94980377548204       -2.07833390938068       -0.87873052873391
H           -5.30305901782856       -4.34392934593463       -0.19334866596708

          :  Hamiltonian                  GFN2-xTB          :
         :: gradient norm              0.000094112150 Eh/a0 ::
         :: HOMO-LUMO gap              2.133220285848 eV    ::
         :: SCC energy              -143.144922755207 Eh    ::
         :: -> dispersion             -0.131240747738 Eh    ::
         :: -> Gsolv                  -0.061481520555 Eh    ::
         :: repulsion energy           2.639709052858 Eh    ::

    * Orbital Energies and Occupations

         #    Occupation            Energy/Eh            Energy/eV
      -------------------------------------------------------------
         1        2.0000           -0.6900207             -18.7764
       ...           ...                  ...                  ...
       119        2.0000           -0.4127638             -11.2319
       120        2.0000           -0.4114612             -11.1964
       121        2.0000           -0.4109048             -11.1813
       122        2.0000           -0.4079995             -11.1022
       123        2.0000           -0.4071413             -11.0789
       124        2.0000           -0.4035284             -10.9806
       125        2.0000           -0.3852085             -10.4821
       126        2.0000           -0.3846457             -10.4667
       127        2.0000           -0.3836861             -10.4406
       128        2.0000           -0.3836359             -10.4393
       129        2.0000           -0.3816963             -10.3865
       130        2.0000           -0.3814898             -10.3809
       131        2.0000           -0.3635825              -9.8936 (HOMO)
       132                         -0.2851881              -7.7604 (LUMO)
       133                         -0.2635337              -7.1711
       134                         -0.2633043              -7.1649
       135                         -0.2402539              -6.5376
       136                         -0.2401219              -6.5340
       137                         -0.2400920              -6.5332
       138                         -0.2399142              -6.5284
       139                         -0.2351640              -6.3991
       140                         -0.2299379              -6.2569
       141                         -0.2298952              -6.2558
       142                         -0.2243835              -6.1058
       ...                                ...                  ...
       258                          0.7099930              19.3199
      -------------------------------------------------------------
                  HL-Gap            0.0783944 Eh            2.1332 eV

     #   Z          covCN         q      C6AA      α(0)
     1   6 C        2.920    -0.027    28.682     8.782
     2   6 C        2.918    -0.027    28.672     8.781
     3   6 C        2.926    -0.028    28.691     8.784
     4   6 C        2.975    -0.001    28.040     8.686
     5   6 C        3.180     0.144    24.483     8.078
     6   7 N        1.886    -0.320    29.158     8.005
     7   6 C        3.190     0.069    26.002     8.318
     8   6 C        2.910    -0.048    29.183     8.858
     9   6 C        2.922    -0.042    29.036     8.837
    10   6 C        2.926    -0.039    28.979     8.828
    11   6 C        2.908    -0.054    29.338     8.881
    12   6 C        3.087     0.036    27.098     8.533
    13   7 N        2.824    -0.059    22.383     7.027
    14   6 C        2.912     0.062    26.609     8.459
    15   6 C        2.920    -0.040    28.994     8.830
    16   6 C        2.924    -0.029    28.724     8.789
    17   6 C        2.976     0.018    27.603     8.618
    18   6 C        2.977    -0.005    28.151     8.703
    19   6 C        2.983     0.007    27.858     8.658
    20   6 C        2.917    -0.035    28.868     8.811
    21   6 C        2.914    -0.030    28.745     8.792
    22   6 C        2.914    -0.030    28.745     8.792
    23   6 C        2.917    -0.035    28.868     8.811
    24   6 C        2.983     0.007    27.858     8.658
    25   6 C        2.977    -0.005    28.151     8.703
    26   6 C        2.976     0.018    27.603     8.618
    27   6 C        2.924    -0.029    28.724     8.789
    28   6 C        2.920    -0.040    28.994     8.830
    29   6 C        2.912     0.062    26.609     8.459
    30   7 N        2.824    -0.059    22.383     7.027
    31   6 C        3.180     0.144    24.482     8.078
    32   6 C        2.975    -0.001    28.040     8.686
    33   6 C        2.926    -0.028    28.691     8.784
    34   6 C        2.918    -0.027    28.672     8.781
    35   6 C        2.920    -0.027    28.682     8.782
    36   6 C        2.919    -0.028    28.706     8.786
    37   6 C        2.923    -0.033    28.810     8.802
    38   7 N        1.886    -0.320    29.158     8.005
    39   6 C        3.190     0.069    26.002     8.318
    40   6 C        2.910    -0.048    29.183     8.858
    41   6 C        2.922    -0.042    29.036     8.837
    42   6 C        2.926    -0.039    28.979     8.828
    43   6 C        2.908    -0.054    29.338     8.881
    44   6 C        3.087     0.036    27.098     8.533
    45   6 C        2.920    -0.041    29.030     8.835
    46   6 C        2.924    -0.030    28.751     8.793
    47   6 C        2.983     0.007    27.855     8.657
    48   6 C        2.917    -0.035    28.869     8.811
    49   6 C        2.914    -0.029    28.737     8.790
    50   6 C        2.914    -0.029    28.737     8.790
    51   6 C        2.917    -0.035    28.869     8.811
    52   6 C        2.983     0.007    27.856     8.658
    53   6 C        2.924    -0.030    28.751     8.793
    54   6 C        2.920    -0.041    29.030     8.836
    55   6 C        2.922    -0.033    28.810     8.802
    56   6 C        2.919    -0.028    28.706     8.786
    57   1 H        0.926     0.043     2.414     2.430
    58   1 H        0.926     0.042     2.417     2.431
    59   1 H        0.926     0.045     2.385     2.415
    60   1 H        0.926     0.038     2.481     2.463
    61   1 H        0.926     0.034     2.534     2.489
    62   1 H        0.926     0.035     2.517     2.481
    63   1 H        0.926     0.031     2.567     2.506
    64   1 H        0.926     0.037     2.491     2.468
    65   1 H        0.926     0.045     2.383     2.414
    66   1 H        0.926     0.032     2.562     2.503
    67   1 H        0.926     0.032     2.558     2.501
    68   1 H        0.926     0.032     2.558     2.501
    69   1 H        0.926     0.032     2.562     2.503
    70   1 H        0.926     0.045     2.382     2.414
    71   1 H        0.926     0.037     2.491     2.468
    72   1 H        0.926     0.045     2.385     2.415
    73   1 H        0.926     0.042     2.417     2.431
    74   1 H        0.926     0.043     2.414     2.430
    75   1 H        0.926     0.041     2.440     2.443
    76   1 H        0.926     0.029     2.596     2.520
    77   1 H        0.926     0.038     2.481     2.463
    78   1 H        0.926     0.034     2.534     2.489
    79   1 H        0.926     0.035     2.517     2.481
    80   1 H        0.926     0.031     2.567     2.506
    81   1 H        0.926     0.043     2.406     2.426
    82   1 H        0.926     0.045     2.381     2.413
    83   1 H        0.926     0.033     2.545     2.495
    84   1 H        0.926     0.033     2.541     2.493
    85   1 H        0.926     0.033     2.541     2.493
    86   1 H        0.926     0.033     2.545     2.495
    87   1 H        0.926     0.045     2.381     2.413
    88   1 H        0.926     0.043     2.406     2.426
    89   1 H        0.926     0.029     2.596     2.520
    90   1 H        0.926     0.041     2.440     2.443

molecular dipole:
                 x           y           z       tot (Debye)
 q only:        0.000      -0.752      -0.002
   full:       -0.000      -0.304      -0.003       0.773

 projected vibrational frequencies (cm⁻¹)
eigval :       -0.00    -0.00     0.00     0.00     0.00     0.00
eigval :        9.03     9.64    11.24    13.83    20.01    32.30
eigval :       39.64    41.65    53.47    54.91    55.99    57.31
eigval :       63.60    64.30    71.40    80.54    83.32    84.48
eigval :       94.89   114.27   116.47   153.30   169.19   178.07
eigval :      183.96   185.00   193.02   202.77   213.43   226.03
eigval :      245.46   249.60   263.13   284.56   285.17   302.72
eigval :      324.12   337.69   342.00   350.69   373.70   373.87
eigval :      376.66   376.78   380.53   381.57   391.26   392.21
eigval :      407.33   410.43   418.90   424.09   445.07   447.38
eigval :      458.81   460.55   484.52   486.59   491.07   511.64
eigval :      539.97   541.65   546.75   547.15   571.08   577.76
eigval :      580.04   585.28   585.86   589.50   592.28   601.72
eigval :      602.58   616.44   621.37   640.70   645.45   654.13
eigval :      657.80   664.34   668.30   677.56   678.12   684.30
eigval :      692.30   692.58   704.86   709.89   710.66   726.13
eigval :      739.76   753.72   764.64   765.70   770.69   774.39
eigval :      774.84   776.15   812.32   816.88   864.53   864.63
eigval :      865.46   865.88   872.56   873.64   875.18   878.19
eigval :      879.25   879.88   884.25   884.89   895.67   898.11
eigval :      899.81   906.04   907.19   912.66   913.67   914.14
eigval :      914.90   917.76   919.34   920.29   921.64   926.66
eigval :      927.76   929.10   929.45   929.93   930.16   932.16
eigval :      935.15   935.43   967.44   969.90   993.07   997.71
eigval :     1033.88  1036.04  1060.78  1060.79  1080.58  1080.84
eigval :     1081.13  1081.68  1117.97  1118.05  1130.46  1130.58
eigval :     1132.89  1133.46  1134.02  1135.39  1135.81  1145.32
eigval :     1174.25  1174.72  1177.26  1177.29  1180.16  1183.62
eigval :     1187.22  1188.02  1196.75  1197.13  1202.42  1202.53
eigval :     1215.45  1222.11  1228.99  1257.03  1259.68  1261.06
eigval :     1261.59  1265.72  1267.56  1277.37  1277.42  1290.68
eigval :     1291.03  1305.17  1305.63  1315.65  1316.53  1319.25
eigval :     1319.37  1324.39  1348.12  1359.33  1361.23  1362.59
eigval :     1379.34  1383.31  1387.92  1400.93  1401.91  1413.70
eigval :     1414.31  1418.02  1427.43  1429.71  1429.88  1444.91
eigval :     1459.09  1459.32  1473.43  1482.96  1483.94  1495.88
eigval :     1498.83  1525.69  1529.09  1531.31  1531.41  1541.29
eigval :     1561.45  1561.77  1579.53  1579.56  1587.39  1587.41
eigval :     1593.84  1593.91  1596.80  1596.82  1607.34  1614.42
eigval :     1614.48  1621.71  3071.60  3073.35  3074.29  3074.45
eigval :     3075.24  3075.28  3077.78  3078.27  3078.32  3078.78
eigval :     3078.86  3080.63  3080.71  3081.12  3082.41  3082.58
eigval :     3085.06  3085.09  3087.05  3089.56  3089.80  3091.20
eigval :     3091.26  3092.24  3092.92  3092.97  3093.82  3094.14
eigval :     3094.16  3097.92  3100.20  3100.24  3100.99  3101.08

   temp. (K)  partition function   enthalpy   heat capacity  entropy
                                   cal/mol     cal/K/mol   cal/K/mol   J/K/mol
 298.15  VIB  0.805E+21            25668.423    161.898    162.006
         ROT  0.793E+08              888.752      2.981     39.126
         INT  0.638E+29            26557.176    164.879    201.132
         TR   0.185E+29             1481.254      4.968     45.560
         TOT                       28038.4297   169.8473   246.6922  1032.1602

       T/K    H(0)-H(T)+PV         H(T)/Eh          T*S/Eh         G(T)/Eh
   ------------------------------------------------------------------------
    298.15    0.446821E-01    0.734720E+00    0.117211E+00    0.617509E+00
   ------------------------------------------------------------------------

         :::::::::::::::::::::::::::::::::::::::::::::::::::::
         ::                  THERMODYNAMIC                  ::
         :::::::::::::::::::::::::::::::::::::::::::::::::::::
         :: total free energy        -139.887705060605 Eh   ::
         ::.................................................::
         :: total energy             -140.505213700368 Eh   ::
         :: zero point energy           0.690037987263 Eh   ::
         :: G(RRHO) w/o ZPVE           -0.072529347500 Eh   ::
         :: G(RRHO) contrib.            0.617508639763 Eh   ::
         :::::::::::::::::::::::::::::::::::::::::::::::::::::

           -------------------------------------------------
          | TOTAL ENERGY             -140.505213700368 Eh   |
          | TOTAL ENTHALPY           -139.770493631166 Eh   |
          | TOTAL FREE ENERGY        -139.887705060605 Eh   |
          | GRADIENT NORM               0.000094119938 Eh/α |
          | HOMO-LUMO GAP               2.133220277550 eV   |
           -------------------------------------------------

 * finished run on 2025/09/04 at 05:08:37.924
