   * xtb version 6.7.1 (edcfbbe) compiled by 'albert@albert-system' on 2024-07-22

   ID    Z sym.   atoms
    1    6 C      1-5, 7-12, 14-29, 31-37, 39-56
    2    7 N      6, 13, 30, 38
    3    1 H      57-90

          program call               : xtb data2507/toluene/BPBiPA/BPBiPA.xyz --gfn 2 --gbsa toluene --ohess vtight --parallel 40 --molden --ceasefiles --namespace data2507/toluene/BPBiPA/BPBiPA_toluene_S0_preOpt
      * Solvation model:               GBSA
        Solvent                        toluene
        Solvent mass                       9.2140E+01 g/mol
          :  Hamiltonian                  GFN2-xTB          :
 * total energy  :  -140.4785014 Eh     change       -0.6458720E-08 Eh
 * total energy  :  -140.4956778 Eh     change       -0.1717643E-01 Eh
 * total energy  :  -140.5004426 Eh     change       -0.4764748E-02 Eh
 * total energy  :  -140.5012466 Eh     change       -0.8040178E-03 Eh
 * total energy  :  -140.5017515 Eh     change       -0.5049139E-03 Eh
 * total energy  :  -140.5020957 Eh     change       -0.3441961E-03 Eh
 * total energy  :  -140.5024755 Eh     change       -0.3798404E-03 Eh
 * total energy  :  -140.5029577 Eh     change       -0.4821651E-03 Eh
 * total energy  :  -140.5034242 Eh     change       -0.4664874E-03 Eh
 * total energy  :  -140.5037901 Eh     change       -0.3659017E-03 Eh
 * total energy  :  -140.5044416 Eh     change       -0.8075461E-06 Eh
 * total energy  :  -140.5044425 Eh     change       -0.8874455E-06 Eh
 * total energy  :  -140.5044430 Eh     change       -0.5039154E-06 Eh
 * total energy  :  -140.5044435 Eh     change       -0.4458056E-06 Eh
 * total energy  :  -140.5044438 Eh     change       -0.3291233E-06 Eh
 * total energy  :  -140.5044441 Eh     change       -0.2419272E-06 Eh
 * total energy  :  -140.5044443 Eh     change       -0.2237043E-06 Eh
 * total energy  :  -140.5044445 Eh     change       -0.1736214E-06 Eh
 * total energy  :  -140.5044445 Eh     change       -0.2719668E-07 Eh
   *** GEOMETRY OPTIMIZATION CONVERGED AFTER 42 ITERATIONS ***

 final structure:
================
90
 xtb: 6.7.1 (edcfbbe)
C           -6.71018747599087       -4.62160714430459       -0.47861193107943
C           -6.03015503125528       -3.77988220048514        0.38659498492158
C           -6.41600294332639       -2.45903278357887        0.52125730427977
C           -7.48754571094299       -1.96394006552807       -0.21987105503783
C           -7.93172800299397       -0.58194603952313       -0.09946650289469
N           -9.18991968899743       -0.22935426378865       -0.12829004843171
C           -9.20910147538663        1.12587536840549        0.06137738611142
C          -10.27907766696709        2.01316315808354        0.11823211901843
C           -9.99376695080581        3.34873200292430        0.30888664597825
C           -8.68001724113447        3.80788748336986        0.43058702265545
C           -7.60335504488548        2.94497838798094        0.37967797917754
C           -7.88360711271892        1.59863437154891        0.20834367614699
N           -7.08078670383362        0.48453163835777        0.10258078005211
C           -5.67374941648423        0.48463820189807        0.08805121637680
C           -4.96949070413989        1.07261335390795        1.13316406574902
C           -3.58737874325996        1.07503391101498        1.11583354358011
C           -2.89070176353842        0.49379548550766        0.06121608268571
C           -1.40913668723114        0.49056557585398        0.05461103215258
C           -0.71344931753037        1.44984594384847       -0.69240238276992
C           -1.39062490347874        2.44203702531747       -1.44999822938590
C           -0.70327317356329        3.37540235761994       -2.16301400004369
C            0.70689216658500        3.37804168175128       -2.15895479380376
C            1.39387155686908        2.44651462797936       -1.44311242799759
C            0.71645389952339        1.45113750555806       -0.68991650212250
C            1.41134900046170        0.49227665947035        0.05870699100406
C            2.89261107458621        0.49600499640315        0.06820279926420
C            3.60777662102818       -0.05377035018414       -0.99181853238426
C            4.98892831345182       -0.05872802009226       -0.98201555603150
C            5.67580323910042        0.48329378742802        0.09977436158734
N            7.08281871173019        0.47925289813157        0.11568800822173
C            7.92972992027910       -0.58314355596918       -0.12233055483708
C            7.48128043445845       -1.96040370572911       -0.27655221129772
C            8.17375947923112       -2.80048872850736       -1.14771973951856
C            7.77842541286065       -4.11466202030936       -1.31012000106863
C            6.69340676840091       -4.60780128368041       -0.60253571938471
C            6.01660730120255       -3.78546552577813        0.28358870410874
C            6.40773505051293       -2.47006518827476        0.45181359406491
N            9.18865638489433       -0.23297010885747       -0.14908649306992
C            9.21256529447111        1.11615016446243        0.07938839356555
C           10.28535919005442        1.99872861134932        0.15376828071597
C           10.00523848244318        3.32872021628616        0.38647061852938
C            8.69386233266967        3.78698587920489        0.53384324068354
C            7.61439665056817        2.92877100994736        0.46495842043212
C            7.88939930865753        1.58764869011646        0.24973180034102
C            4.97029757135243        1.04190947523366        1.15992776837831
C            3.58813435789029        1.04589094087887        1.14029559706641
C            0.71539110038155       -0.47093720717890        0.80104852686867
C            1.39148265103647       -1.46851265510220        1.55245902633791
C            0.70392269624798       -2.40413703886045        2.26221016567030
C           -0.70617745604971       -2.40380663764541        2.26133293904967
C           -1.39211263989839       -1.46788746708438        1.55042025272145
C           -0.71425645783264       -0.47125236021538        0.79935614770214
C           -3.60440551280332       -0.08623724707500       -0.98343238810432
C           -4.98571016853153       -0.08926669706160       -0.97630808075045
C           -8.18268749878829       -2.82250828215911       -1.07055254601099
C           -7.79266525241519       -4.14203987912056       -1.19929190653213
H           -6.40274684395688       -5.65150616399280       -0.58385082914158
H           -5.19726635949727       -4.15440470516487        0.96340876769976
H           -5.89786693030792       -1.81649138678700        1.21762557077997
H          -11.29140899740021        1.65603575199792        0.01197827928551
H          -10.80263824437597        4.06300425581344        0.35868373631469
H           -8.50383818516298        4.86466903438650        0.56757314491716
H           -6.58879785259086        3.30482637939020        0.46519436762316
H           -5.50828542181095        1.51132332510199        1.96018439691775
H           -3.03991588357690        1.52812291220502        1.92926837527456
H           -2.47077939694394        2.44258186568380       -1.44753986383934
H           -1.23167997611250        4.12433670093833       -2.73490178113591
H            1.23571131743741        4.12930320219282       -2.72739478691449
H            2.47396003257184        2.45123587959631       -1.43511736584453
H            3.07446304089781       -0.47911782344897       -1.82895504150257
H            5.54218992837490       -0.48498477524319       -1.80580584512759
H            9.01825939622908       -2.40190281325981       -1.68897733476861
H            8.31759548900339       -4.75653236139950       -1.99120198655941
H            6.38181609096685       -5.63345490639240       -0.73376231416055
H            5.18197209444800       -4.17098973234133        0.85054534106318
H            5.89169689600240       -1.84342213169216        1.16405469643721
H           11.29579011772655        1.64235449805194        0.02862065296264
H           10.81639696704358        4.03921560535129        0.45093236551380
H            8.52166657226179        4.83941451088535        0.70511492709681
H            6.60167719954888        3.28862681468201        0.56981253198878
H            5.50777720235422        1.45613797283830        2.00032218502849
H            3.03967721906991        1.47608014358568        1.96540061474531
H            2.47116818758932       -1.47233791876845        1.54561512020119
H            1.23194302841760       -3.15728846643664        2.82885363491193
H           -1.23524296651556       -3.15653455715401        2.82753712003747
H           -2.47182032470790       -1.47078328587384        1.54172856171230
H           -3.06997442194258       -0.53601565924893       -1.80698892247610
H           -5.53777195571905       -0.53799582786456       -1.78892099884267
H           -9.02491966798420       -2.43403005518306       -1.62259134772173
H           -8.33389557750634       -4.79869023619703       -1.86444084512003

          :  Hamiltonian                  GFN2-xTB          :
         :: gradient norm              0.000118272580 Eh/a0 ::
         :: HOMO-LUMO gap              2.178998893298 eV    ::
         :: SCC energy              -143.144684631647 Eh    ::
         :: -> dispersion             -0.130767617452 Eh    ::
         :: -> Gsolv                  -0.061449591979 Eh    ::
         :: repulsion energy           2.640240153060 Eh    ::

    * Orbital Energies and Occupations

         #    Occupation            Energy/Eh            Energy/eV
      -------------------------------------------------------------
         1        2.0000           -0.6899644             -18.7749
       ...           ...                  ...                  ...
       119        2.0000           -0.4125744             -11.2267
       120        2.0000           -0.4108416             -11.1796
       121        2.0000           -0.4103550             -11.1663
       122        2.0000           -0.4102088             -11.1623
       123        2.0000           -0.4071244             -11.0784
       124        2.0000           -0.4037511             -10.9866
       125        2.0000           -0.3848658             -10.4727
       126        2.0000           -0.3846016             -10.4655
       127        2.0000           -0.3835228             -10.4362
       128        2.0000           -0.3834959             -10.4355
       129        2.0000           -0.3814616             -10.3801
       130        2.0000           -0.3813777             -10.3778
       131        2.0000           -0.3644520              -9.9172 (HOMO)
       132                         -0.2843753              -7.7382 (LUMO)
       133                         -0.2637211              -7.1762
       134                         -0.2635846              -7.1725
       135                         -0.2404052              -6.5418
       136                         -0.2403414              -6.5400
       137                         -0.2403026              -6.5390
       138                         -0.2401053              -6.5336
       139                         -0.2353455              -6.4041
       140                         -0.2296974              -6.2504
       141                         -0.2296343              -6.2487
       142                         -0.2247214              -6.1150
       ...                                ...                  ...
       258                          0.7096749              19.3112
      -------------------------------------------------------------
                  HL-Gap            0.0800767 Eh            2.1790 eV

     #   Z          covCN         q      C6AA      α(0)
     1   6 C        2.920    -0.027    28.682     8.782
     2   6 C        2.919    -0.028    28.707     8.786
     3   6 C        2.923    -0.033    28.810     8.802
     4   6 C        2.975    -0.001    28.043     8.686
     5   6 C        3.180     0.144    24.487     8.078
     6   7 N        1.886    -0.320    29.156     8.005
     7   6 C        3.189     0.069    26.004     8.318
     8   6 C        2.910    -0.048    29.184     8.858
     9   6 C        2.922    -0.042    29.036     8.837
    10   6 C        2.926    -0.039    28.979     8.828
    11   6 C        2.907    -0.054    29.339     8.882
    12   6 C        3.087     0.036    27.099     8.533
    13   7 N        2.825    -0.059    22.384     7.027
    14   6 C        2.912     0.062    26.610     8.459
    15   6 C        2.920    -0.041    29.024     8.835
    16   6 C        2.924    -0.030    28.752     8.793
    17   6 C        2.976     0.018    27.593     8.616
    18   6 C        2.977    -0.005    28.147     8.703
    19   6 C        2.984     0.007    27.856     8.658
    20   6 C        2.917    -0.034    28.857     8.809
    21   6 C        2.914    -0.030    28.737     8.791
    22   6 C        2.914    -0.030    28.737     8.791
    23   6 C        2.917    -0.034    28.858     8.809
    24   6 C        2.984     0.007    27.856     8.658
    25   6 C        2.977    -0.005    28.148     8.703
    26   6 C        2.976     0.018    27.594     8.617
    27   6 C        2.924    -0.029    28.723     8.789
    28   6 C        2.920    -0.040    28.986     8.829
    29   6 C        2.912     0.062    26.609     8.459
    30   7 N        2.825    -0.059    22.385     7.027
    31   6 C        3.180     0.144    24.487     8.079
    32   6 C        2.975    -0.001    28.044     8.687
    33   6 C        2.926    -0.028    28.694     8.785
    34   6 C        2.918    -0.027    28.673     8.781
    35   6 C        2.920    -0.027    28.682     8.782
    36   6 C        2.919    -0.028    28.707     8.786
    37   6 C        2.923    -0.033    28.811     8.802
    38   7 N        1.886    -0.320    29.154     8.004
    39   6 C        3.190     0.069    26.003     8.318
    40   6 C        2.910    -0.048    29.184     8.858
    41   6 C        2.922    -0.042    29.036     8.837
    42   6 C        2.926    -0.039    28.979     8.828
    43   6 C        2.907    -0.054    29.339     8.882
    44   6 C        3.087     0.036    27.098     8.533
    45   6 C        2.920    -0.041    29.026     8.835
    46   6 C        2.924    -0.030    28.753     8.793
    47   6 C        2.984     0.007    27.856     8.658
    48   6 C        2.917    -0.034    28.851     8.808
    49   6 C        2.914    -0.029    28.735     8.790
    50   6 C        2.914    -0.029    28.735     8.790
    51   6 C        2.917    -0.034    28.850     8.808
    52   6 C        2.984     0.007    27.856     8.658
    53   6 C        2.924    -0.029    28.724     8.789
    54   6 C        2.920    -0.040    28.985     8.829
    55   6 C        2.926    -0.028    28.693     8.784
    56   6 C        2.918    -0.027    28.673     8.781
    57   1 H        0.926     0.043     2.415     2.430
    58   1 H        0.926     0.041     2.439     2.442
    59   1 H        0.926     0.029     2.600     2.522
    60   1 H        0.926     0.038     2.481     2.463
    61   1 H        0.926     0.034     2.534     2.489
    62   1 H        0.926     0.035     2.518     2.481
    63   1 H        0.926     0.031     2.567     2.505
    64   1 H        0.926     0.043     2.406     2.426
    65   1 H        0.926     0.045     2.388     2.417
    66   1 H        0.926     0.031     2.569     2.506
    67   1 H        0.926     0.032     2.554     2.499
    68   1 H        0.926     0.032     2.554     2.499
    69   1 H        0.926     0.031     2.567     2.505
    70   1 H        0.926     0.045     2.388     2.417
    71   1 H        0.926     0.037     2.487     2.466
    72   1 H        0.926     0.045     2.379     2.412
    73   1 H        0.926     0.042     2.417     2.431
    74   1 H        0.926     0.043     2.416     2.430
    75   1 H        0.926     0.041     2.439     2.442
    76   1 H        0.926     0.029     2.600     2.521
    77   1 H        0.926     0.038     2.481     2.463
    78   1 H        0.926     0.034     2.534     2.489
    79   1 H        0.926     0.035     2.518     2.481
    80   1 H        0.926     0.031     2.566     2.505
    81   1 H        0.926     0.043     2.405     2.425
    82   1 H        0.926     0.045     2.387     2.416
    83   1 H        0.926     0.032     2.564     2.504
    84   1 H        0.926     0.033     2.543     2.494
    85   1 H        0.926     0.033     2.543     2.494
    86   1 H        0.926     0.031     2.565     2.505
    87   1 H        0.926     0.045     2.389     2.417
    88   1 H        0.926     0.037     2.486     2.466
    89   1 H        0.926     0.045     2.381     2.413
    90   1 H        0.926     0.042     2.417     2.431

molecular dipole:
                 x           y           z       tot (Debye)
 q only:        0.001      -0.712      -0.048
   full:        0.002      -0.234       0.048       0.606

 projected vibrational frequencies (cm⁻¹)
eigval :       -0.00    -0.00     0.00     0.00     0.00     0.00
eigval :      -16.82    -1.69     5.82     6.57    15.78    24.53
eigval :       25.85    41.24    44.32    48.29    49.12    59.58
eigval :       60.27    60.83    69.40    77.14    78.88    82.32
eigval :       92.11    99.84   115.18   150.35   165.16   179.09
eigval :      179.30   182.54   186.02   197.80   204.35   224.36
eigval :      244.37   247.21   262.89   283.90   285.39   300.75
eigval :      324.50   332.02   340.83   345.95   369.89   370.10
eigval :      375.51   376.45   380.57   380.93   384.28   401.90
eigval :      405.24   410.97   418.21   423.58   440.60   441.12
eigval :      454.53   459.41   483.69   485.30   491.74   510.23
eigval :      539.37   541.06   545.15   547.07   569.92   577.97
eigval :      578.08   585.34   586.79   586.98   592.14   602.60
eigval :      604.36   613.52   623.80   638.13   645.87   652.50
eigval :      656.89   664.24   667.85   674.69   675.78   683.62
eigval :      689.86   692.87   705.41   706.40   708.67   726.00
eigval :      738.31   752.90   761.21   762.47   770.46   771.95
eigval :      772.41   773.43   814.82   820.54   864.39   864.44
eigval :      865.41   867.20   870.24   872.38   872.89   873.63
eigval :      875.51   879.13   884.15   884.74   896.94   897.86
eigval :      898.83   902.19   902.51   912.43   914.06   914.49
eigval :      915.48   916.58   918.91   919.23   921.45   923.10
eigval :      923.77   924.64   926.26   929.23   930.32   932.01
eigval :      932.28   932.90   967.32   969.80   992.91   997.71
eigval :     1033.19  1035.36  1059.29  1059.45  1077.69  1078.64
eigval :     1081.06  1081.20  1118.45  1118.63  1128.43  1129.82
eigval :     1132.03  1132.75  1133.78  1134.90  1135.67  1144.98
eigval :     1174.76  1175.15  1178.06  1180.13  1180.37  1181.77
eigval :     1184.93  1186.77  1196.13  1196.79  1201.75  1201.98
eigval :     1213.99  1221.15  1226.20  1255.08  1259.56  1260.37
eigval :     1262.51  1264.56  1265.97  1278.24  1278.27  1291.94
eigval :     1292.01  1303.61  1304.12  1315.76  1316.48  1319.42
eigval :     1319.57  1325.36  1347.82  1359.18  1361.05  1362.57
eigval :     1379.21  1383.77  1387.65  1400.28  1400.90  1413.45
eigval :     1414.00  1418.62  1427.85  1430.01  1430.19  1446.42
eigval :     1459.12  1459.40  1473.39  1483.65  1484.63  1496.75
eigval :     1499.94  1525.22  1530.68  1530.96  1531.91  1542.41
eigval :     1561.73  1562.34  1579.29  1579.38  1587.07  1587.17
eigval :     1594.75  1595.02  1596.60  1596.65  1607.00  1614.34
eigval :     1614.40  1621.71  3070.55  3071.27  3073.23  3073.32
eigval :     3074.58  3074.84  3076.04  3077.09  3077.24  3078.25
eigval :     3078.57  3078.60  3080.31  3080.57  3082.10  3082.47
eigval :     3084.77  3085.99  3086.27  3088.21  3088.53  3089.19
eigval :     3090.60  3090.89  3091.11  3092.54  3092.63  3093.37
eigval :     3093.82  3094.81  3099.15  3099.17  3099.70  3099.73

   temp. (K)  partition function   enthalpy   heat capacity  entropy
                                   cal/mol     cal/K/mol   cal/K/mol   J/K/mol
 298.15  VIB  0.574E+23            25876.699    161.292    166.298
         ROT  0.158E+09              888.752      2.981     40.496
         INT  0.906E+31            26765.452    164.273    206.793
         TR   0.185E+29             1481.254      4.968     45.560
         TOT                       28246.7058   169.2409   252.3538  1055.8481

       T/K    H(0)-H(T)+PV         H(T)/Eh          T*S/Eh         G(T)/Eh
   ------------------------------------------------------------------------
    298.15    0.450140E-01    0.734345E+00    0.119901E+00    0.614444E+00
   ------------------------------------------------------------------------

         :::::::::::::::::::::::::::::::::::::::::::::::::::::
         ::                  THERMODYNAMIC                  ::
         :::::::::::::::::::::::::::::::::::::::::::::::::::::
         :: total free energy        -139.890000720557 Eh   ::
         ::.................................................::
         :: total energy             -140.504444482064 Eh   ::
         :: zero point energy           0.689331182193 Eh   ::
         :: G(RRHO) w/o ZPVE           -0.074887420686 Eh   ::
         :: G(RRHO) contrib.            0.614443761508 Eh   ::
         :::::::::::::::::::::::::::::::::::::::::::::::::::::

           -------------------------------------------------
          | TOTAL ENERGY             -140.504444482064 Eh   |
          | TOTAL ENTHALPY           -139.770099308961 Eh   |
          | TOTAL FREE ENERGY        -139.890000720557 Eh   |
          | GRADIENT NORM               0.000118238408 Eh/α |
          | HOMO-LUMO GAP               2.178998906030 eV   |
           -------------------------------------------------

 * finished run on 2025/09/04 at 05:03:21.919
