   * xtb version 6.7.1 (edcfbbe) compiled by 'albert@albert-system' on 2024-07-22

   ID    Z sym.   atoms
    1    6 C      1-4, 6-14, 16-19, 21, 22, 24, 25, 27-31, 33-42, 44, 46
    2    7 N      5, 15, 20, 23, 26, 32
    3    8 O      43, 45
    4    1 H      47-94

          program call               : xtb data2507/gas/Pd-1/Pd-1_gas_S0_crest.xyz --gfn 2 --ohess vtight --parallel 40 --molden --ceasefiles --namespace data2507/gas/Pd-1/Pd-1_gas_S0_finalOpt
          :  Hamiltonian                  GFN2-xTB          :
 * total energy  :  -131.5129647 Eh     change       -0.5391712E-08 Eh
 * total energy  :  -131.5129331 Eh     change        0.3162934E-04 Eh
 * total energy  :  -131.5129634 Eh     change       -0.3036667E-04 Eh
 * total energy  :  -131.5129609 Eh     change        0.2581082E-05 Eh
 * total energy  :  -131.5129541 Eh     change        0.6810484E-05 Eh
 * total energy  :  -131.5129684 Eh     change       -0.1439132E-04 Eh
 * total energy  :  -131.5129708 Eh     change       -0.2355104E-05 Eh
 * total energy  :  -131.5129721 Eh     change       -0.1296768E-05 Eh
 * total energy  :  -131.5129758 Eh     change       -0.3706221E-05 Eh
 * total energy  :  -131.5129808 Eh     change       -0.5015236E-05 Eh
 * total energy  :  -131.5130075 Eh     change       -0.5942086E-06 Eh
 * total energy  :  -131.5130080 Eh     change       -0.4515796E-06 Eh
 * total energy  :  -131.5130082 Eh     change       -0.2057357E-06 Eh
 * total energy  :  -131.5130084 Eh     change       -0.1704183E-06 Eh
 * total energy  :  -131.5130086 Eh     change       -0.2490089E-06 Eh
 * total energy  :  -131.5130088 Eh     change       -0.2000341E-06 Eh
 * total energy  :  -131.5130089 Eh     change       -0.1438534E-06 Eh
 * total energy  :  -131.5130091 Eh     change       -0.1072377E-06 Eh
 * total energy  :  -131.5130091 Eh     change       -0.9308053E-07 Eh
   *** GEOMETRY OPTIMIZATION CONVERGED AFTER 38 ITERATIONS ***

 final structure:
================
94
 xtb: 6.7.1 (edcfbbe)
C           -4.34848455139709        3.29815365696487        3.76032638454326
C           -4.16351161199398        3.72921960022573        2.31051644603036
C           -3.71240493159092        2.56741542900255        1.42977069360271
C           -3.56963750625013        2.98640470141802       -0.03878907916634
N           -3.06814084191719        1.91456239763755       -0.87114121431991
C           -4.05443683019113        1.08039292734716       -1.52324012709076
C           -4.22408249051310        1.39437291715435       -3.01779849326613
C           -4.78774584530929        2.78606356371793       -3.30631568208739
C           -6.25527178246995        2.93620171358202       -2.92109679878076
C           -1.73415931717228        1.64319230263203       -0.95488170246550
C           -1.24850689313703        0.57915077685575       -1.74832253747009
C            0.09063301664462        0.31917608785713       -1.83719697796250
C            1.04492834051442        1.08763062744576       -1.15679417674786
C            2.41527597620281        0.69913426856333       -1.16500323316361
N            3.33543980847912        1.33008282953276       -0.52432851766308
C            4.56430082586730        0.77464700567432       -0.25974062750973
C            5.73244222728129        1.46891412170745       -0.53654146568462
C            6.97485385297204        0.92924200949615       -0.21767434765335
C            8.14989447552787        1.65204896230609       -0.51538528416190
N            9.09208250553277        2.25577811789354       -0.76612803593730
C            7.05152770619553       -0.33616793910709        0.39190400522440
C            8.30482563426382       -0.90339727131666        0.70715328320850
N            9.31268891294080       -1.38202604247472        0.97207659372638
C            5.88370557759328       -1.03002021456075        0.69364178912892
C            4.64088636779159       -0.48963072399098        0.39957134775681
N            3.48669965266573       -1.19362607544965        0.64250675367948
C            2.48567150737181       -0.67825448516368        1.26555095386169
C            1.16499841618837       -1.20632967863419        1.20273033956541
C            0.11484832393754       -0.55170494239604        1.86108440807692
C           -1.19002735879166       -0.91860469256709        1.68663816334031
C           -1.53751371777342       -1.97776423383318        0.81802394546427
N           -2.83863414859166       -2.32302528408274        0.60923896931810
C           -3.20450421191498       -3.49309303207859       -0.15777170209004
C           -3.30940327855989       -3.19138246199138       -1.65843395630519
C           -3.66674395003973       -4.42396330394653       -2.48856607603456
C           -2.53923101300685       -5.44775488220740       -2.55537654968427
C           -3.93004720600648       -1.54786566743493        1.15347629640634
C           -4.29894850837227       -1.97636033865920        2.58169874696790
C           -5.19576146554259       -0.96225135259243        3.28994615448551
C           -6.54537910737395       -0.77346449738853        2.60664664381531
C           -0.49078356353307       -2.65046839077597        0.17522363221483
C            0.83222052492747       -2.28986892842460        0.35746884602043
O            1.77560110188756       -2.96989016993355       -0.31126213194174
C            0.57251415404808        2.15478556561777       -0.35934447246371
O            1.41423648557332        2.93105443083594        0.33942012381441
C           -0.78461728529502        2.40664242908113       -0.26338929104658
H           -3.41918254720533        2.89940645232678        4.16125147761065
H           -5.11467115902249        2.52922410846584        3.83701203551609
H           -4.65083046557078        4.14301584949769        4.37379965502398
H           -5.10536016197760        4.12966953814423        1.92788848246610
H           -3.42050511476733        4.52791233171338        2.26186432726993
H           -4.44416168150355        1.75820186232636        1.49874317613223
H           -2.75399039930026        2.18570842804048        1.78747347625756
H           -2.91068452414757        3.85404905706585       -0.11666930426470
H           -4.54667728645880        3.29106731517382       -0.41866285837745
H           -5.00807648919084        1.22048760430331       -1.01130839842518
H           -3.77826910571322        0.02797540547348       -1.40829825931717
H           -4.88525213190145        0.64134326037408       -3.45281735415536
H           -3.25130557011524        1.31006819306441       -3.50384856723910
H           -4.69122076354807        2.97649263712442       -4.37731500130635
H           -4.18529798252864        3.53439636429003       -2.78872408676016
H           -6.40688805301799        2.80827529718309       -1.85169896936083
H           -6.61587717778261        3.92494803982786       -3.19413815193676
H           -6.86111607496906        2.19681570667607       -3.44063496202175
H           -1.92558207088356       -0.05324621391139       -2.29552151426896
H            0.43207381127408       -0.50970033920090       -2.44047840346608
H            2.64674958393250       -0.21051123441283       -1.73015864899066
H            5.67131274941363        2.43239693532988       -1.02025639322355
H            5.93874387166007       -1.99401664675602        1.17703461215212
H            2.60086733589117        0.24325269639843        1.84700604446724
H            0.35285401120854        0.27442307680705        2.51571004846710
H           -1.94801071191323       -0.38311077522547        2.23142885515901
H           -2.47546300978233       -4.28417743652420        0.02136351496595
H           -4.17114765216550       -3.85135063845037        0.20663993532154
H           -2.36129431777645       -2.77793134131820       -2.00676836651579
H           -4.07837158280080       -2.42806323038173       -1.80652300553835
H           -4.56200823389064       -4.89296739418880       -2.07353227864484
H           -3.90567660724543       -4.09911846596745       -3.50367089111237
H           -1.62652912636228       -4.98561263442103       -2.92485668465045
H           -2.80805009833086       -6.25739803877550       -3.22944301884412
H           -2.33711124616069       -5.87911459921519       -1.57842829091175
H           -4.79251335997052       -1.67763713065870        0.49560320459461
H           -3.66296689619633       -0.48883529738031        1.14171342578834
H           -3.37817776262079       -2.09785879494955        3.15541856772508
H           -4.79739017810378       -2.94744846987626        2.55182705273340
H           -4.67769111000503       -0.00191354892376        3.34527630630224
H           -5.36221368371213       -1.30326379391292        4.31381015696651
H           -7.05649350203858       -1.72789491114479        2.50261875060670
H           -6.42850994795586       -0.33612257513549        1.61790797929724
H           -7.17666434033870       -0.11250060914776        3.19602013785540
H           -0.66953240381532       -3.46343892942399       -0.50685453702355
H            2.64605061391892       -2.55554139364871       -0.10367707162601
H            2.32893036131165        2.59938012468125        0.17911768416882
H           -1.06481988219530        3.22105125632717        0.38181351208106

          :  Hamiltonian                  GFN2-xTB          :
         :: gradient norm              0.000040530547 Eh/a0 ::
         :: HOMO-LUMO gap              1.937476257911 eV    ::
         :: SCC energy              -133.609388294261 Eh    ::
         :: -> dispersion             -0.117431158185 Eh    ::
         :: repulsion energy           2.096379148584 Eh    ::

    * Orbital Energies and Occupations

         #    Occupation            Energy/Eh            Energy/eV
      -------------------------------------------------------------
         1        2.0000           -0.7079098             -19.2632
       ...           ...                  ...                  ...
       109        2.0000           -0.4338226             -11.8049
       110        2.0000           -0.4301487             -11.7049
       111        2.0000           -0.4263224             -11.6008
       112        2.0000           -0.4196238             -11.4185
       113        2.0000           -0.4193896             -11.4122
       114        2.0000           -0.4127925             -11.2327
       115        2.0000           -0.4099812             -11.1562
       116        2.0000           -0.3914202             -10.6511
       117        2.0000           -0.3912240             -10.6457
       118        2.0000           -0.3872417             -10.5374
       119        2.0000           -0.3742471             -10.1838
       120        2.0000           -0.3660483              -9.9607
       121        2.0000           -0.3578576              -9.7378 (HOMO)
       122                         -0.2866566              -7.8003 (LUMO)
       123                         -0.2768069              -7.5323
       124                         -0.2642860              -7.1916
       125                         -0.2419513              -6.5838
       126                         -0.2207431              -6.0067
       127                         -0.2178869              -5.9290
       128                         -0.1992736              -5.4225
       129                         -0.1944769              -5.2920
       130                         -0.1904051              -5.1812
       131                         -0.1831217              -4.9830
       132                         -0.1568429              -4.2679
       ...                                ...                  ...
       232                          1.1989111              32.6240
      -------------------------------------------------------------
                  HL-Gap            0.0712010 Eh            1.9375 eV

     #   Z          covCN         q      C6AA      α(0)
     1   6 C        3.752    -0.103    22.536     6.770
     2   6 C        3.801    -0.054    21.545     6.609
     3   6 C        3.802    -0.064    21.732     6.637
     4   6 C        3.748    -0.008    20.793     6.504
     5   7 N        2.737    -0.078    22.762     7.086
     6   6 C        3.746    -0.005    20.733     6.495
     7   6 C        3.800    -0.067    21.786     6.646
     8   6 C        3.800    -0.056    21.575     6.613
     9   6 C        3.751    -0.103    22.522     6.768
    10   6 C        2.908     0.071    26.405     8.426
    11   6 C        2.920    -0.073    29.818     8.955
    12   6 C        2.923    -0.031    28.785     8.798
    13   6 C        2.972    -0.055    29.357     8.888
    14   6 C        2.865     0.085    26.104     8.375
    15   7 N        1.839    -0.260    27.603     7.786
    16   6 C        2.937     0.073    26.365     8.421
    17   6 C        2.928    -0.042    29.044     8.838
    18   6 C        2.976     0.014    27.699     8.633
    19   6 C        1.911     0.113    28.319     8.594
    20   7 N        0.911    -0.233    26.104     7.389
    21   6 C        2.976     0.014    27.695     8.632
    22   6 C        1.911     0.113    28.318     8.594
    23   7 N        0.911    -0.233    26.102     7.389
    24   6 C        2.928    -0.042    29.049     8.839
    25   6 C        2.938     0.074    26.357     8.420
    26   7 N        1.839    -0.260    27.617     7.788
    27   6 C        2.867     0.085    26.103     8.375
    28   6 C        2.972    -0.055    29.359     8.888
    29   6 C        2.923    -0.031    28.784     8.798
    30   6 C        2.920    -0.073    29.825     8.956
    31   6 C        2.909     0.071    26.408     8.426
    32   7 N        2.739    -0.082    22.840     7.098
    33   6 C        3.748    -0.008    20.782     6.502
    34   6 C        3.801    -0.063    21.715     6.635
    35   6 C        3.800    -0.055    21.560     6.611
    36   6 C        3.751    -0.105    22.573     6.775
    37   6 C        3.747    -0.006    20.752     6.498
    38   6 C        3.801    -0.066    21.766     6.642
    39   6 C        3.800    -0.055    21.558     6.611
    40   6 C        3.751    -0.104    22.540     6.771
    41   6 C        2.921    -0.096    30.402     9.042
    42   6 C        2.845     0.157    24.605     8.130
    43   8 O        1.658    -0.390    20.652     6.135
    44   6 C        2.845     0.157    24.607     8.130
    45   8 O        1.658    -0.390    20.646     6.134
    46   6 C        2.922    -0.095    30.389     9.040
    47   1 H        0.925     0.037     2.486     2.466
    48   1 H        0.925     0.035     2.521     2.483
    49   1 H        0.925     0.039     2.468     2.457
    50   1 H        0.924     0.031     2.579     2.511
    51   1 H        0.924     0.034     2.527     2.486
    52   1 H        0.924     0.031     2.569     2.507
    53   1 H        0.924     0.041     2.431     2.438
    54   1 H        0.924     0.050     2.320     2.382
    55   1 H        0.924     0.049     2.333     2.389
    56   1 H        0.924     0.047     2.360     2.403
    57   1 H        0.924     0.043     2.416     2.431
    58   1 H        0.924     0.038     2.475     2.460
    59   1 H        0.924     0.043     2.403     2.424
    60   1 H        0.924     0.035     2.511     2.478
    61   1 H        0.924     0.037     2.489     2.467
    62   1 H        0.925     0.029     2.598     2.521
    63   1 H        0.925     0.037     2.492     2.469
    64   1 H        0.925     0.036     2.505     2.475
    65   1 H        0.926     0.034     2.528     2.486
    66   1 H        0.926     0.036     2.498     2.471
    67   1 H        0.924     0.010     2.889     2.658
    68   1 H        0.926     0.047     2.357     2.401
    69   1 H        0.926     0.047     2.358     2.401
    70   1 H        0.924     0.010     2.893     2.660
    71   1 H        0.926     0.036     2.496     2.471
    72   1 H        0.926     0.036     2.507     2.476
    73   1 H        0.924     0.056     2.252     2.347
    74   1 H        0.924     0.044     2.395     2.420
    75   1 H        0.924     0.045     2.389     2.417
    76   1 H        0.924     0.026     2.641     2.541
    77   1 H        0.924     0.031     2.566     2.505
    78   1 H        0.924     0.036     2.509     2.477
    79   1 H        0.925     0.040     2.444     2.445
    80   1 H        0.925     0.038     2.480     2.463
    81   1 H        0.925     0.035     2.515     2.480
    82   1 H        0.924     0.044     2.392     2.418
    83   1 H        0.924     0.050     2.319     2.382
    84   1 H        0.924     0.042     2.420     2.433
    85   1 H        0.924     0.036     2.504     2.475
    86   1 H        0.924     0.033     2.544     2.494
    87   1 H        0.924     0.037     2.492     2.468
    88   1 H        0.925     0.037     2.491     2.468
    89   1 H        0.925     0.030     2.587     2.515
    90   1 H        0.925     0.037     2.492     2.469
    91   1 H        0.926     0.054     2.272     2.357
    92   1 H        0.803     0.332     0.632     1.249
    93   1 H        0.803     0.332     0.632     1.249
    94   1 H        0.926     0.052     2.296     2.370

molecular dipole:
                 x           y           z       tot (Debye)
 q only:       -7.153      -0.349      -0.134
   full:       -7.631      -0.410      -0.116      19.427

 projected vibrational frequencies (cm⁻¹)
eigval :       -0.00    -0.00    -0.00     0.00     0.00     0.00
eigval :       14.00    17.56    19.29    23.51    24.14    26.87
eigval :       29.68    33.58    37.41    40.87    44.43    48.46
eigval :       55.43    58.34    62.19    67.94    72.70    80.95
eigval :       84.30    88.79    96.58   102.82   107.93   114.57
eigval :      121.11   126.56   128.33   143.03   152.90   164.11
eigval :      176.21   192.34   200.82   202.72   212.06   220.77
eigval :      223.04   228.44   233.03   238.30   240.75   247.73
eigval :      259.95   263.02   277.92   290.68   295.73   308.27
eigval :      323.21   335.63   341.91   364.80   373.40   378.71
eigval :      379.68   396.61   406.32   409.08   415.16   420.68
eigval :      421.53   424.06   430.65   433.39   448.21   449.71
eigval :      458.71   471.18   478.82   495.44   519.05   539.77
eigval :      545.58   550.17   553.93   570.54   592.88   600.06
eigval :      602.75   608.26   636.65   647.70   671.80   672.35
eigval :      685.96   691.96   701.17   702.96   717.00   731.92
eigval :      741.14   777.78   780.04   787.16   789.67   796.08
eigval :      798.78   816.56   826.48   831.18   837.08   837.93
eigval :      843.40   849.33   853.35   861.91   862.15   873.63
eigval :      878.15   897.11   898.28   917.13   918.77   919.65
eigval :      928.54   930.29   931.43   942.78   948.51   964.27
eigval :      966.10   982.18   999.12  1001.21  1002.51  1031.99
eigval :     1043.00  1051.79  1091.19  1099.67  1101.74  1104.20
eigval :     1105.15  1112.93  1117.25  1126.76  1127.85  1129.10
eigval :     1138.73  1145.67  1153.48  1160.37  1167.54  1175.16
eigval :     1181.89  1191.68  1196.55  1203.14  1213.08  1215.30
eigval :     1218.36  1219.98  1224.59  1233.71  1248.80  1250.03
eigval :     1251.26  1253.38  1256.93  1259.12  1262.62  1263.69
eigval :     1275.19  1279.11  1282.86  1283.88  1285.19  1288.27
eigval :     1296.72  1299.80  1305.77  1307.81  1326.51  1331.23
eigval :     1336.78  1344.89  1351.63  1352.14  1353.81  1353.89
eigval :     1355.88  1356.96  1360.19  1363.52  1367.92  1383.56
eigval :     1396.94  1416.18  1416.69  1417.34  1419.01  1419.74
eigval :     1423.47  1446.69  1452.46  1458.76  1471.80  1477.03
eigval :     1481.90  1490.70  1490.93  1495.12  1495.77  1495.85
eigval :     1496.45  1497.72  1498.74  1501.35  1503.43  1504.82
eigval :     1505.52  1506.64  1507.14  1510.27  1510.92  1511.08
eigval :     1513.79  1515.38  1519.53  1522.71  1527.85  1544.12
eigval :     1595.43  1606.33  1628.90  1629.66  2368.41  2370.08
eigval :     2886.63  2888.91  2942.64  2952.68  2957.43  2957.81
eigval :     2962.27  2965.62  2966.96  2967.54  2971.18  2971.87
eigval :     2973.61  2977.18  2980.64  2980.79  2982.83  2984.00
eigval :     2985.28  2986.62  2988.93  2992.80  2994.65  2995.99
eigval :     2996.35  3002.75  3029.14  3029.28  3033.74  3034.36
eigval :     3034.84  3034.88  3036.23  3039.44  3042.47  3043.93
eigval :     3044.48  3047.34  3054.87  3058.51  3076.40  3077.37
eigval :     3095.80  3096.24  3126.15  3128.00  3134.11  3134.91

   temp. (K)  partition function   enthalpy   heat capacity  entropy
                                   cal/mol     cal/K/mol   cal/K/mol   J/K/mol
 298.15  VIB  0.742E+24            28659.833    163.627    184.148
         ROT  0.769E+08              888.752      2.981     39.065
         INT  0.570E+32            29548.586    166.608    223.213
         TR   0.150E+29             1481.254      4.968     45.140
         TOT                       31029.8395   171.5758   268.3531  1122.7893

       T/K    H(0)-H(T)+PV         H(T)/Eh          T*S/Eh         G(T)/Eh
   ------------------------------------------------------------------------
    298.15    0.494492E-01    0.831474E+00    0.127503E+00    0.703971E+00
   ------------------------------------------------------------------------

         :::::::::::::::::::::::::::::::::::::::::::::::::::::
         ::                  THERMODYNAMIC                  ::
         :::::::::::::::::::::::::::::::::::::::::::::::::::::
         :: total free energy        -130.809037988335 Eh   ::
         ::.................................................::
         :: total energy             -131.513009145672 Eh   ::
         :: zero point energy           0.782025164340 Eh   ::
         :: G(RRHO) w/o ZPVE           -0.078054007002 Eh   ::
         :: G(RRHO) contrib.            0.703971157338 Eh   ::
         :::::::::::::::::::::::::::::::::::::::::::::::::::::

           -------------------------------------------------
          | TOTAL ENERGY             -131.513009145672 Eh   |
          | TOTAL ENTHALPY           -130.681534784553 Eh   |
          | TOTAL FREE ENERGY        -130.809037988335 Eh   |
          | GRADIENT NORM               0.000040584944 Eh/α |
          | HOMO-LUMO GAP               1.937477060909 eV   |
           -------------------------------------------------

 * finished run on 2025/09/02 at 11:48:21.999
