   * xtb version 6.7.1 (edcfbbe) compiled by 'albert@albert-system' on 2024-07-22

   ID    Z sym.   atoms
    1    6 C      1-4, 6-14, 16-19, 21, 22, 24, 25, 27-31, 33-42, 44, 46
    2    7 N      5, 15, 20, 23, 26, 32
    3    8 O      43, 45
    4    1 H      47-94

          program call               : xtb data2507/gas/Pd-1/Pd-1_gas_T1_crest.xyz --gfn 2 --spinpol --tblite --uhf 2 --ohess vtight --parallel 40 --molden --ceasefiles --namespace data2507/gas/Pd-1/Pd-1_gas_T1_finalOpt
 * total energy  :  -131.4735222 Eh     change       -0.8421011E-08 Eh
 * total energy  :  -131.4735536 Eh     change       -0.3142281E-04 Eh
 * total energy  :  -131.4735641 Eh     change       -0.1048219E-04 Eh
 * total energy  :  -131.4735269 Eh     change        0.3718733E-04 Eh
 * total energy  :  -131.4735712 Eh     change       -0.4428883E-04 Eh
 * total energy  :  -131.4735469 Eh     change        0.2429280E-04 Eh
 * total energy  :  -131.4735820 Eh     change       -0.3504623E-04 Eh
 * total energy  :  -131.4735845 Eh     change       -0.2537008E-05 Eh
 * total energy  :  -131.4735921 Eh     change       -0.7596633E-05 Eh
 * total energy  :  -131.4735945 Eh     change       -0.2388733E-05 Eh
 * total energy  :  -131.4736139 Eh     change       -0.1877063E-06 Eh
 * total energy  :  -131.4736141 Eh     change       -0.2022429E-06 Eh
 * total energy  :  -131.4736143 Eh     change       -0.1951207E-06 Eh
 * total energy  :  -131.4736145 Eh     change       -0.1938330E-06 Eh
 * total energy  :  -131.4736147 Eh     change       -0.1814026E-06 Eh
 * total energy  :  -131.4736148 Eh     change       -0.1324248E-06 Eh
 * total energy  :  -131.4736150 Eh     change       -0.1931325E-06 Eh
 * total energy  :  -131.4736151 Eh     change       -0.1373326E-06 Eh
 * total energy  :  -131.4736151 Eh     change       -0.1573713E-07 Eh
   *** GEOMETRY OPTIMIZATION CONVERGED AFTER 44 ITERATIONS ***

 final structure:
================
94
 xtb: 6.7.1 (edcfbbe)
C           -2.47732234253778        8.25918230676145       -0.30763136247518
C           -2.79706008027685        6.97323001389489        0.44411056126816
C           -2.62612654484617        5.74444967879463       -0.44459452475604
C           -2.95097065622848        4.44972129762518        0.31064167849773
N           -2.78370483930995        3.27196307990096       -0.50918742293821
C           -3.94984334473385        2.83585409332617       -1.24052422967054
C           -4.76434350874522        1.77765593899249       -0.48371081322642
C           -5.99768939868923        1.35020075501876       -1.27517751746436
C           -6.81082357330760        0.29126326198222       -0.54071663207023
C           -1.58778643004735        2.61611494052087       -0.59484166148155
C           -1.47775192475147        1.37453372714359       -1.25109694351369
C           -0.28345435282473        0.69777909992669       -1.28078750411061
C            0.86853455551922        1.20507939671376       -0.68674914345065
C            2.10231604918041        0.38059591026943       -0.63487393148891
N            3.30112717094819        1.12174738355542       -0.60583390096399
C            4.42513566477694        0.54489077255967       -0.25426009312030
C            5.66896048785761        1.16629999941863       -0.46370993825994
C            6.84547465988308        0.50597554415799       -0.18095625787254
C            8.08476504961293        1.13733326264668       -0.41510762918877
N            9.08432605189864        1.66554573322958       -0.60929142787572
C            6.81833345437953       -0.82388528653903        0.33397508202130
C            8.03106805597779       -1.49724837054526        0.58914309014369
N            9.00843561372157       -2.05937493284405        0.80033210402696
C            5.61522124937798       -1.44335953399913        0.59659671402623
C            4.39724140149984       -0.77939250343476        0.36707043185252
N            3.24824873326291       -1.31765413781024        0.69855486475607
C            2.07613078607365       -0.53441754117144        0.71109559836070
C            0.81327972543352       -1.31434320392013        0.74720729003843
C           -0.33017080653992       -0.76074282113806        1.31645968463633
C           -1.54500456483888       -1.39912860264997        1.27939868717314
C           -1.68753160616669       -2.64355613662558        0.63379021581866
N           -2.90170767042305       -3.26469966507849        0.54851850858466
C           -4.12310216149867       -2.60347598628005        0.94429070666690
C           -4.45176372756166       -2.82253215038856        2.42776373263615
C           -5.67214069552753       -2.02345704376599        2.88570989112506
C           -5.37918710738175       -0.53679020363832        3.05454497008919
C           -3.04077982013406       -4.60871248515354        0.03811803749158
C           -3.20287314849427       -4.64518796807415       -1.48686960274639
C           -3.33908318617730       -6.07379115922727       -2.00566090368540
C           -3.50284971372629       -6.10887704857241       -3.52005274188477
C           -0.53210971423038       -3.21559739350664        0.08939576506220
C            0.69645391813666       -2.57675859761728        0.14267313954200
O            1.75701991716953       -3.20900470740084       -0.40011864645326
C            0.78511009111142        2.46397552079618       -0.06949417102711
O            1.86035252747794        3.05795461299189        0.48773796044267
C           -0.42073277168166        3.14567787288829       -0.03235981556777
H           -3.13730928318073        8.37551687887244       -1.16450295846353
H           -1.45073090277386        8.24508606283363       -0.66615980317466
H           -2.60243823424612        9.12225194334734        0.34149725656067
H           -2.13741555238964        6.88640074681186        1.31027682197203
H           -3.82455762202681        7.01348173417345        0.81378715096550
H           -1.60052145005486        5.69793217365113       -0.81388149667568
H           -3.28368369412238        5.82784374797239       -1.31296021919529
H           -3.99031800474907        4.48231226217032        0.65047255279508
H           -2.32161378794476        4.36847427879811        1.19967223442012
H           -3.65043212156635        2.44615000733992       -2.21678513656915
H           -4.58240594848065        3.70901165930231       -1.42165587782349
H           -5.07157691278198        2.18638838969217        0.48179150973673
H           -4.12965784622347        0.91066586468939       -0.28885583235989
H           -5.68434765233869        0.95746285538291       -2.24525287828485
H           -6.62602244527447        2.22412281778349       -1.46094760427233
H           -6.21586555848350       -0.60516224464225       -0.38096754757744
H           -7.13875356377304        0.66298261600266        0.42738374201027
H           -7.69060544849005        0.01932799256481       -1.11871679276632
H           -2.32981155188600        0.92056955918101       -1.72651927854800
H           -0.23683704245447       -0.26324622549064       -1.77250476395397
H            2.11042499361598       -0.33334115486563       -1.47523410515445
H            5.68431046249954        2.15588710485324       -0.89454985577564
H            5.58928054645557       -2.43272523423431        1.02745651345982
H            2.09801059801142        0.17984332109402        1.55100416174920
H           -0.25667335827788        0.19981315437705        1.80580857947363
H           -2.38058147625019       -0.92697679758910        1.76586430741064
H           -4.04268143834641       -1.53710002471694        0.72641770519931
H           -4.93953760482377       -3.00178791821191        0.33453410909153
H           -3.58566938259195       -2.54607287819079        3.03136549992391
H           -4.63512645470282       -3.88714608875054        2.58797673983090
H           -6.48450214831996       -2.15756975744121        2.16747320122002
H           -6.01070329472956       -2.42254747232005        3.84389022163245
H           -5.08730269963904       -0.08059245293109        2.11234757061090
H           -4.57652386891658       -0.38805588316632        3.77368245583965
H           -6.26323423094706       -0.01935786034720        3.41972060558406
H           -3.92153262399340       -5.05903043486253        0.50454789139162
H           -2.17554128718825       -5.20543152104686        0.33555731005662
H           -2.33926476983546       -4.16674767344117       -1.95154629368625
H           -4.08823889581525       -4.06961232881391       -1.76741809149973
H           -4.20266124520558       -6.54972173422192       -1.53497897889931
H           -2.45231121236039       -6.64553719123947       -1.72385855641559
H           -2.64164037465319       -5.65682837841270       -4.00662227534036
H           -4.39305702663092       -5.56100092474966       -3.82153921022785
H           -3.59595781268609       -7.13375422262433       -3.87036922031302
H           -0.54548487912477       -4.17197583432022       -0.40397868991413
H            2.56707545022254       -2.72590766521312       -0.11983723111839
H            2.65719651073417        2.55162359376743        0.21128958890982
H           -0.40300628176644        4.11115815554685        0.44252843469787

 projected vibrational frequencies (cm⁻¹)
eigval :       -0.00    -0.00     0.00     0.00     0.00     0.00
eigval :       10.78    14.43    17.46    20.82    24.16    27.10
eigval :       29.64    34.52    38.62    41.83    46.73    54.39
eigval :       56.10    58.45    65.69    67.13    68.44    77.15
eigval :       84.20    90.06    98.48   114.01   120.44   122.85
eigval :      128.41   131.99   140.85   151.90   154.45   165.20
eigval :      167.52   187.28   204.26   206.17   211.17   217.26
eigval :      222.08   230.93   234.19   237.65   240.66   243.46
eigval :      258.96   281.57   286.06   288.21   297.20   302.58
eigval :      306.36   322.39   341.34   365.38   371.02   388.11
eigval :      401.96   405.12   408.48   408.98   412.19   419.67
eigval :      423.57   427.49   438.07   449.29   456.26   475.63
eigval :      482.47   499.94   512.28   525.74   540.04   551.37
eigval :      554.51   558.06   572.66   589.62   593.36   597.36
eigval :      602.23   638.09   639.76   656.77   661.12   669.06
eigval :      678.15   684.97   701.29   718.19   730.09   733.93
eigval :      772.25   773.33   775.16   776.23   784.59   797.32
eigval :      808.16   813.97   824.65   825.96   827.99   832.06
eigval :      835.52   837.40   838.63   845.24   853.03   862.33
eigval :      905.69   907.58   919.06   919.86   933.08   942.56
eigval :      942.78   942.91   944.49   945.72   948.27   970.04
eigval :      999.02  1025.13  1032.49  1045.62  1053.47  1055.99
eigval :     1082.09  1086.03  1097.00  1097.43  1099.03  1101.70
eigval :     1103.19  1117.82  1124.49  1128.19  1128.41  1128.69
eigval :     1132.29  1143.15  1150.75  1154.38  1166.10  1172.25
eigval :     1188.41  1190.50  1201.14  1201.54  1205.26  1207.24
eigval :     1209.35  1214.67  1216.54  1229.36  1232.74  1233.67
eigval :     1235.23  1247.73  1250.07  1254.25  1262.13  1263.30
eigval :     1265.13  1267.63  1270.16  1272.96  1275.15  1277.84
eigval :     1279.21  1280.68  1285.64  1286.41  1293.52  1302.88
eigval :     1305.36  1323.20  1330.69  1336.20  1336.85  1337.50
eigval :     1348.74  1353.57  1358.27  1358.80  1361.69  1363.58
eigval :     1364.60  1388.21  1395.96  1402.04  1415.78  1416.06
eigval :     1416.49  1417.49  1448.96  1450.60  1459.11  1474.67
eigval :     1477.46  1478.20  1488.61  1492.69  1494.39  1494.53
eigval :     1496.16  1496.54  1497.02  1498.90  1499.34  1499.65
eigval :     1501.43  1501.52  1503.10  1504.18  1504.46  1504.66
eigval :     1505.31  1508.01  1509.10  1510.09  1514.23  1524.18
eigval :     1537.47  1540.75  1594.20  1601.83  2360.97  2363.95
eigval :     2827.15  2835.80  2944.96  2946.30  2952.27  2952.32
eigval :     2962.71  2962.99  2963.38  2965.49  2968.44  2969.24
eigval :     2969.54  2972.57  2975.95  2976.71  2977.57  2979.41
eigval :     2980.71  2983.91  2984.50  2988.08  2989.47  2997.59
eigval :     2998.36  2999.52  3032.33  3032.77  3033.51  3034.78
eigval :     3036.97  3037.76  3038.03  3038.63  3042.88  3043.45
eigval :     3043.83  3048.67  3076.83  3076.92  3092.09  3095.60
eigval :     3096.69  3097.78  3124.48  3128.26  3133.71  3135.41

   temp. (K)  partition function   enthalpy   heat capacity  entropy
                                   cal/mol     cal/K/mol   cal/K/mol   J/K/mol
 298.15  VIB  0.678E+24            28435.420    163.087    182.973
         ROT  0.950E+08              888.752      2.981     39.485
         INT  0.644E+32            29324.172    166.068    222.458
         TR   0.150E+29             1481.254      4.968     45.140
         TOT                       30805.4259   171.0360   267.5985  1119.6320

       T/K    H(0)-H(T)+PV         H(T)/Eh          T*S/Eh         G(T)/Eh
   ------------------------------------------------------------------------
    298.15    0.490916E-01    0.830344E+00    0.127145E+00    0.703200E+00
   ------------------------------------------------------------------------

         :::::::::::::::::::::::::::::::::::::::::::::::::::::
         ::                  THERMODYNAMIC                  ::
         :::::::::::::::::::::::::::::::::::::::::::::::::::::
         :: total free energy        -130.770415329381 Eh   ::
         ::.................................................::
         :: total energy             -131.473615132087 Eh   ::
         :: zero point energy           0.781252902874 Eh   ::
         :: G(RRHO) w/o ZPVE           -0.078053100168 Eh   ::
         :: G(RRHO) contrib.            0.703199802706 Eh   ::
         :::::::::::::::::::::::::::::::::::::::::::::::::::::

           -------------------------------------------------
          | TOTAL ENERGY             -131.473615132087 Eh   |
          | TOTAL ENTHALPY           -130.643270658167 Eh   |
          | TOTAL FREE ENERGY        -130.770415329381 Eh   |
          | GRADIENT NORM               0.000043653722 Eh/α |
           -------------------------------------------------

 * finished run on 2025/09/02 at 13:46:42.355
