   * xtb version 6.7.1 (edcfbbe) compiled by 'albert@albert-system' on 2024-07-22

   ID    Z sym.   atoms
    1    6 C      1-4, 6-14, 16-19, 21, 22, 24, 25, 27-31, 33-42, 44, 46
    2    7 N      5, 15, 20, 23, 26, 32
    3    8 O      43, 45
    4    1 H      47-94

          program call               : xtb data2507/gas/Pd-1/Pd-1.xyz --gfn 2 --ohess vtight --parallel 40 --molden --ceasefiles --namespace data2507/gas/Pd-1/Pd-1_gas_S0_preOpt
          :  Hamiltonian                  GFN2-xTB          :
 * total energy  :  -131.4452620 Eh     change       -0.3916739E-08 Eh
 * total energy  :  -131.4622703 Eh     change       -0.1700827E-01 Eh
 * total energy  :  -131.4675865 Eh     change       -0.5316232E-02 Eh
 * total energy  :  -131.4694532 Eh     change       -0.1866719E-02 Eh
 * total energy  :  -131.4712820 Eh     change       -0.1828736E-02 Eh
 * total energy  :  -131.4728275 Eh     change       -0.1545506E-02 Eh
 * total energy  :  -131.4745170 Eh     change       -0.1689547E-02 Eh
 * total energy  :  -131.4757264 Eh     change       -0.1209395E-02 Eh
 * total energy  :  -131.4767452 Eh     change       -0.1018838E-02 Eh
 * total energy  :  -131.4776968 Eh     change       -0.9515718E-03 Eh
 * total energy  :  -131.5026567 Eh     change       -0.7368869E-06 Eh
 * total energy  :  -131.5026574 Eh     change       -0.7063321E-06 Eh
 * total energy  :  -131.5026578 Eh     change       -0.4290178E-06 Eh
 * total energy  :  -131.5026581 Eh     change       -0.2688988E-06 Eh
 * total energy  :  -131.5026583 Eh     change       -0.2443488E-06 Eh
 * total energy  :  -131.5026586 Eh     change       -0.2566507E-06 Eh
 * total energy  :  -131.5026588 Eh     change       -0.2517363E-06 Eh
 * total energy  :  -131.5026590 Eh     change       -0.2347199E-06 Eh
 * total energy  :  -131.5026591 Eh     change       -0.7175629E-08 Eh
   *** GEOMETRY OPTIMIZATION CONVERGED AFTER 260 ITERATIONS ***

 final structure:
================
94
 xtb: 6.7.1 (edcfbbe)
C            5.33337978249886        0.45201647811717        1.95688489138917
C            4.82031184705073        1.37260478782054        3.05722105000131
C            4.18161749949229        2.66412539093860        2.54199588504599
C            2.75063153969819        2.52394154494522        2.00133508029504
N            2.63373481535458        1.91235636964849        0.69611336229302
C            3.00380018055067        2.75161253313756       -0.42499562494086
C            4.28562167226795        2.28627131775860       -1.12776493068954
C            4.52751590087411        3.01419263086523       -2.44937544424802
C            4.80481037039600        4.50281857515291       -2.27176058993511
C            2.11282735227255        0.66451773348561        0.50172919310205
C            1.77648997142487        0.20528713452363       -0.79307181699880
C            1.19957592454979       -1.02129927027810       -0.97943874536643
C            0.92915665218848       -1.88947315709460        0.08555428636916
C            0.25465558972584       -3.12452624053834       -0.14037056133714
N           -0.09709577905146       -3.89888828602530        0.82214910846835
C           -0.77576895653496       -5.07569653256480        0.63582113671227
C           -0.43760615806664       -5.98774887436398       -0.35604926809978
C           -1.11454083808149       -7.19500954167598       -0.48829613449148
C           -0.74934488442486       -8.09349449172553       -1.51158941561884
N           -0.43153484418252       -8.80277365287635       -2.35542228561643
C           -2.16194208325164       -7.50288724286907        0.40196013171400
C           -2.86792624456279       -8.71939843470405        0.27755485071893
N           -3.45491567009369       -9.70035877375081        0.18940498991752
C           -2.49393143569156       -6.61098221871698        1.41066264704118
C           -1.82307011584787       -5.39321729650201        1.55220444284994
N           -2.09675181270498       -4.62306041333650        2.63427056446133
C           -2.16076351008389       -3.35729458228585        2.77374464302760
C           -2.25866006892587       -2.28775769742530        1.80884307705834
C           -1.76098209469025       -1.03292835510279        2.19220372384339
C           -1.63543294022437        0.00892150554707        1.31393437061983
C           -2.03767576208265       -0.12288723107836       -0.03132404943942
N           -1.84602231563921        0.87672522709709       -0.93925540639108
C           -1.09932053725072        2.06413376385224       -0.59962504466643
C           -1.93661787513904        3.17584030890505        0.04516921035007
C           -1.04770963298817        4.30840688886554        0.55275235779074
C           -1.86380741022035        5.42964609512129        1.18346700558865
C           -2.47876676545181        0.83661049884416       -2.23929944816266
C           -3.98789082622879        1.10204337553416       -2.18275561361544
C           -4.63024309569837        0.98909932607071       -3.56268117967874
C           -6.12893225224791        1.25726759925691       -3.50774296445232
C           -2.64339137855280       -1.33439135927634       -0.38870205258015
C           -2.75202051031147       -2.39302431928114        0.49442840576710
O           -3.39266688498836       -3.49619144612072        0.02917799238355
C            1.29916455446666       -1.46059441195592        1.38128947425200
O            1.10608362728098       -2.22980793035768        2.46096055564935
C            1.87580301416597       -0.21598318392552        1.56484875662492
H            4.52692887628579        0.11809885666926        1.31183663833144
H            5.80005265093861       -0.42636415725468        2.39660243159812
H            6.07824448288430        0.96245732326618        1.34985563344575
H            4.10195159885335        0.83469169148618        3.67875359247214
H            5.66180907782484        1.64483530178557        3.69933561606649
H            4.81922716042740        3.10158312768893        1.77208007149492
H            4.13358950766292        3.37618700308311        3.36960952698783
H            2.32221510627166        3.53307567152124        1.92850792223355
H            2.14418124564232        1.97297908030097        2.71910500504899
H            3.14988300115521        3.76313939303934       -0.04406746603066
H            2.18187640489438        2.79318475424394       -1.14945338855549
H            4.21644027500236        1.21394276146872       -1.31723814451474
H            5.13855760212822        2.44659909426905       -0.46718926492188
H            3.66079033530098        2.88193511089862       -3.10159318783242
H            5.38405136205586        2.55257262704360       -2.94495452900132
H            5.63726073565498        4.65590386277569       -1.58845800693817
H            5.06183019742660        4.95384355832899       -3.22717359706817
H            3.93426852708854        5.02138742862382       -1.87803163370353
H            1.94985388036960        0.82041168446339       -1.65853223169268
H            0.93380892870513       -1.33383568395293       -1.97932887212586
H           -0.01507288360809       -3.34787050038960       -1.17892806877834
H            0.37328526775282       -5.75484133907228       -1.03215890631672
H           -3.28882702112025       -6.85021778965297        2.10154336967707
H           -2.11972405495979       -3.02639965481927        3.81014393554121
H           -1.42157831010788       -0.90821785126083        3.20999932408402
H           -1.22029890248486        0.93284119258839        1.67730105976331
H           -0.28235068100259        1.78409221915320        0.06981377708343
H           -0.64445326016459        2.44941329340622       -1.51748530079589
H           -2.51206203335289        2.76029106894644        0.87420627064035
H           -2.64499117662241        3.57105417312976       -0.68507156723949
H           -0.34563164292779        3.91051149451542        1.28977706318483
H           -0.46208912888483        4.70789014900918       -0.27898678847540
H           -1.21235287294042        6.22309923955779        1.54168568395796
H           -2.44134598407017        5.05334497547835        2.02466908761819
H           -2.55383562851261        5.85439565215362        0.45799471076097
H           -2.29303894300940       -0.13387580412841       -2.71005136688431
H           -2.00681775067465        1.59479282272095       -2.86828901945992
H           -4.16357140077857        2.10126262915201       -1.78000837952427
H           -4.45460032712082        0.38766658002421       -1.50281646617902
H           -4.45654334748783       -0.01290533964881       -3.96112046016449
H           -4.15757135891810        1.70187693964397       -4.24282411212084
H           -6.32479422563774        2.25889016842459       -3.13116544487382
H           -6.61915696247969        0.54285020515221       -2.85046732250518
H           -6.56917762063726        1.17085559915499       -4.49800437750401
H           -3.04295835353786       -1.50698627227709       -1.37272698007500
H           -3.46733031186510       -4.16133140635166        0.72513857226468
H            0.63747154259289       -3.04648456070983        2.16369864848262
H            2.14274880983810        0.02861148726955        2.57830432355698

          :  Hamiltonian                  GFN2-xTB          :
         :: gradient norm              0.000067682281 Eh/a0 ::
         :: HOMO-LUMO gap              1.935432036719 eV    ::
         :: SCC energy              -133.602490656745 Eh    ::
         :: -> dispersion             -0.119592515521 Eh    ::
         :: repulsion energy           2.099831606422 Eh    ::

    * Orbital Energies and Occupations

         #    Occupation            Energy/Eh            Energy/eV
      -------------------------------------------------------------
         1        2.0000           -0.7197023             -19.5841
       ...           ...                  ...                  ...
       109        2.0000           -0.4324847             -11.7685
       110        2.0000           -0.4284724             -11.6593
       111        2.0000           -0.4264968             -11.6056
       112        2.0000           -0.4174575             -11.3596
       113        2.0000           -0.4147999             -11.2873
       114        2.0000           -0.4121213             -11.2144
       115        2.0000           -0.4096684             -11.1476
       116        2.0000           -0.3940043             -10.7214
       117        2.0000           -0.3878904             -10.5550
       118        2.0000           -0.3851344             -10.4800
       119        2.0000           -0.3724691             -10.1354
       120        2.0000           -0.3620306              -9.8514
       121        2.0000           -0.3579639              -9.7407 (HOMO)
       122                         -0.2868381              -7.8053 (LUMO)
       123                         -0.2797637              -7.6128
       124                         -0.2586534              -7.0383
       125                         -0.2388992              -6.5008
       126                         -0.2215269              -6.0281
       127                         -0.2194139              -5.9706
       128                         -0.1990610              -5.4167
       129                         -0.1952897              -5.3141
       130                         -0.1944908              -5.2924
       131                         -0.1824670              -4.9652
       132                         -0.1548954              -4.2149
       ...                                ...                  ...
       232                          1.1988519              32.6224
      -------------------------------------------------------------
                  HL-Gap            0.0711258 Eh            1.9354 eV

     #   Z          covCN         q      C6AA      α(0)
     1   6 C        3.751    -0.104    22.549     6.772
     2   6 C        3.799    -0.053    21.521     6.605
     3   6 C        3.799    -0.065    21.754     6.641
     4   6 C        3.745    -0.004    20.725     6.494
     5   7 N        2.736    -0.081    22.811     7.093
     6   6 C        3.748    -0.004    20.719     6.492
     7   6 C        3.801    -0.065    21.751     6.640
     8   6 C        3.800    -0.054    21.553     6.610
     9   6 C        3.751    -0.105    22.570     6.775
    10   6 C        2.906     0.070    26.442     8.432
    11   6 C        2.920    -0.076    29.890     8.965
    12   6 C        2.922    -0.033    28.826     8.805
    13   6 C        2.973    -0.053    29.317     8.882
    14   6 C        2.862     0.080    26.215     8.392
    15   7 N        1.842    -0.258    27.573     7.782
    16   6 C        2.932     0.073    26.371     8.422
    17   6 C        2.927    -0.041    29.016     8.834
    18   6 C        2.975     0.012    27.747     8.640
    19   6 C        1.911     0.112    28.338     8.597
    20   7 N        0.911    -0.238    26.214     7.405
    21   6 C        2.974     0.016    27.642     8.624
    22   6 C        1.912     0.113    28.310     8.593
    23   7 N        0.911    -0.232    26.070     7.385
    24   6 C        2.932    -0.047    29.167     8.857
    25   6 C        2.916     0.075    26.330     8.414
    26   7 N        1.835    -0.216    26.538     7.634
    27   6 C        2.845     0.074    26.332     8.410
    28   6 C        2.964    -0.053    29.318     8.881
    29   6 C        2.929    -0.031    28.765     8.796
    30   6 C        2.920    -0.072    29.784     8.950
    31   6 C        2.910     0.071    26.410     8.427
    32   7 N        2.737    -0.082    22.830     7.096
    33   6 C        3.748    -0.005    20.727     6.493
    34   6 C        3.802    -0.066    21.762     6.642
    35   6 C        3.801    -0.052    21.508     6.603
    36   6 C        3.752    -0.105    22.559     6.773
    37   6 C        3.747    -0.005    20.732     6.494
    38   6 C        3.802    -0.066    21.771     6.643
    39   6 C        3.801    -0.053    21.535     6.607
    40   6 C        3.752    -0.104    22.553     6.772
    41   6 C        2.924    -0.092    30.300     9.027
    42   6 C        2.845     0.152    24.701     8.145
    43   8 O        1.661    -0.395    20.752     6.150
    44   6 C        2.845     0.157    24.597     8.128
    45   8 O        1.658    -0.391    20.666     6.137
    46   6 C        2.922    -0.095    30.380     9.039
    47   1 H        0.925     0.042     2.417     2.431
    48   1 H        0.925     0.035     2.516     2.480
    49   1 H        0.925     0.031     2.578     2.511
    50   1 H        0.924     0.034     2.526     2.486
    51   1 H        0.924     0.032     2.559     2.502
    52   1 H        0.924     0.042     2.419     2.432
    53   1 H        0.924     0.035     2.512     2.479
    54   1 H        0.923     0.032     2.553     2.499
    55   1 H        0.925     0.054     2.269     2.356
    56   1 H        0.924     0.048     2.343     2.394
    57   1 H        0.924     0.038     2.477     2.461
    58   1 H        0.924     0.042     2.417     2.431
    59   1 H        0.924     0.042     2.428     2.437
    60   1 H        0.924     0.029     2.597     2.520
    61   1 H        0.924     0.037     2.493     2.469
    62   1 H        0.925     0.037     2.493     2.469
    63   1 H        0.925     0.037     2.484     2.465
    64   1 H        0.925     0.033     2.550     2.497
    65   1 H        0.926     0.035     2.513     2.479
    66   1 H        0.926     0.032     2.554     2.499
    67   1 H        0.924     0.005     2.970     2.695
    68   1 H        0.926     0.037     2.485     2.465
    69   1 H        0.926     0.047     2.358     2.401
    70   1 H        0.925     0.048     2.346     2.395
    71   1 H        0.926     0.043     2.407     2.426
    72   1 H        0.926     0.035     2.511     2.478
    73   1 H        0.924     0.049     2.327     2.385
    74   1 H        0.924     0.037     2.483     2.464
    75   1 H        0.924     0.042     2.419     2.432
    76   1 H        0.924     0.038     2.476     2.461
    77   1 H        0.924     0.028     2.619     2.531
    78   1 H        0.924     0.029     2.608     2.525
    79   1 H        0.925     0.037     2.488     2.467
    80   1 H        0.925     0.038     2.471     2.458
    81   1 H        0.925     0.038     2.482     2.464
    82   1 H        0.924     0.046     2.373     2.409
    83   1 H        0.924     0.043     2.405     2.425
    84   1 H        0.924     0.037     2.490     2.468
    85   1 H        0.924     0.044     2.392     2.419
    86   1 H        0.924     0.033     2.546     2.495
    87   1 H        0.924     0.030     2.589     2.516
    88   1 H        0.925     0.035     2.511     2.478
    89   1 H        0.925     0.039     2.468     2.457
    90   1 H        0.925     0.038     2.472     2.459
    91   1 H        0.926     0.052     2.289     2.366
    92   1 H        0.805     0.308     0.697     1.311
    93   1 H        0.803     0.332     0.633     1.250
    94   1 H        0.926     0.052     2.299     2.371

molecular dipole:
                 x           y           z       tot (Debye)
 q only:        1.135       6.297       0.288
   full:        1.184       6.857       0.187      17.692

 projected vibrational frequencies (cm⁻¹)
eigval :       -0.00    -0.00    -0.00     0.00     0.00     0.00
eigval :        5.32    12.93    15.90    18.32    21.79    25.28
eigval :       26.39    30.78    35.07    44.03    44.72    49.83
eigval :       58.14    63.00    65.39    68.59    75.29    82.56
eigval :       87.92    96.96   101.42   106.72   108.08   113.88
eigval :      125.46   128.69   140.08   144.41   157.16   165.63
eigval :      172.92   177.98   193.83   199.20   204.59   214.49
eigval :      220.48   220.56   227.41   233.58   234.31   246.19
eigval :      264.78   265.70   279.14   280.87   289.53   291.85
eigval :      311.53   332.13   337.45   347.93   353.10   365.32
eigval :      371.82   396.78   401.69   403.69   408.14   415.39
eigval :      419.01   426.06   434.37   439.39   442.14   451.25
eigval :      456.45   473.87   476.01   488.36   503.50   512.09
eigval :      526.60   539.00   547.94   551.49   561.39   583.30
eigval :      591.46   602.49   617.69   644.83   653.22   657.78
eigval :      673.14   685.63   696.30   711.25   712.26   729.76
eigval :      738.51   769.17   778.24   785.58   793.51   796.34
eigval :      804.87   806.98   816.79   826.44   830.43   836.94
eigval :      839.75   843.47   850.22   854.57   859.16   870.32
eigval :      873.70   886.53   898.18   905.94   913.23   916.64
eigval :      926.49   932.15   941.16   943.51   944.37   953.22
eigval :      958.53   961.80  1000.66  1013.47  1024.68  1038.23
eigval :     1045.45  1065.61  1088.79  1095.48  1100.82  1103.71
eigval :     1105.08  1115.10  1119.33  1127.87  1128.25  1128.66
eigval :     1130.97  1132.28  1149.40  1159.12  1165.25  1173.96
eigval :     1179.05  1181.95  1193.83  1207.25  1212.21  1214.01
eigval :     1217.81  1222.45  1232.53  1235.28  1235.47  1243.91
eigval :     1246.62  1252.99  1259.99  1262.95  1264.87  1269.58
eigval :     1269.95  1274.64  1275.54  1281.59  1282.45  1283.74
eigval :     1289.89  1294.11  1298.28  1308.70  1322.55  1337.95
eigval :     1340.74  1342.79  1346.98  1350.15  1350.65  1351.63
eigval :     1359.54  1360.65  1361.00  1365.95  1369.11  1378.99
eigval :     1390.79  1405.22  1416.04  1417.69  1418.00  1418.22
eigval :     1420.25  1445.92  1448.35  1457.49  1475.67  1480.81
eigval :     1482.55  1485.88  1489.80  1492.61  1494.60  1495.26
eigval :     1496.80  1498.37  1499.62  1500.01  1502.66  1502.83
eigval :     1504.17  1504.86  1505.47  1506.08  1506.94  1508.80
eigval :     1510.39  1511.33  1517.69  1520.69  1529.12  1538.52
eigval :     1592.43  1606.56  1629.63  1676.26  2365.00  2371.29
eigval :     2880.28  2888.16  2910.02  2934.02  2939.20  2958.70
eigval :     2963.57  2963.88  2965.49  2967.79  2970.47  2970.71
eigval :     2975.77  2976.07  2980.74  2982.07  2983.95  2986.27
eigval :     2986.42  2987.32  2992.91  2995.19  2996.40  3001.31
eigval :     3003.57  3011.57  3027.37  3029.90  3032.91  3034.09
eigval :     3035.60  3037.15  3038.08  3038.26  3040.22  3042.42
eigval :     3043.14  3045.37  3070.68  3073.24  3079.62  3083.39
eigval :     3095.15  3126.38  3130.03  3131.82  3137.17  3497.68

   temp. (K)  partition function   enthalpy   heat capacity  entropy
                                   cal/mol     cal/K/mol   cal/K/mol   J/K/mol
 298.15  VIB  0.488E+25            28887.849    164.786    186.704
         ROT  0.759E+08              888.752      2.981     39.041
         INT  0.370E+33            29776.601    167.767    225.745
         TR   0.150E+29             1481.254      4.968     45.140
         TOT                       31257.8550   172.7352   270.8846  1133.3812

       T/K    H(0)-H(T)+PV         H(T)/Eh          T*S/Eh         G(T)/Eh
   ------------------------------------------------------------------------
    298.15    0.498126E-01    0.831387E+00    0.128706E+00    0.702681E+00
   ------------------------------------------------------------------------

         :::::::::::::::::::::::::::::::::::::::::::::::::::::
         ::                  THERMODYNAMIC                  ::
         :::::::::::::::::::::::::::::::::::::::::::::::::::::
         :: total free energy        -130.799977768987 Eh   ::
         ::.................................................::
         :: total energy             -131.502659050318 Eh   ::
         :: zero point energy           0.781574738855 Eh   ::
         :: G(RRHO) w/o ZPVE           -0.078893457524 Eh   ::
         :: G(RRHO) contrib.            0.702681281331 Eh   ::
         :::::::::::::::::::::::::::::::::::::::::::::::::::::

           -------------------------------------------------
          | TOTAL ENERGY             -131.502659050318 Eh   |
          | TOTAL ENTHALPY           -130.671271748830 Eh   |
          | TOTAL FREE ENERGY        -130.799977768987 Eh   |
          | GRADIENT NORM               0.000067901084 Eh/α |
          | HOMO-LUMO GAP               1.935431312686 eV   |
           -------------------------------------------------

 * finished run on 2025/09/02 at 10:47:04.064
