   * xtb version 6.7.1 (edcfbbe) compiled by 'albert@albert-system' on 2024-07-22

   ID    Z sym.   atoms
    1    6 C      1-4, 6-14, 16-19, 21, 22, 24, 25, 27-31, 33-42, 44, 46
    2    7 N      5, 15, 20, 23, 26, 32
    3    8 O      43, 45
    4    1 H      47-94

          program call               : xtb data2507/gas/Pd-1/Pd-1_gas_S0_finalOpt.xtbopt.xyz --gfn 2 --spinpol --tblite --uhf 2 --ohess vtight --parallel 40 --molden --ceasefiles --namespace data2507/gas/Pd-1/Pd-1_gas_T1_preOpt
 * total energy  :  -131.4408431 Eh     change        0.3478078E-08 Eh
 * total energy  :  -131.4476427 Eh     change       -0.6799596E-02 Eh
 * total energy  :  -131.4516178 Eh     change       -0.3975068E-02 Eh
 * total energy  :  -131.4535721 Eh     change       -0.1954247E-02 Eh
 * total energy  :  -131.4553107 Eh     change       -0.1738673E-02 Eh
 * total energy  :  -131.4565284 Eh     change       -0.1217645E-02 Eh
 * total energy  :  -131.4572081 Eh     change       -0.6797269E-03 Eh
 * total energy  :  -131.4584130 Eh     change       -0.1204893E-02 Eh
 * total energy  :  -131.4600033 Eh     change       -0.1590346E-02 Eh
 * total energy  :  -131.4635745 Eh     change       -0.3571160E-02 Eh
 * total energy  :  -131.4696924 Eh     change       -0.3659875E-06 Eh
 * total energy  :  -131.4696929 Eh     change       -0.4679210E-06 Eh
 * total energy  :  -131.4696931 Eh     change       -0.1818516E-06 Eh
 * total energy  :  -131.4696934 Eh     change       -0.3468149E-06 Eh
 * total energy  :  -131.4696938 Eh     change       -0.3638651E-06 Eh
 * total energy  :  -131.4696940 Eh     change       -0.1837578E-06 Eh
 * total energy  :  -131.4696942 Eh     change       -0.1807544E-06 Eh
 * total energy  :  -131.4696944 Eh     change       -0.2182854E-06 Eh
 * total energy  :  -131.4696945 Eh     change       -0.9640348E-07 Eh
   *** GEOMETRY OPTIMIZATION CONVERGED AFTER 245 ITERATIONS ***

 final structure:
================
94
 xtb: 6.7.1 (edcfbbe)
C           -3.56076716834676        5.85379097090699        3.27201904080752
C           -3.43549255759578        5.89592658498765        1.75416316368671
C           -3.30522862443398        4.49616110694204        1.16057374399997
C           -3.18023392132573        4.53810984469740       -0.36799765998365
N           -3.04387538285203        3.22082334072463       -0.94754067513258
C           -4.26291595686895        2.56168837529105       -1.36093201140339
C           -4.45205983725193        2.55172906295759       -2.88591570288457
C           -4.63822986646635        3.94055017158898       -3.49757658899518
C           -5.98100088828838        4.57660955494792       -3.15587610737342
C           -1.84492283613586        2.56254471815507       -0.93728092917702
C           -1.71716688050456        1.25276197304554       -1.44176853197183
C           -0.51106774949944        0.59602957760764       -1.40725658396565
C            0.64013720832330        1.18814029749729       -0.89607235408955
C            1.90080238563239        0.40825017812820       -0.78931038309152
N            3.06947152194354        1.19389962597974       -0.85956410157003
C            4.22234558212726        0.71966302286593       -0.45547353894085
C            5.43193383809096        1.37449949932973       -0.74857518647692
C            6.64155926868130        0.81511649672585       -0.39696934773323
C            7.84581860512540        1.47624467724819       -0.71609305166500
N            8.81588662769478        2.02793137588376       -0.98155903856677
C            6.68449565311256       -0.44155512480986        0.27671145093976
C            7.93114803550472       -1.01422874600442        0.60393625234809
N            8.93716427490839       -1.49385685056680        0.87553347105483
C            5.51584842604003       -1.08650746020193        0.62022592690344
C            4.26432486295114       -0.52028588124138        0.31862120314013
N            3.14585807960213       -1.07641438560710        0.71492405609975
C            1.92378537423849       -0.37781169972044        0.63476990978731
C            0.72182396697687       -1.24659744375539        0.73351239699464
C           -0.47556174421671       -0.73211274176064        1.22375409577469
C           -1.63126424454663       -1.47360635723890        1.25179546404324
C           -1.65369358431735       -2.79608256512656        0.76583078244998
N           -2.80163803933945       -3.53647660414316        0.76179042207390
C           -2.79787478429562       -4.94565960715490        0.44191199479259
C           -2.94180981153072       -5.20218101303055       -1.06409202560481
C           -2.97142056940102       -6.69033837960501       -1.41038972612092
C           -1.63222880343250       -7.38336471968905       -1.18568318621677
C           -4.08926150886511       -2.95818037373296        1.06711160701997
C           -4.40873082042273       -3.00837839082318        2.56797153069820
C           -5.69962207252306       -2.27295177824462        2.92519010442500
C           -6.94752105664487       -2.93865731588156        2.35622685103122
C           -0.44530581737763       -3.32173053210661        0.29493313069341
C            0.72150617480631       -2.57495570567452        0.27569632285494
O            1.83706813961249       -3.17388845598740       -0.18853807185688
C            0.53612451133298        2.50557046026694       -0.41995575796645
O            1.60011238554066        3.17872802877972        0.06434952085590
C           -0.68250563381774        3.16405118319387       -0.44061812581265
H           -2.68484449956428        5.38372238803403        3.71309126175501
H           -4.43988445685641        5.28532782993719        3.56793733846269
H           -3.65055496017872        6.85913990150584        3.67576976488695
H           -4.31300885271691        6.39013349706046        1.33015688418919
H           -2.55886830831695        6.48655926878642        1.47966238605081
H           -4.18127987659478        3.90128737762482        1.43085272667461
H           -2.42828272271123        4.00010772516931        1.57966366410332
H           -2.32750261251023        5.15773018830431       -0.65543204463221
H           -4.07318212331237        5.00669530575012       -0.78618056987683
H           -5.10401564951198        3.07673712625606       -0.89427398628786
H           -4.27250141969189        1.53178918783839       -0.98993806567077
H           -5.32246591653764        1.93477130495291       -3.12003978885949
H           -3.57652057563978        2.08909721373140       -3.34325317258928
H           -4.56702365613229        3.84699918522978       -4.58334276401206
H           -3.82276455115017        4.58930593338360       -3.17360380517408
H           -6.08852860026218        4.74070630511329       -2.08618648654278
H           -6.07853272890694        5.53838453234207       -3.65361470399332
H           -6.79785718202286        3.93773520615322       -3.48490524131598
H           -2.56094493913603        0.73453259983448       -1.86285733587980
H           -0.45243749385124       -0.41217580812972       -1.79154047813421
H            1.92089996256771       -0.37864983935389       -1.56135083836588
H            5.39483193990365        2.30442035521837       -1.29538796231490
H            5.54195459240291       -2.01688963743978        1.16690927817378
H            1.88104697077113        0.40911831760445        1.40596741131074
H           -0.49251345889108        0.28060033934164        1.60014613471641
H           -2.51540167573302       -1.02121547350162        1.66675825898293
H           -1.87937552279592       -5.39671287784644        0.81950243250847
H           -3.63464509742016       -5.41522827385717        0.96665566562092
H           -2.11726095124236       -4.72044482752405       -1.59178658878757
H           -3.86842326112712       -4.73608311855784       -1.40833382607818
H           -3.74306585443431       -7.18591207977487       -0.81639310668938
H           -3.24806314729901       -6.79404670155320       -2.46184198767733
H           -0.84280005907742       -6.87244536106342       -1.73234911741180
H           -1.67873639686415       -8.41156454570599       -1.53624349172106
H           -1.36740498938936       -7.40065823916575       -0.13164303896227
H           -4.84569483071135       -3.51765319145495        0.51210449950532
H           -4.12176761909471       -1.92434381458330        0.71425794790519
H           -3.57673504784164       -2.56108599260357        3.11511709921432
H           -4.48515912340133       -4.05083962901755        2.88389529507669
H           -5.64071458365991       -1.24306685190100        2.56497096321616
H           -5.78532561701307       -2.23617357552986        4.01322625558059
H           -6.99828694232173       -3.97988338206293        2.66677401647921
H           -6.95409818009097       -2.90059386245463        1.26991023958877
H           -7.84015908937422       -2.43251344911815        2.71588832450114
H           -0.36642664779666       -4.32641114018826       -0.08233242442997
H            2.60138935905745       -2.59904159170472        0.04528695114840
H            2.40701064652136        2.66739465353082       -0.17210313112884
H           -0.67560542283480        4.16717468846762       -0.05146689839619

 projected vibrational frequencies (cm⁻¹)
eigval :       -0.00    -0.00     0.00     0.00     0.00     0.00
eigval :        9.57    10.46    11.27    16.03    18.64    20.90
eigval :       22.40    27.62    34.31    40.61    46.10    46.96
eigval :       56.18    57.87    62.79    63.72    71.55    75.59
eigval :       86.36    91.43    98.30   108.60   117.88   119.88
eigval :      125.03   128.32   145.86   150.79   153.48   171.70
eigval :      181.24   200.44   202.41   206.32   215.27   218.01
eigval :      222.55   225.84   233.86   239.36   254.28   265.43
eigval :      270.29   283.28   287.83   298.21   301.11   318.09
eigval :      321.79   340.05   364.62   371.48   375.75   394.91
eigval :      403.04   407.49   408.09   410.65   417.17   421.71
eigval :      425.07   432.52   440.05   453.48   458.34   479.71
eigval :      481.93   502.20   513.96   525.71   538.00   543.87
eigval :      556.54   560.80   571.21   590.25   595.38   598.03
eigval :      603.94   637.55   640.11   654.87   660.54   669.35
eigval :      677.56   684.51   698.30   715.47   726.00   731.71
eigval :      773.19   778.57   779.74   786.26   787.14   797.45
eigval :      808.67   816.07   822.85   825.31   826.64   834.93
eigval :      836.61   837.98   841.49   850.57   853.14   858.48
eigval :      875.98   906.28   910.43   919.38   929.32   930.30
eigval :      930.74   943.40   945.78   962.35   965.13   980.67
eigval :      999.19  1000.89  1002.08  1032.42  1042.29  1049.51
eigval :     1077.95  1083.09  1090.78  1100.30  1102.16  1103.90
eigval :     1114.17  1116.14  1125.88  1126.01  1128.30  1132.51
eigval :     1136.82  1142.51  1147.07  1150.65  1155.00  1164.01
eigval :     1189.09  1191.14  1192.03  1195.43  1202.10  1203.86
eigval :     1206.86  1210.63  1216.03  1222.50  1228.47  1232.69
eigval :     1233.49  1246.30  1248.42  1251.70  1254.94  1258.63
eigval :     1262.06  1267.85  1270.45  1274.83  1276.98  1280.72
eigval :     1284.79  1286.85  1293.01  1301.77  1305.66  1306.49
eigval :     1320.02  1327.38  1329.62  1334.79  1349.88  1350.16
eigval :     1351.20  1351.56  1354.86  1356.25  1357.41  1358.86
eigval :     1362.89  1389.71  1391.19  1398.74  1416.42  1416.65
eigval :     1417.93  1418.19  1448.26  1449.89  1460.41  1470.86
eigval :     1475.29  1478.13  1478.60  1489.60  1490.53  1494.32
eigval :     1495.02  1495.32  1495.63  1496.59  1497.76  1499.97
eigval :     1502.05  1502.24  1504.45  1505.01  1505.23  1506.54
eigval :     1507.11  1508.28  1510.02  1512.20  1512.93  1525.03
eigval :     1536.36  1539.60  1594.66  1601.66  2360.95  2363.91
eigval :     2828.49  2837.27  2932.83  2951.28  2956.40  2957.48
eigval :     2963.49  2965.36  2965.77  2967.47  2971.34  2972.61
eigval :     2973.45  2977.20  2979.28  2980.67  2983.37  2984.18
eigval :     2985.08  2987.43  2988.01  2995.67  2996.06  2998.48
eigval :     2998.81  3002.09  3030.24  3032.18  3034.40  3034.83
eigval :     3036.09  3037.89  3038.32  3038.92  3043.58  3043.80
eigval :     3046.08  3047.06  3076.20  3076.80  3078.89  3087.83
eigval :     3096.65  3097.04  3122.65  3126.61  3136.00  3136.04

   temp. (K)  partition function   enthalpy   heat capacity  entropy
                                   cal/mol     cal/K/mol   cal/K/mol   J/K/mol
 298.15  VIB  0.561E+25            28370.606    162.203    183.682
         ROT  0.100E+09              888.752      2.981     39.591
         INT  0.562E+33            29259.358    165.184    223.273
         TR   0.150E+29             1481.254      4.968     45.140
         TOT                       30740.6118   170.1522   268.4134  1123.0416

       T/K    H(0)-H(T)+PV         H(T)/Eh          T*S/Eh         G(T)/Eh
   ------------------------------------------------------------------------
    298.15    0.489883E-01    0.830440E+00    0.127532E+00    0.702908E+00
   ------------------------------------------------------------------------

         :::::::::::::::::::::::::::::::::::::::::::::::::::::
         ::                  THERMODYNAMIC                  ::
         :::::::::::::::::::::::::::::::::::::::::::::::::::::
         :: total free energy        -130.766786055960 Eh   ::
         ::.................................................::
         :: total energy             -131.469694498513 Eh   ::
         :: zero point energy           0.781452019300 Eh   ::
         :: G(RRHO) w/o ZPVE           -0.078543576748 Eh   ::
         :: G(RRHO) contrib.            0.702908442552 Eh   ::
         :::::::::::::::::::::::::::::::::::::::::::::::::::::

           -------------------------------------------------
          | TOTAL ENERGY             -131.469694498513 Eh   |
          | TOTAL ENTHALPY           -130.639254196027 Eh   |
          | TOTAL FREE ENERGY        -130.766786055960 Eh   |
          | GRADIENT NORM               0.000050832668 Eh/α |
           -------------------------------------------------

 * finished run on 2025/09/02 at 11:48:53.990
