   * xtb version 6.7.1 (edcfbbe) compiled by 'albert@albert-system' on 2024-07-22

   ID    Z sym.   atoms
    1    6 C      1-8, 10-19, 21-24, 26-35, 37, 38
    2    7 N      9, 20, 25, 36
    3    1 H      39-60

          program call               : xtb data2507/gas/CbBPCb/CbBPCb_gas_T1_crest.xyz --gfn 2 --spinpol --tblite --uhf 2 --ohess vtight --parallel 40 --molden --ceasefiles --namespace data2507/gas/CbBPCb/CbBPCb_gas_T1_finalOpt
 * total energy  :   -95.6839555 Eh     change       -0.8188744E-07 Eh
 * total energy  :   -95.6839798 Eh     change       -0.2432475E-04 Eh
 * total energy  :   -95.6839947 Eh     change       -0.1482895E-04 Eh
 * total energy  :   -95.6839976 Eh     change       -0.2932342E-05 Eh
 * total energy  :   -95.6840000 Eh     change       -0.2415428E-05 Eh
 * total energy  :   -95.6840014 Eh     change       -0.1421942E-05 Eh
 * total energy  :   -95.6840024 Eh     change       -0.9977377E-06 Eh
 * total energy  :   -95.6840028 Eh     change       -0.3767997E-06 Eh
 * total energy  :   -95.6840028 Eh     change        0.2768238E-07 Eh
 * total energy  :   -95.6840030 Eh     change       -0.1692715E-06 Eh
 * total energy  :   -95.6840031 Eh     change       -0.1588653E-06 Eh
 * total energy  :   -95.6840033 Eh     change       -0.1434911E-06 Eh
 * total energy  :   -95.6840034 Eh     change       -0.1411614E-06 Eh
 * total energy  :   -95.6840036 Eh     change       -0.2405260E-06 Eh
 * total energy  :   -95.6840038 Eh     change       -0.1718176E-06 Eh
 * total energy  :   -95.6840040 Eh     change       -0.1613776E-06 Eh
 * total energy  :   -95.6840041 Eh     change       -0.7735433E-07 Eh
   *** GEOMETRY OPTIMIZATION CONVERGED AFTER 17 ITERATIONS ***

 final structure:
================
60
 xtb: 6.7.1 (edcfbbe)
C            1.54519551224742       -2.63143535611009        1.08852752229492
C            0.44251254474604       -1.79905705499120        1.06191107665452
C            0.57874765747780       -0.45650572822397        0.68920277994107
C           -0.57791782376744        0.44144300907250        0.69412128550092
C           -0.43990901978389        1.78030951457118        1.07941075602288
C           -1.54130381087691        2.61401261314590        1.11407985986690
C           -2.79436571312590        2.14776056272302        0.75939337929622
C           -2.94030395580042        0.81930692186524        0.34884184329933
N           -4.19412687550337        0.31912409291303       -0.00433148644804
C           -5.19848853336174        0.98318893429329       -0.69431525573686
C           -5.17082047907603        2.20642407879633       -1.33747104057825
C           -6.32614754080423        2.62894682485251       -1.98863594550483
C           -7.47130135277389        1.83893014965364       -2.00686945208296
C           -7.49757946764718        0.59630443443808       -1.39905626640385
C           -6.35106532962364        0.15022789831137       -0.74316505728060
C           -6.01591500777132       -1.05928752343111       -0.07185269471565
C           -6.67176775464161       -2.26158311400405        0.23134022182255
C           -5.95325162205047       -3.21793885381308        0.93057807826753
C           -4.63700417420263       -2.97331306899693        1.30602221526309
N           -3.99453197359952       -1.83469665214611        1.02219083137907
C           -4.66852981705371       -0.92161860872668        0.35640917557433
C           -1.83622961551288       -0.02400963371594        0.32706763326568
C            1.83625113023323        0.01362203133181        0.32539722230822
C            2.94191953175513       -0.82782120872096        0.34007015960478
N            4.19494677798528       -0.32123684034770       -0.00624417076625
C            5.20458409752935       -0.97626111588795       -0.69734957924386
C            5.18532091722466       -2.19582904303400       -1.34768352255947
C            6.34511214078003       -2.60903942584543       -1.99706313527391
C            7.48645377447749       -1.81339097803132       -2.00665146040534
C            7.50432545927029       -0.57401926840528       -1.39194167323499
C            6.35311159306904       -0.13710220309073       -0.73803137985160
C            6.01002421703087        1.06682907874877       -0.06094165484070
C            6.65848265753355        2.27143831546283        0.24962285768952
C            5.93302754002824        3.22031030134174        0.95182640824862
C            4.61734433901241        2.96649277855542        1.32323981143772
N            3.98218259604442        1.82533297932828        1.03281395125158
C            4.66239582534319        0.91969097024315        0.36322591969670
C            2.79772345509529       -2.16020390822718        0.73856130562645
H            1.43459409867828       -3.65876099719014        1.40317307266442
H           -0.52380102222254       -2.17288708190631        1.36335593670910
H            0.52699956395584        2.14993498497048        1.38412232547212
H           -1.42920886212795        3.63819962744032        1.43826730041514
H           -3.65971605567554        2.78673019028199        0.83759682904151
H           -4.27878037109563        2.81294878899771       -1.36008689662189
H           -6.32779850147900        3.58291600253723       -2.49286415529334
H           -8.35156539806606        2.19930493848495       -2.51868485334181
H           -8.38124244614919       -0.02201793139025       -1.43431809388837
H           -7.69418632009082       -2.42944567647715       -0.06866690302882
H           -6.40672716775873       -4.16158003582729        1.19251209147687
H           -4.06052780097889       -3.70378290353972        1.85310680686344
H           -1.96474972004840       -1.04298272963793        0.00000000512577
H            1.96294575063708        1.03550365718662        0.00687358191223
H            4.29642939766219       -2.80662994795642       -1.37735214170728
H            6.35323133358282       -3.56011563951462       -2.50665290490967
H            8.37029403323208       -2.16648559573565       -2.51737896846093
H            8.38501381556723        0.04887259452410       -1.42048717240959
H            7.68047344773245        2.44665435040396       -0.04758627337501
H            6.38080448318910        4.16491399913534        1.22002048881945
H            4.03580317864297        3.69062219774548        1.87335562816779
H            3.66390399960575       -2.79858274173119        0.81187107388328

 projected vibrational frequencies (cm⁻¹)
eigval :       -0.00    -0.00    -0.00    -0.00     0.00     0.00
eigval :       13.54    15.39    18.72    34.33    38.62    63.85
eigval :       69.86    88.35    90.24   109.69   109.84   125.66
eigval :      130.64   132.50   191.48   205.06   216.03   222.04
eigval :      236.59   256.03   258.45   286.69   294.05   320.54
eigval :      329.28   343.44   358.81   363.26   377.33   387.13
eigval :      416.92   419.29   422.76   426.89   431.62   445.54
eigval :      488.12   494.71   496.76   497.66   511.54   527.25
eigval :      547.19   565.46   565.73   573.67   596.40   603.02
eigval :      609.38   613.56   633.01   654.38   660.22   660.33
eigval :      663.94   672.38   675.36   679.55   703.90   704.87
eigval :      705.37   743.13   749.14   751.29   751.63   780.63
eigval :      799.12   800.82   801.47   804.98   836.62   843.23
eigval :      848.11   858.33   868.31   868.76   869.42   877.91
eigval :      879.73   891.26   895.14   900.40   901.88   902.06
eigval :      904.65   922.25   923.53   972.06   975.59   990.67
eigval :     1004.83  1006.03  1019.37  1065.27  1069.96  1080.20
eigval :     1086.55  1097.96  1100.74  1101.09  1120.05  1125.24
eigval :     1129.03  1133.87  1141.32  1160.93  1169.32  1182.35
eigval :     1184.77  1185.47  1195.02  1202.76  1208.51  1242.02
eigval :     1243.20  1253.78  1260.87  1266.87  1269.43  1277.11
eigval :     1286.25  1291.06  1299.30  1304.60  1325.88  1329.98
eigval :     1335.53  1342.34  1371.64  1374.34  1393.48  1396.38
eigval :     1397.42  1403.25  1410.31  1426.32  1432.22  1446.24
eigval :     1449.49  1450.71  1454.00  1467.18  1475.40  1483.75
eigval :     1507.08  1513.72  1524.06  1526.60  1553.28  1555.48
eigval :     1566.46  1586.83  3077.37  3078.26  3078.30  3078.74
eigval :     3080.65  3080.68  3084.15  3084.25  3088.08  3088.20
eigval :     3093.66  3093.73  3094.27  3096.24  3098.44  3098.85
eigval :     3100.32  3101.00  3104.37  3104.75  3113.43  3114.13

   temp. (K)  partition function   enthalpy   heat capacity  entropy
                                   cal/mol     cal/K/mol   cal/K/mol   J/K/mol
 298.15  VIB  0.155E+13            16658.448    110.141    101.344
         ROT  0.234E+08              888.752      2.981     36.701
         INT  0.364E+20            17547.200    113.121    138.045
         TR   0.104E+29             1481.254      4.968     44.414
         TOT                       19028.4544   118.0896   182.4591   763.4090

       T/K    H(0)-H(T)+PV         H(T)/Eh          T*S/Eh         G(T)/Eh
   ------------------------------------------------------------------------
    298.15    0.303238E-01    0.478126E+00    0.866922E-01    0.391434E+00
   ------------------------------------------------------------------------

         :::::::::::::::::::::::::::::::::::::::::::::::::::::
         ::                  THERMODYNAMIC                  ::
         :::::::::::::::::::::::::::::::::::::::::::::::::::::
         :: total free energy         -95.292569858952 Eh   ::
         ::.................................................::
         :: total energy              -95.684004059303 Eh   ::
         :: zero point energy           0.447802644744 Eh   ::
         :: G(RRHO) w/o ZPVE           -0.056368444393 Eh   ::
         :: G(RRHO) contrib.            0.391434200351 Eh   ::
         :::::::::::::::::::::::::::::::::::::::::::::::::::::

           -------------------------------------------------
          | TOTAL ENERGY              -95.684004059303 Eh   |
          | TOTAL ENTHALPY            -95.205877642336 Eh   |
          | TOTAL FREE ENERGY         -95.292569858952 Eh   |
          | GRADIENT NORM               0.000056990505 Eh/α |
           -------------------------------------------------

 * finished run on 2025/09/10 at 02:23:45.836
