   * xtb version 6.7.1 (edcfbbe) compiled by 'albert@albert-system' on 2024-07-22

   ID    Z sym.   atoms
    1    6 C      1-8, 10-19, 21-24, 26-35, 37, 38
    2    7 N      9, 20, 25, 36
    3    1 H      39-60

          program call               : xtb data2507/gas/CbBPCb/CbBPCb_gas_S0_finalOpt.xtbopt.xyz --gfn 2 --spinpol --tblite --uhf 2 --ohess vtight --parallel 40 --molden --ceasefiles --namespace data2507/gas/CbBPCb/CbBPCb_gas_T1_preOpt
 * total energy  :   -95.6819366 Eh     change       -0.3065381E-08 Eh
 * total energy  :   -95.6834931 Eh     change       -0.1556480E-02 Eh
 * total energy  :   -95.6838422 Eh     change       -0.3491056E-03 Eh
 * total energy  :   -95.6838880 Eh     change       -0.4572809E-04 Eh
 * total energy  :   -95.6839161 Eh     change       -0.2813709E-04 Eh
 * total energy  :   -95.6839281 Eh     change       -0.1196475E-04 Eh
 * total energy  :   -95.6839381 Eh     change       -0.1002613E-04 Eh
 * total energy  :   -95.6839471 Eh     change       -0.8984294E-05 Eh
 * total energy  :   -95.6839509 Eh     change       -0.3820254E-05 Eh
 * total energy  :   -95.6839547 Eh     change       -0.3797882E-05 Eh
 * total energy  :   -95.6840023 Eh     change       -0.6399891E-06 Eh
 * total energy  :   -95.6840031 Eh     change       -0.8565928E-06 Eh
 * total energy  :   -95.6840040 Eh     change       -0.8749994E-06 Eh
 * total energy  :   -95.6840043 Eh     change       -0.3493008E-06 Eh
 * total energy  :   -95.6840045 Eh     change       -0.1731186E-06 Eh
 * total energy  :   -95.6840046 Eh     change       -0.1111526E-06 Eh
 * total energy  :   -95.6840048 Eh     change       -0.1473666E-06 Eh
 * total energy  :   -95.6840047 Eh     change        0.4357959E-07 Eh
 * total energy  :   -95.6840048 Eh     change       -0.8922221E-07 Eh
   *** GEOMETRY OPTIMIZATION CONVERGED AFTER 45 ITERATIONS ***

 final structure:
================
60
 xtb: 6.7.1 (edcfbbe)
C            1.53347308744160       -2.62879610480080        1.10959308646765
C            0.43463953528478       -1.79140649318187        1.08028120223464
C            0.57663524856565       -0.45156367809407        0.70038130840551
C           -0.57657076736194        0.45099307634664        0.70067643348273
C           -0.43466943079705        1.79046680100659        1.08190408809775
C           -1.53352056683986        2.62781200269418        1.11179467666563
C           -2.78733685691152        2.16466978734548        0.75577713380352
C           -2.93689466416383        0.83559910138239        0.34853548664591
N           -4.19121112190635        0.33821634767124       -0.00649389461454
C           -5.19246703843403        1.00305224646910       -0.70035472233335
C           -5.16156690591541        2.22605464350120       -1.34378004844379
C           -6.31441774613987        2.64966940483962       -1.99869226512739
C           -7.46031782505590        1.86082313121172       -2.02039170632958
C           -7.48971135849638        0.61829054462824       -1.41255642976885
C           -6.34563227098635        0.17102861987007       -0.75313925230504
C           -6.01401000272102       -1.03863965379021       -0.08051840584614
C           -6.67159030305351       -2.24096789214195        0.21937702420141
C           -5.95624062213922       -3.19803440482312        0.92086013844421
C           -4.64140696832503       -2.95423870360551        1.30180218536669
N           -3.99749594840253       -1.81543170066208        1.02146641721395
C           -4.66820121641051       -0.90194964425214        0.35291664908024
C           -1.83544946511263       -0.01134964138922        0.33198101503576
C            1.83559928360941        0.01112740661870        0.33242641159067
C            2.93703427614866       -0.83585088823819        0.34840333456775
N            4.19142758371082       -0.33813540592422       -0.00584628563118
C            5.19285281996833       -1.00229606885001       -0.70009571501670
C            5.16209757404510       -2.22467208541514       -1.34472422542899
C            6.31510673021396       -2.64766090833671       -1.99975664746654
C            7.46101286366738       -1.85880522631563       -2.02039449903834
C            7.49026016201271       -0.61685324747500       -1.41134857051487
C            6.34603122736201       -0.17022844330427       -0.75178907813604
C            6.01424122177677        1.03880414848091       -0.07808636645695
C            6.67171901499313        2.24083128086677        0.22314324749294
C            5.95619126902294        3.19722032980053        0.92536131239423
C            4.64125837739147        2.95305009843303        1.30572669566616
N            3.99748063140784        1.81452637091356        1.02412174405376
C            4.66832128571307        0.90168233778838        0.35486771843193
C            2.78737335731198       -2.16532206017996        0.75430828975795
H            1.41867019747591       -3.65388800795290        1.42995419486659
H           -0.53306241195806       -2.15908438427588        1.38487132077585
H            0.53295647220625        2.15786064848558        1.38707018998893
H           -1.41879508535282        3.65260360319176        1.43314227515742
H           -3.65065636367049        2.80677211627138        0.83051202319631
H           -4.26885004089471        2.83164989092497       -1.36399274192595
H           -6.31346928077522        3.60353671304499       -2.50310771108919
H           -8.33855359549493        2.22194500299609       -2.53515717714677
H           -8.37384447029863        0.00080596765550       -1.45056984373244
H           -7.69275308134688       -2.40838578181418       -0.08508503144937
H           -6.41133624004180       -4.14143974125593        1.18084557707364
H           -4.06753807917990       -3.68492868368242        1.85128883538351
H           -1.96627932561827       -1.03087740095089        0.00757527877069
H            1.96649768818329        1.03096310898893        0.00901423833148
H            4.26937585848082       -2.83023464273809       -1.36575230723057
H            6.31427180771571       -3.60103046261366       -2.50511343776325
H            8.33936751647884       -2.21941433934981       -2.53531783094741
H            8.37441163464337        0.00065687554484       -1.44855739742585
H            7.69295966625550        2.40856296630252       -0.08088965560208
H            6.41121206452278        4.14037791102848        1.18637927740465
H            4.06723849561721        3.68320461472014        1.85577244718667
H            3.65067167287360       -2.80750157083353        0.82863007883247

 projected vibrational frequencies (cm⁻¹)
eigval :       -0.00    -0.00    -0.00     0.00     0.00     0.00
eigval :       13.22    15.36    18.53    34.60    38.68    63.82
eigval :       70.29    88.31    90.23   109.71   109.78   125.72
eigval :      130.59   132.38   191.53   205.08   216.17   222.20
eigval :      236.76   256.05   258.48   286.89   294.07   320.24
eigval :      329.09   343.45   358.79   363.25   377.24   387.14
eigval :      416.93   419.62   422.69   426.97   431.78   445.48
eigval :      488.03   494.73   496.60   497.61   511.75   527.35
eigval :      547.20   565.08   565.31   573.77   596.59   603.06
eigval :      609.47   613.72   633.15   654.70   660.27   660.39
eigval :      663.97   672.31   675.10   679.47   703.97   704.60
eigval :      706.47   743.35   748.18   751.24   751.35   780.86
eigval :      799.39   800.77   801.26   805.23   839.46   843.29
eigval :      848.51   858.59   868.11   868.78   869.13   878.02
eigval :      879.82   891.59   895.29   900.39   901.99   902.14
eigval :      904.71   922.59   923.69   972.26   975.92   990.60
eigval :     1004.12  1005.87  1020.22  1065.22  1069.49  1080.20
eigval :     1086.34  1098.29  1100.68  1102.04  1120.06  1125.56
eigval :     1129.05  1133.95  1141.29  1161.30  1169.06  1182.48
eigval :     1184.89  1186.87  1195.03  1203.08  1209.14  1241.91
eigval :     1243.76  1254.60  1260.84  1267.09  1269.78  1276.93
eigval :     1284.68  1291.08  1300.12  1305.29  1325.80  1330.00
eigval :     1335.85  1342.76  1372.18  1374.46  1394.32  1396.48
eigval :     1397.82  1403.76  1410.88  1426.92  1432.07  1446.91
eigval :     1449.07  1450.77  1453.18  1467.32  1475.08  1483.96
eigval :     1507.12  1513.37  1524.33  1527.11  1553.23  1555.61
eigval :     1566.48  1586.65  3077.51  3078.19  3078.21  3078.79
eigval :     3080.49  3080.53  3084.15  3084.26  3088.04  3088.09
eigval :     3093.64  3093.66  3094.77  3096.19  3098.27  3098.54
eigval :     3100.37  3100.96  3104.62  3104.65  3113.43  3113.95

   temp. (K)  partition function   enthalpy   heat capacity  entropy
                                   cal/mol     cal/K/mol   cal/K/mol   J/K/mol
 298.15  VIB  0.159E+13            16656.829    110.135    101.362
         ROT  0.234E+08              888.752      2.981     36.701
         INT  0.371E+20            17545.581    113.115    138.064
         TR   0.104E+29             1481.254      4.968     44.414
         TOT                       19026.8350   118.0836   182.4779   763.4874

       T/K    H(0)-H(T)+PV         H(T)/Eh          T*S/Eh         G(T)/Eh
   ------------------------------------------------------------------------
    298.15    0.303212E-01    0.478157E+00    0.867011E-01    0.391456E+00
   ------------------------------------------------------------------------

         :::::::::::::::::::::::::::::::::::::::::::::::::::::
         ::                  THERMODYNAMIC                  ::
         :::::::::::::::::::::::::::::::::::::::::::::::::::::
         :: total free energy         -95.292548524655 Eh   ::
         ::.................................................::
         :: total energy              -95.684004756584 Eh   ::
         :: zero point energy           0.447836161664 Eh   ::
         :: G(RRHO) w/o ZPVE           -0.056379929735 Eh   ::
         :: G(RRHO) contrib.            0.391456231929 Eh   ::
         :::::::::::::::::::::::::::::::::::::::::::::::::::::

           -------------------------------------------------
          | TOTAL ENERGY              -95.684004756584 Eh   |
          | TOTAL ENTHALPY            -95.205847403334 Eh   |
          | TOTAL FREE ENERGY         -95.292548524655 Eh   |
          | GRADIENT NORM               0.000126796204 Eh/α |
           -------------------------------------------------

 * finished run on 2025/09/10 at 02:18:59.115
