   * xtb version 6.7.1 (edcfbbe) compiled by 'albert@albert-system' on 2024-07-22

   ID    Z sym.   atoms
    1    6 C      1-8, 10-19, 21-24, 26-35, 37, 38
    2    7 N      9, 20, 25, 36
    3    1 H      39-60

          program call               : xtb data2507/gas/CbBPCb/CbBPCb.xyz --gfn 2 --ohess vtight --parallel 40 --molden --ceasefiles --namespace data2507/gas/CbBPCb/CbBPCb_gas_S0_preOpt
          :  Hamiltonian                  GFN2-xTB          :
 * total energy  :   -95.7707176 Eh     change       -0.3031957E-08 Eh
 * total energy  :   -95.7842319 Eh     change       -0.1351431E-01 Eh
 * total energy  :   -95.7873012 Eh     change       -0.3069349E-02 Eh
 * total energy  :   -95.7879344 Eh     change       -0.6331365E-03 Eh
 * total energy  :   -95.7885348 Eh     change       -0.6004711E-03 Eh
 * total energy  :   -95.7888049 Eh     change       -0.2701132E-03 Eh
 * total energy  :   -95.7890064 Eh     change       -0.2014176E-03 Eh
 * total energy  :   -95.7891322 Eh     change       -0.1258600E-03 Eh
 * total energy  :   -95.7891931 Eh     change       -0.6084702E-04 Eh
 * total energy  :   -95.7892261 Eh     change       -0.3306804E-04 Eh
 * total energy  :   -95.7895319 Eh     change       -0.8908450E-05 Eh
 * total energy  :   -95.7895379 Eh     change       -0.5968307E-05 Eh
 * total energy  :   -95.7895413 Eh     change       -0.3482863E-05 Eh
 * total energy  :   -95.7895436 Eh     change       -0.2283939E-05 Eh
 * total energy  :   -95.7895451 Eh     change       -0.1515246E-05 Eh
 * total energy  :   -95.7895461 Eh     change       -0.9713897E-06 Eh
 * total energy  :   -95.7895468 Eh     change       -0.6582340E-06 Eh
 * total energy  :   -95.7895473 Eh     change       -0.5208621E-06 Eh
 * total energy  :   -95.7895473 Eh     change       -0.4410509E-08 Eh
   *** GEOMETRY OPTIMIZATION CONVERGED AFTER 44 ITERATIONS ***

 final structure:
================
60
 xtb: 6.7.1 (edcfbbe)
C            1.65349888425869        1.36299246996574       -2.55231993826907
C            0.52613005463749        1.37587631702777       -1.75234074087286
C            0.59830175175799        0.95050408245165       -0.42773402749531
C           -0.59830087567016        0.95051445950136        0.42771593673618
C           -0.52613074185263        1.37592458379597        1.75231050777410
C           -1.65350058220569        1.36306433845599        2.55228858134982
C           -2.86713931914276        0.92907725693609        2.05055122237589
C           -2.95345259158910        0.52141603619969        0.72296860561077
N           -4.17453125345369        0.07113076216116        0.19628584309999
C           -5.42610038767857        0.61959075489412        0.41418274651353
C           -5.77888638180858        1.79301185866786        1.06571185046154
C           -7.11859089457303        2.12876140680513        1.11589658603663
C           -8.09440658550384        1.32818981145542        0.52654752213201
C           -7.75002067664728        0.17619299833680       -0.15104570596280
C           -6.40936348633354       -0.18010679007288       -0.21630691799166
C           -5.70853508596581       -1.25826465952730       -0.85002818602453
C           -6.06075077808154       -2.36365274026104       -1.60812725544083
C           -5.03546687381231       -3.18738351585863       -2.04547196219519
C           -3.71808039158546       -2.88382700026566       -1.71375482677968
N           -3.35037201839630       -1.83749047134626       -0.99275850663140
C           -4.33031846300691       -1.05209521133039       -0.57851872915607
C           -1.82165278310311        0.53013962504244       -0.08132436104951
C            1.82165382291078        0.53014279580813        0.08131657328846
C            2.95345336289504        0.52139846161579       -0.72297665351498
N            4.17453121924903        0.07112197414596       -0.19628417232424
C            5.42610157548753        0.61957233195884       -0.41419709894610
C            5.77888970590188        1.79297779003641       -1.06575320896266
C            7.11859483490107        2.12872331270021       -1.11594616618383
C            8.09440927314154        1.32816179228667       -0.52658147876006
C            7.75002165627070        0.17617968170583        0.15103565473434
C            6.40936354073133       -0.18011406081483        0.21630831168246
C            5.70853283366444       -1.25825373775248        0.85005828668360
C            6.06074630645139       -2.36362453487498        1.60818380749830
C            5.03546220910677       -3.18734912412141        2.04553841727998
C            3.71807726348662       -2.88380130678275        1.71380927668712
N            3.35036926844938       -1.83747506664451        0.99279831270320
C            4.33031627301261       -1.05208864145888        0.57854369367841
C            2.86713926743692        0.92902466928039       -2.05057011312359
H            1.58696018383965        1.68430469779105       -3.58147147516825
H           -0.41380213241003        1.72634568610018       -2.15130344656977
H            0.41380523480737        1.72638820478676        2.15126945322688
H           -1.58695661288428        1.68437839143037        3.58143904638344
H           -3.73696330108277        0.88335691130549        2.68781678330097
H           -5.03236640788863        2.43604949841192        1.50564383238869
H           -7.41529440151542        3.03661290616482        1.62007977808735
H           -9.13088938367453        1.62357551781690        0.59200934219195
H           -8.50138267120860       -0.43511935906778       -0.62782450207464
H           -7.09301171019009       -2.57457569125796       -1.84740892055268
H           -5.24884649082653       -4.06172727038040       -2.64025848979223
H           -2.90517099463804       -3.51525060066682       -2.04633780701167
H           -1.89435085702409        0.17230985100704       -1.09542868898425
H            1.89435023898146        0.17233087879089        1.09542732623905
H            5.03237052245803        2.43600793991476       -1.50569757104548
H            7.41530023669320        3.03656156484387       -1.62015224439987
H            9.13089310775536        1.62354189167020       -0.59205381478978
H            8.50138255287249       -0.43512355397870        0.62782801201377
H            7.09300829059553       -2.57454869764680        1.84746183555537
H            5.24883959197371       -4.06167638822852        2.64035094989713
H            2.90516379657372       -3.51519966074799        2.04643151185361
H            3.73696527345486        0.88329457181134       -2.68783259739013

          :  Hamiltonian                  GFN2-xTB          :
         :: gradient norm              0.000053178576 Eh/a0 ::
         :: HOMO-LUMO gap              2.974309284925 eV    ::
         :: SCC energy               -97.554158836026 Eh    ::
         :: -> dispersion             -0.080907037563 Eh    ::
         :: repulsion energy           1.764611535199 Eh    ::

    * Orbital Energies and Occupations

         #    Occupation            Energy/Eh            Energy/eV
      -------------------------------------------------------------
         1        2.0000           -0.6808390             -18.5266
       ...           ...                  ...                  ...
        77        2.0000           -0.4187654             -11.3952
        78        2.0000           -0.4164449             -11.3320
        79        2.0000           -0.4163217             -11.3287
        80        2.0000           -0.4156958             -11.3117
        81        2.0000           -0.4082429             -11.1089
        82        2.0000           -0.4079876             -11.1019
        83        2.0000           -0.3907574             -10.6331
        84        2.0000           -0.3850258             -10.4771
        85        2.0000           -0.3850166             -10.4768
        86        2.0000           -0.3686031             -10.0302
        87        2.0000           -0.3678671             -10.0102
        88        2.0000           -0.3660011              -9.9594
        89        2.0000           -0.3658929              -9.9565 (HOMO)
        90                         -0.2565891              -6.9821 (LUMO)
        91                         -0.2564678              -6.9788
        92                         -0.2485428              -6.7632
        93                         -0.2337498              -6.3607
        94                         -0.2330473              -6.3415
        95                         -0.2280216              -6.2048
        96                         -0.2278437              -6.1999
        97                         -0.2073558              -5.6424
        98                         -0.1944947              -5.2925
        99                         -0.1944930              -5.2924
       100                         -0.1937313              -5.2717
       ...                                ...                  ...
       174                          0.7446308              20.2624
      -------------------------------------------------------------
                  HL-Gap            0.1093039 Eh            2.9743 eV

     #   Z          covCN         q      C6AA      α(0)
     1   6 C        2.919    -0.029    28.732     8.790
     2   6 C        2.924    -0.038    28.933     8.821
     3   6 C        2.978     0.016    27.643     8.624
     4   6 C        2.978     0.016    27.643     8.624
     5   6 C        2.924    -0.038    28.933     8.821
     6   6 C        2.919    -0.029    28.732     8.790
     7   6 C        2.922    -0.046    29.135     8.852
     8   6 C        2.912     0.068    26.473     8.437
     9   7 N        2.800    -0.045    22.104     6.983
    10   6 C        3.082     0.047    26.847     8.494
    11   6 C        2.910    -0.049    29.210     8.862
    12   6 C        2.924    -0.032    28.799     8.801
    13   6 C        2.920    -0.040    28.983     8.828
    14   6 C        2.912    -0.032    28.793     8.799
    15   6 C        3.066    -0.018    28.385     8.736
    16   6 C        3.066    -0.029    28.657     8.778
    17   6 C        2.919    -0.018    28.448     8.746
    18   6 C        2.918    -0.053    29.318     8.879
    19   6 C        2.931     0.058    26.708     8.475
    20   7 N        1.832    -0.256    27.503     7.772
    21   6 C        3.095     0.135    24.939     8.185
    22   6 C        2.929    -0.043    29.066     8.841
    23   6 C        2.929    -0.043    29.066     8.841
    24   6 C        2.912     0.068    26.473     8.437
    25   7 N        2.800    -0.045    22.104     6.983
    26   6 C        3.082     0.047    26.847     8.494
    27   6 C        2.910    -0.049    29.210     8.862
    28   6 C        2.924    -0.032    28.799     8.801
    29   6 C        2.920    -0.040    28.983     8.828
    30   6 C        2.912    -0.032    28.793     8.799
    31   6 C        3.066    -0.018    28.385     8.736
    32   6 C        3.066    -0.029    28.657     8.778
    33   6 C        2.919    -0.018    28.448     8.746
    34   6 C        2.918    -0.053    29.318     8.879
    35   6 C        2.931     0.058    26.708     8.475
    36   7 N        1.832    -0.256    27.503     7.772
    37   6 C        3.095     0.135    24.939     8.185
    38   6 C        2.922    -0.046    29.135     8.852
    39   1 H        0.926     0.036     2.502     2.473
    40   1 H        0.926     0.037     2.484     2.465
    41   1 H        0.926     0.037     2.484     2.465
    42   1 H        0.926     0.036     2.502     2.473
    43   1 H        0.926     0.040     2.451     2.448
    44   1 H        0.926     0.033     2.537     2.491
    45   1 H        0.926     0.032     2.555     2.499
    46   1 H        0.926     0.031     2.576     2.510
    47   1 H        0.926     0.033     2.548     2.496
    48   1 H        0.926     0.032     2.552     2.498
    49   1 H        0.926     0.031     2.567     2.506
    50   1 H        0.925     0.036     2.497     2.471
    51   1 H        0.926     0.058     2.223     2.331
    52   1 H        0.926     0.058     2.223     2.331
    53   1 H        0.926     0.033     2.537     2.491
    54   1 H        0.926     0.032     2.555     2.499
    55   1 H        0.926     0.031     2.576     2.510
    56   1 H        0.926     0.033     2.548     2.496
    57   1 H        0.926     0.032     2.552     2.498
    58   1 H        0.926     0.031     2.567     2.506
    59   1 H        0.925     0.036     2.497     2.471
    60   1 H        0.926     0.040     2.451     2.448

molecular dipole:
                 x           y           z       tot (Debye)
 q only:        0.000       0.625      -0.000
   full:        0.000       0.405      -0.000       1.029

 projected vibrational frequencies (cm⁻¹)
eigval :       -0.00    -0.00    -0.00     0.00     0.00     0.00
eigval :       11.47    14.48    21.28    34.59    42.65    62.02
eigval :       77.90    87.84    92.56   102.79   115.57   135.04
eigval :      139.14   148.95   189.45   214.65   222.72   232.84
eigval :      247.57   273.62   277.21   282.27   285.79   326.46
eigval :      328.74   350.54   382.45   387.57   394.62   397.65
eigval :      424.45   424.58   436.50   438.41   439.60   444.23
eigval :      515.21   515.98   524.32   533.90   547.85   548.19
eigval :      566.78   571.34   591.47   591.96   601.76   609.27
eigval :      615.22   616.41   653.39   668.65   675.28   684.13
eigval :      687.94   692.75   721.40   724.58   726.50   761.97
eigval :      768.23   774.83   775.18   789.31   795.03   795.50
eigval :      811.28   811.85   871.36   873.49   874.03   878.71
eigval :      898.90   899.18   903.95   904.00   907.39   907.53
eigval :      911.55   911.58   913.28   916.15   922.71   923.01
eigval :      926.66   932.21   933.11   987.33  1000.62  1008.69
eigval :     1020.33  1021.85  1072.35  1072.35  1088.76  1089.04
eigval :     1095.47  1121.02  1122.14  1130.73  1131.98  1150.73
eigval :     1152.05  1171.62  1177.64  1179.82  1180.17  1190.95
eigval :     1191.74  1218.67  1220.84  1227.06  1241.19  1261.01
eigval :     1263.20  1284.80  1287.22  1292.96  1300.40  1301.59
eigval :     1318.85  1323.84  1340.27  1341.74  1343.26  1349.37
eigval :     1356.78  1357.56  1396.59  1402.80  1413.99  1426.41
eigval :     1426.86  1455.70  1468.77  1469.16  1472.62  1483.71
eigval :     1484.00  1491.26  1562.20  1562.74  1571.75  1573.81
eigval :     1574.61  1579.90  1590.69  1592.83  1594.09  1595.34
eigval :     1613.97  1614.35  3063.01  3063.07  3072.71  3072.73
eigval :     3078.08  3078.13  3078.71  3078.73  3084.34  3084.35
eigval :     3091.27  3091.58  3093.20  3093.24  3097.08  3097.14
eigval :     3098.16  3098.25  3099.51  3099.60  3116.95  3117.54

   temp. (K)  partition function   enthalpy   heat capacity  entropy
                                   cal/mol     cal/K/mol   cal/K/mol   J/K/mol
 298.15  VIB  0.737E+12            16092.041    106.480     98.137
         ROT  0.222E+08              888.752      2.981     36.596
         INT  0.164E+20            16980.794    109.460    134.733
         TR   0.104E+29             1481.254      4.968     44.414
         TOT                       18462.0475   114.4286   179.1467   749.5499

       T/K    H(0)-H(T)+PV         H(T)/Eh          T*S/Eh         G(T)/Eh
   ------------------------------------------------------------------------
    298.15    0.294211E-01    0.485779E+00    0.851184E-01    0.400661E+00
   ------------------------------------------------------------------------

         :::::::::::::::::::::::::::::::::::::::::::::::::::::
         ::                  THERMODYNAMIC                  ::
         :::::::::::::::::::::::::::::::::::::::::::::::::::::
         :: total free energy         -95.388886642997 Eh   ::
         ::.................................................::
         :: total energy              -95.789547300826 Eh   ::
         :: zero point energy           0.456357897532 Eh   ::
         :: G(RRHO) w/o ZPVE           -0.055697239702 Eh   ::
         :: G(RRHO) contrib.            0.400660657830 Eh   ::
         :::::::::::::::::::::::::::::::::::::::::::::::::::::

           -------------------------------------------------
          | TOTAL ENERGY              -95.789547300826 Eh   |
          | TOTAL ENTHALPY            -95.303768257911 Eh   |
          | TOTAL FREE ENERGY         -95.388886642997 Eh   |
          | GRADIENT NORM               0.000053175784 Eh/α |
          | HOMO-LUMO GAP               2.974309243777 eV   |
           -------------------------------------------------

 * finished run on 2025/09/10 at 02:16:23.567
