   * xtb version 6.7.1 (edcfbbe) compiled by 'albert@albert-system' on 2024-07-22

   ID    Z sym.   atoms
    1    6 C      1-8, 10-19, 21-24, 26-35, 37, 38
    2    7 N      9, 20, 25, 36
    3    1 H      39-60

          program call               : xtb data2507/gas/CbBPCb/CbBPCb_gas_S0_crest.xyz --gfn 2 --ohess vtight --parallel 40 --molden --ceasefiles --namespace data2507/gas/CbBPCb/CbBPCb_gas_S0_finalOpt
          :  Hamiltonian                  GFN2-xTB          :
 * total energy  :   -95.7914176 Eh     change       -0.2771316E-08 Eh
 * total energy  :   -95.7914186 Eh     change       -0.1087728E-05 Eh
 * total energy  :   -95.7914200 Eh     change       -0.1337888E-05 Eh
 * total energy  :   -95.7914217 Eh     change       -0.1760196E-05 Eh
 * total energy  :   -95.7914233 Eh     change       -0.1592410E-05 Eh
 * total energy  :   -95.7914242 Eh     change       -0.8887998E-06 Eh
 * total energy  :   -95.7914247 Eh     change       -0.5136465E-06 Eh
 * total energy  :   -95.7914252 Eh     change       -0.4602193E-06 Eh
 * total energy  :   -95.7914257 Eh     change       -0.5508720E-06 Eh
 * total energy  :   -95.7914262 Eh     change       -0.4444219E-06 Eh
 * total energy  :   -95.7914263 Eh     change       -0.1289774E-06 Eh
 * total energy  :   -95.7914264 Eh     change       -0.4616682E-07 Eh
   *** GEOMETRY OPTIMIZATION CONVERGED AFTER 12 ITERATIONS ***

 final structure:
================
60
 xtb: 6.7.1 (edcfbbe)
C            1.55818941263045       -2.60427484796985        1.20191298001931
C            0.45242377563303       -1.77525698403573        1.16695229427837
C            0.58191195344351       -0.45007538408747        0.75565346134668
C           -0.58174136422118        0.44832303004662        0.75604484047634
C           -0.45223611759348        1.77299164276108        1.16900122932693
C           -1.55788023906842        2.60214414883401        1.20451961390798
C           -2.80328832526167        2.13334511151358        0.82583464044292
C           -2.93592255473816        0.81971763757897        0.38713709046481
N           -4.19026065715964        0.31741086220251        0.00580063923642
C           -5.15844412494720        0.96863285033954       -0.73769659278208
C           -5.09653063842493        2.18536222489885       -1.40213138915438
C           -6.21275253741930        2.59674248938275       -2.10547763582182
C           -7.36748280097640        1.81955377889399       -2.16194490014722
C           -7.42694223641703        0.59357370631294       -1.53091458057262
C           -6.31620252794572        0.15847602134534       -0.81980993649194
C           -6.02168543367876       -1.04266313289508       -0.09473016787376
C           -6.70101482262491       -2.21139721970615        0.20971507802890
C           -6.02746904334704       -3.16047740184020        0.96255438028410
C           -4.72313938167070       -2.91078166911532        1.37868309194282
N           -4.04784257694660       -1.80620042579071        1.10524621811927
C           -4.69239064495794       -0.90298568099779        0.38458115681987
C           -1.82918453319359       -0.01756605988150        0.35761791398351
C            1.82942215303849        0.01642155718391        0.35815585675361
C            2.93629499942851       -0.82070820419438        0.38710992083753
N            4.19064144616150       -0.31770512732026        0.00673556201072
C            5.15929723746051       -0.96786525914119       -0.73709461491096
C            5.09822650718173       -2.18417614816717       -1.40237590372530
C            6.21479270044129       -2.59439724684650       -2.10585772993634
C            7.36905361665345       -1.81646813457902       -2.16167272288824
C            7.42768808554490       -0.59089740575880       -1.52977512338059
C            6.31661219536033       -0.15699571381706       -0.81846898913244
C            6.02133695378426        1.04345702207114       -0.09256590245353
C            6.70001844795845        2.21231397471753        0.21285283962765
C            6.02586893354269        3.16048896309964        0.96629235367330
C            4.72160950919932        2.90979874920286        1.38203844301454
N            4.04693851181011        1.80506340807163        1.10768945903330
C            4.69205420155757        0.90270740459031        0.38644984510513
C            2.80368771870623       -2.13484523672578        0.82429319706500
H            1.45529418767326       -3.62428545295358        1.54211427467772
H           -0.51055301315365       -2.14242121630877        1.48778061657892
H            0.51067590440154        2.13963346860066        1.49062097384149
H           -1.45496454754567        3.62172935707778        1.54598714978050
H           -3.67105568126066        2.77165285003741        0.89211742432690
H           -4.20060698566436        2.78646172399733       -1.38814778689416
H           -6.18700443888390        3.54142536549051       -2.62826223180744
H           -8.21980512287804        2.17905308809181       -2.71882780026984
H           -8.31237022470985       -0.02121518795633       -1.59096367783070
H           -7.71484316897066       -2.37531586212688       -0.12570527671417
H           -6.50464358609914       -4.09048849476345        1.22923168650528
H           -4.18337983257447       -3.64098476819018        1.96696638313688
H           -1.94854471204479       -1.03349036514872        0.01803437795787
H            1.94873082197895        1.03274594306293        0.01976307088994
H            4.20268318264628       -2.78584917029017       -1.38895882550292
H            6.18969796035067       -3.53876546251806       -2.62924002025699
H            8.22164774629819       -2.17504382706224       -2.71873558523387
H            8.31272286930551        0.02450711705677       -1.58933356763738
H            7.71380661505516        2.37700318693602       -0.12230301854936
H            6.50251717395962        4.09054901840687        1.23373160491264
H            4.18137036216303        3.63928607295249        1.97077095868640
H            3.67151605240985       -2.77309991186950        0.89025347177460

          :  Hamiltonian                  GFN2-xTB          :
         :: gradient norm              0.000023375807 Eh/a0 ::
         :: HOMO-LUMO gap              2.999031110881 eV    ::
         :: SCC energy               -97.556021834359 Eh    ::
         :: -> dispersion             -0.081544553970 Eh    ::
         :: repulsion energy           1.764595466408 Eh    ::

    * Orbital Energies and Occupations

         #    Occupation            Energy/Eh            Energy/eV
      -------------------------------------------------------------
         1        2.0000           -0.6814502             -18.5432
       ...           ...                  ...                  ...
        77        2.0000           -0.4196857             -11.4202
        78        2.0000           -0.4190705             -11.4035
        79        2.0000           -0.4170172             -11.3476
        80        2.0000           -0.4145095             -11.2794
        81        2.0000           -0.4081376             -11.1060
        82        2.0000           -0.4070331             -11.0759
        83        2.0000           -0.3905287             -10.6268
        84        2.0000           -0.3858000             -10.4982
        85        2.0000           -0.3857539             -10.4969
        86        2.0000           -0.3688820             -10.0378
        87        2.0000           -0.3683609             -10.0236
        88        2.0000           -0.3682304             -10.0201
        89        2.0000           -0.3677897             -10.0081 (HOMO)
        90                         -0.2575773              -7.0090 (LUMO)
        91                         -0.2574745              -7.0062
        92                         -0.2486109              -6.7650
        93                         -0.2342704              -6.3748
        94                         -0.2337623              -6.3610
        95                         -0.2280053              -6.2043
        96                         -0.2276347              -6.1943
        97                         -0.2068797              -5.6295
        98                         -0.1953918              -5.3169
        99                         -0.1953779              -5.3165
       100                         -0.1940200              -5.2796
       ...                                ...                  ...
       174                          0.7439595              20.2442
      -------------------------------------------------------------
                  HL-Gap            0.1102123 Eh            2.9990 eV

     #   Z          covCN         q      C6AA      α(0)
     1   6 C        2.919    -0.029    28.732     8.790
     2   6 C        2.924    -0.038    28.955     8.824
     3   6 C        2.978     0.015    27.677     8.630
     4   6 C        2.978     0.015    27.677     8.630
     5   6 C        2.924    -0.038    28.955     8.824
     6   6 C        2.919    -0.029    28.732     8.790
     7   6 C        2.921    -0.046    29.143     8.853
     8   6 C        2.913     0.067    26.492     8.440
     9   7 N        2.801    -0.045    22.100     6.982
    10   6 C        3.082     0.048    26.842     8.493
    11   6 C        2.910    -0.048    29.204     8.861
    12   6 C        2.924    -0.032    28.794     8.800
    13   6 C        2.920    -0.039    28.980     8.828
    14   6 C        2.912    -0.032    28.791     8.799
    15   6 C        3.066    -0.018    28.389     8.737
    16   6 C        3.067    -0.029    28.651     8.777
    17   6 C        2.919    -0.017    28.443     8.746
    18   6 C        2.918    -0.053    29.324     8.880
    19   6 C        2.931     0.057    26.713     8.476
    20   7 N        1.832    -0.258    27.568     7.781
    21   6 C        3.095     0.136    24.935     8.184
    22   6 C        2.929    -0.044    29.092     8.845
    23   6 C        2.929    -0.044    29.092     8.845
    24   6 C        2.913     0.067    26.492     8.440
    25   7 N        2.801    -0.045    22.100     6.982
    26   6 C        3.082     0.048    26.842     8.493
    27   6 C        2.910    -0.048    29.204     8.861
    28   6 C        2.924    -0.032    28.794     8.800
    29   6 C        2.920    -0.039    28.980     8.828
    30   6 C        2.912    -0.032    28.791     8.799
    31   6 C        3.066    -0.018    28.389     8.737
    32   6 C        3.066    -0.029    28.651     8.777
    33   6 C        2.919    -0.017    28.443     8.746
    34   6 C        2.918    -0.053    29.324     8.880
    35   6 C        2.931     0.057    26.713     8.476
    36   7 N        1.832    -0.258    27.568     7.781
    37   6 C        3.095     0.136    24.935     8.184
    38   6 C        2.921    -0.046    29.143     8.853
    39   1 H        0.926     0.036     2.496     2.471
    40   1 H        0.926     0.047     2.359     2.402
    41   1 H        0.926     0.047     2.359     2.402
    42   1 H        0.926     0.036     2.496     2.471
    43   1 H        0.926     0.039     2.459     2.452
    44   1 H        0.926     0.034     2.529     2.487
    45   1 H        0.926     0.033     2.550     2.497
    46   1 H        0.926     0.031     2.574     2.509
    47   1 H        0.926     0.033     2.547     2.496
    48   1 H        0.926     0.033     2.550     2.497
    49   1 H        0.926     0.031     2.569     2.506
    50   1 H        0.925     0.034     2.525     2.485
    51   1 H        0.926     0.056     2.250     2.346
    52   1 H        0.926     0.056     2.250     2.346
    53   1 H        0.926     0.034     2.528     2.487
    54   1 H        0.926     0.033     2.550     2.497
    55   1 H        0.926     0.031     2.574     2.509
    56   1 H        0.926     0.033     2.547     2.496
    57   1 H        0.926     0.033     2.550     2.497
    58   1 H        0.926     0.031     2.569     2.506
    59   1 H        0.925     0.034     2.525     2.485
    60   1 H        0.926     0.039     2.459     2.452

molecular dipole:
                 x           y           z       tot (Debye)
 q only:        0.000       0.000      -0.227
   full:        0.000       0.000      -0.388       0.987

 projected vibrational frequencies (cm⁻¹)
eigval :       -0.00    -0.00     0.00     0.00     0.00     0.00
eigval :       13.69    15.86    19.76    35.96    45.13    65.62
eigval :       72.55    91.94    95.45   111.81   112.98   129.72
eigval :      139.13   141.34   196.43   212.80   222.10   228.89
eigval :      240.14   277.41   279.47   288.42   292.02   324.55
eigval :      328.39   350.06   382.58   390.72   395.36   395.64
eigval :      424.89   424.92   432.68   439.15   439.64   459.65
eigval :      514.38   516.07   523.41   532.81   545.62   548.28
eigval :      549.75   576.27   591.63   592.14   604.60   610.94
eigval :      619.21   625.66   644.94   665.09   677.28   684.05
eigval :      688.42   693.01   720.99   724.61   726.77   762.19
eigval :      768.94   774.94   775.06   790.08   794.73   795.27
eigval :      811.84   813.87   871.26   872.93   874.04   878.30
eigval :      900.41   901.03   902.88   902.89   908.86   909.82
eigval :      911.51   911.54   913.42   916.54   923.55   923.77
eigval :      926.73   932.69   933.62   987.33  1000.80  1008.86
eigval :     1020.42  1022.18  1072.21  1072.23  1089.28  1089.54
eigval :     1095.77  1121.03  1122.52  1130.54  1132.28  1150.84
eigval :     1152.31  1172.58  1177.72  1179.90  1180.39  1191.21
eigval :     1192.75  1219.33  1221.39  1227.48  1241.99  1261.18
eigval :     1265.62  1284.77  1287.23  1293.10  1300.78  1301.89
eigval :     1319.09  1324.19  1341.06  1342.54  1343.45  1349.03
eigval :     1356.71  1357.54  1397.18  1403.06  1414.12  1426.53
eigval :     1426.99  1456.87  1468.39  1469.41  1473.08  1483.72
eigval :     1484.10  1491.23  1561.71  1561.74  1571.53  1573.60
eigval :     1574.54  1578.97  1590.31  1593.18  1594.31  1595.55
eigval :     1614.15  1614.53  3059.96  3059.98  3073.30  3073.33
eigval :     3078.80  3078.81  3079.37  3079.41  3084.60  3084.61
eigval :     3092.99  3093.13  3094.96  3095.21  3097.35  3097.37
eigval :     3098.89  3099.08  3100.02  3100.14  3116.35  3116.92

   temp. (K)  partition function   enthalpy   heat capacity  entropy
                                   cal/mol     cal/K/mol   cal/K/mol   J/K/mol
 298.15  VIB  0.529E+12            16070.342    106.538     97.820
         ROT  0.235E+08              888.752      2.981     36.709
         INT  0.124E+20            16959.095    109.519    134.529
         TR   0.104E+29             1481.254      4.968     44.414
         TOT                       18440.3485   114.4873   178.9431   748.6980

       T/K    H(0)-H(T)+PV         H(T)/Eh          T*S/Eh         G(T)/Eh
   ------------------------------------------------------------------------
    298.15    0.293866E-01    0.485863E+00    0.850216E-01    0.400841E+00
   ------------------------------------------------------------------------

         :::::::::::::::::::::::::::::::::::::::::::::::::::::
         ::                  THERMODYNAMIC                  ::
         :::::::::::::::::::::::::::::::::::::::::::::::::::::
         :: total free energy         -95.390585237355 Eh   ::
         ::.................................................::
         :: total energy              -95.791426367951 Eh   ::
         :: zero point energy           0.456476214551 Eh   ::
         :: G(RRHO) w/o ZPVE           -0.055635083954 Eh   ::
         :: G(RRHO) contrib.            0.400841130597 Eh   ::
         :::::::::::::::::::::::::::::::::::::::::::::::::::::

           -------------------------------------------------
          | TOTAL ENERGY              -95.791426367951 Eh   |
          | TOTAL ENTHALPY            -95.305563587606 Eh   |
          | TOTAL FREE ENERGY         -95.390585237355 Eh   |
          | GRADIENT NORM               0.000023386160 Eh/α |
          | HOMO-LUMO GAP               2.999030677410 eV   |
           -------------------------------------------------

 * finished run on 2025/09/10 at 02:18:48.980
