   * xtb version 6.7.1 (edcfbbe) compiled by 'albert@albert-system' on 2024-07-22

   ID    Z sym.   atoms
    1    6 C      1-4, 6, 8-11, 13-26
    2    7 N      5, 12
    3    8 O      7, 28, 29
    4   16 S      27
    5    1 H      30-49

          program call               : xtb data2507/toluene/6-Cz-Sac/6-Cz-Sac_toluene_T1_crest.xyz --gfn 2 --uhf 2 --gbsa toluene --ohess vtight --parallel 40 --molden --ceasefiles --namespace data2507/toluene/6-Cz-Sac/6-Cz-Sac_toluene_T1_finalOpt
      * Solvation model:               GBSA
        Solvent                        toluene
        Solvent mass                       9.2140E+01 g/mol
          :  Hamiltonian                  GFN2-xTB          :
 * total energy  :   -80.7523251 Eh     change       -0.1546610E-08 Eh
 * total energy  :   -80.7525435 Eh     change       -0.2183475E-03 Eh
 * total energy  :   -80.7526290 Eh     change       -0.8552759E-04 Eh
 * total energy  :   -80.7526444 Eh     change       -0.1541280E-04 Eh
 * total energy  :   -80.7526560 Eh     change       -0.1154863E-04 Eh
 * total energy  :   -80.7526598 Eh     change       -0.3838731E-05 Eh
 * total energy  :   -80.7526616 Eh     change       -0.1804219E-05 Eh
 * total energy  :   -80.7526626 Eh     change       -0.1032673E-05 Eh
 * total energy  :   -80.7526635 Eh     change       -0.8986616E-06 Eh
 * total energy  :   -80.7526646 Eh     change       -0.1034397E-05 Eh
 * total energy  :   -80.7526653 Eh     change       -0.7714697E-06 Eh
 * total energy  :   -80.7526657 Eh     change       -0.3545449E-06 Eh
 * total energy  :   -80.7526659 Eh     change       -0.2108332E-06 Eh
 * total energy  :   -80.7526661 Eh     change       -0.1656933E-06 Eh
 * total energy  :   -80.7526660 Eh     change        0.3600961E-07 Eh
 * total energy  :   -80.7526662 Eh     change       -0.1192322E-06 Eh
 * total energy  :   -80.7526661 Eh     change        0.2613591E-07 Eh
 * total energy  :   -80.7526662 Eh     change       -0.7449503E-07 Eh
   *** GEOMETRY OPTIMIZATION CONVERGED AFTER 18 ITERATIONS ***

 final structure:
================
49
 xtb: 6.7.1 (edcfbbe)
C            5.88213712738402       -0.09359152842436       -1.35884380679095
C            5.19700418001996       -0.01839113054303        0.00966478162220
C            5.56855598061834        1.29924417511197        0.69247862283533
C            5.62403303136659       -1.19456567862075        0.89819716162550
N            3.74395915932793       -0.06186843142006       -0.17667957916718
C            3.09601018109062       -1.14341780450228       -0.79871738202087
O            3.70376492996593       -2.07525878155222       -1.35313260310279
C            1.68741278714876       -1.01413087394976       -0.68297382449557
C            0.69842376565624       -1.87926010997389       -1.22765500247862
C           -0.61857639312522       -1.59532829523178       -1.05250681425780
C           -1.04192487399187       -0.44192745311593       -0.30906996690361
N           -2.38905409929489       -0.16251822271089       -0.16157965330447
C           -2.97505472100618        1.07724602215493       -0.31518836028003
C           -2.40004947333846        2.28658663782489       -0.69696131262511
C           -3.22786832186093        3.39185172750294       -0.79487844996212
C           -4.59342391452405        3.29887052347810       -0.53569510055181
C           -5.18024825981945        2.08678475711061       -0.18996885345686
C           -4.37280793165482        0.96929474890461       -0.08633543314311
C           -4.62836406528334       -0.41782458073688        0.21565031885947
C           -5.77062688637047       -1.13156996146693        0.52654953273309
C           -5.64995181082414       -2.48965662565191        0.80017715886750
C           -4.40847652069579       -3.12129937527937        0.78681837638206
C           -3.25132834865675       -2.42647152130619        0.48003786641219
C           -3.36993243286895       -1.07501508149331        0.16496255049877
C           -0.06986713560347        0.40206246171430        0.26935808505839
C            1.24323026490595        0.10286838907139        0.08620519454860
S            2.68131925874620        0.88805079416952        0.73008362438059
O            2.76208772735013        2.26932025293121        0.32431391835647
O            2.84708960787870        0.65020746689287        2.14596566360716
H            5.60950993981587       -1.01959447245543       -1.85894302596551
H            5.57004383677626        0.74410320864303       -1.97864785864302
H            6.96025258742501       -0.06173548323805       -1.22992426788269
H            5.10564706978103        1.36329442566705        1.67405142609778
H            5.22599412399808        2.14395377104131        0.10004266976536
H            6.64843135998871        1.35380389126319        0.80443661092800
H            5.09749992843239       -1.14447254937038        1.84973964450542
H            5.37921565942818       -2.13328066588713        0.40640085961324
H            6.69464398221396       -1.15542764719625        1.07838854404927
H            1.02756592803552       -2.73053648107359       -1.80279279304457
H           -1.37572097507074       -2.19735248269674       -1.53046885300667
H           -1.34797810897834        2.35993610403256       -0.92365537054967
H           -2.80566808430732        4.34157217780477       -1.08470597412667
H           -5.20771409639984        4.18228709657373       -0.61962004776625
H           -6.24202293450918        2.01949146894757       -0.01263119708792
H           -6.73293115169244       -0.64569944059539        0.56155192383808
H           -6.53131461303521       -3.06278444218828        1.04427937271428
H           -4.34477914770985       -4.17050946230354        1.03020695236553
H           -2.28875968807975       -2.91172797896801        0.50532558847598
H           -0.36214563375290        1.22869450491176        0.89830036277394

          :  Hamiltonian                  GFN2-xTB          :
         :: gradient norm              0.000044929714 Eh/a0 ::
         :: HOMO-LUMO gap              0.544026390573 eV    ::
         :: SCC energy               -81.956560726277 Eh    ::
         :: -> dispersion             -0.065384698439 Eh    ::
         :: -> Gsolv                  -0.045753724465 Eh    ::
         :: repulsion energy           1.203894518167 Eh    ::

    * Orbital Energies and Occupations

         #    Occupation            Energy/Eh            Energy/eV
      -------------------------------------------------------------
         1        2.0000           -0.7813581             -21.2618
       ...           ...                  ...                  ...
        62        2.0000           -0.4470054             -12.1636
        63        2.0000           -0.4431297             -12.0582
        64        2.0000           -0.4414553             -12.0126
        65        2.0000           -0.4408448             -11.9960
        66        2.0000           -0.4338605             -11.8059
        67        2.0000           -0.4312099             -11.7338
        68        2.0000           -0.4237622             -11.5312
        69        2.0000           -0.4207694             -11.4497
        70        2.0000           -0.4055702             -11.0361
        71        2.0000           -0.4046182             -11.0102
        72        1.9503           -0.3931963             -10.6994
        73        1.0497           -0.3875883             -10.5468
        74        1.0000           -0.2892717              -7.8715 (HOMO)
        75        0.0000           -0.2692794              -7.3275 (LUMO)
        76                         -0.2511486              -6.8341
        77                         -0.2504772              -6.8158
        78                         -0.2260396              -6.1509
        79                         -0.2116913              -5.7604
        80                         -0.1901431              -5.1741
        81                         -0.1414440              -3.8489
        82                         -0.1241783              -3.3791
        83                         -0.1166938              -3.1754
        84                         -0.1058310              -2.8798
        85                         -0.0887290              -2.4144
       ...                                ...                  ...
       141                          1.2062499              32.8237
      -------------------------------------------------------------
                  HL-Gap            0.0199923 Eh            0.5440 eV

     #   Z          covCN         q      C6AA      α(0)
     1   6 C        3.759    -0.117    22.785     6.805
     2   6 C        3.865     0.104    18.829     6.171
     3   6 C        3.766    -0.125    22.936     6.826
     4   6 C        3.758    -0.114    22.729     6.797
     5   7 N        2.758    -0.281    27.239     7.751
     6   6 C        2.927     0.245    22.906     7.849
     7   8 O        0.857    -0.488    23.528     6.503
     8   6 C        3.151    -0.055    29.058     8.817
     9   6 C        2.908    -0.023    28.571     8.765
    10   6 C        2.911    -0.041    29.022     8.834
    11   6 C        2.915     0.028    27.386     8.581
    12   7 N        2.797     0.045    20.448     6.716
    13   6 C        3.070     0.041    27.013     8.522
    14   6 C        2.908    -0.029    28.719     8.787
    15   6 C        2.920    -0.026    28.659     8.779
    16   6 C        2.920    -0.020    28.498     8.754
    17   6 C        2.910    -0.020    28.518     8.757
    18   6 C        3.059    -0.002    28.018     8.680
    19   6 C        3.059    -0.002    28.012     8.679
    20   6 C        2.910    -0.020    28.508     8.755
    21   6 C        2.920    -0.019    28.489     8.753
    22   6 C        2.920    -0.026    28.655     8.778
    23   6 C        2.908    -0.029    28.713     8.786
    24   6 C        3.070     0.042    26.991     8.519
    25   6 C        2.923    -0.028    28.701     8.785
    26   6 C        2.981    -0.115    30.908     9.119
    27  16 S        3.990     1.119   103.310    17.107
    28   8 O        0.860    -0.584    25.719     6.799
    29   8 O        0.860    -0.598    26.074     6.846
    30   1 H        0.925     0.068     2.107     2.270
    31   1 H        0.925     0.043     2.414     2.430
    32   1 H        0.925     0.056     2.248     2.344
    33   1 H        0.925     0.045     2.381     2.413
    34   1 H        0.925     0.051     2.308     2.376
    35   1 H        0.925     0.061     2.189     2.314
    36   1 H        0.925     0.038     2.473     2.459
    37   1 H        0.925     0.057     2.235     2.338
    38   1 H        0.925     0.056     2.249     2.345
    39   1 H        0.926     0.063     2.162     2.300
    40   1 H        0.926     0.071     2.073     2.251
    41   1 H        0.926     0.053     2.277     2.360
    42   1 H        0.926     0.055     2.257     2.349
    43   1 H        0.926     0.059     2.206     2.322
    44   1 H        0.926     0.063     2.167     2.302
    45   1 H        0.926     0.062     2.176     2.307
    46   1 H        0.926     0.060     2.204     2.322
    47   1 H        0.926     0.057     2.231     2.336
    48   1 H        0.926     0.060     2.195     2.317
    49   1 H        0.926     0.058     2.221     2.331

molecular dipole:
                 x           y           z       tot (Debye)
 q only:       -5.879      -0.152      -0.441
   full:       -5.573      -0.030      -0.292      14.186

 projected vibrational frequencies (cm⁻¹)
eigval :       -0.00    -0.00    -0.00     0.00     0.00     0.00
eigval :       21.15    30.03    34.67    40.43    54.51    97.04
eigval :       98.78   121.00   126.91   136.10   142.37   157.69
eigval :      197.24   207.14   237.21   246.07   248.86   255.81
eigval :      266.79   269.96   281.46   286.84   305.29   317.03
eigval :      351.89   365.61   371.60   379.45   380.91   402.56
eigval :      411.36   417.35   432.05   457.25   470.07   482.57
eigval :      505.09   516.69   524.20   538.78   540.94   553.30
eigval :      565.44   580.60   605.98   636.95   647.05   667.79
eigval :      675.16   707.46   745.95   759.62   766.68   770.06
eigval :      797.68   814.57   857.35   864.70   865.78   877.14
eigval :      887.63   892.20   907.14   909.69   918.95   921.05
eigval :      935.54   937.98   951.93   962.97   965.52   987.01
eigval :     1002.63  1031.03  1044.22  1060.76  1064.37  1077.09
eigval :     1100.90  1104.69  1109.80  1137.50  1164.20  1164.89
eigval :     1174.69  1185.38  1196.22  1208.19  1213.55  1222.95
eigval :     1230.08  1242.44  1244.50  1267.07  1278.78  1285.50
eigval :     1302.18  1325.58  1349.80  1369.79  1380.08  1382.99
eigval :     1389.36  1389.45  1412.08  1423.56  1446.08  1463.58
eigval :     1467.12  1478.33  1480.49  1483.71  1488.18  1489.69
eigval :     1504.73  1522.28  1544.66  1545.72  1547.79  1579.15
eigval :     1604.28  3025.48  3031.77  3034.61  3039.44  3040.61
eigval :     3043.71  3045.75  3046.72  3050.12  3090.98  3091.26
eigval :     3091.49  3092.61  3096.86  3098.52  3102.49  3103.32
eigval :     3105.43  3108.24  3110.14

   temp. (K)  partition function   enthalpy   heat capacity  entropy
                                   cal/mol     cal/K/mol   cal/K/mol   J/K/mol
 298.15  VIB  0.486E+10            14310.603     92.378     85.725
         ROT  0.187E+08              888.752      2.981     36.258
         INT  0.910E+17            15199.355     95.359    121.982
         TR   0.787E+28             1481.254      4.968     43.864
         TOT                       16680.6089   100.3267   165.8460   693.8996

       T/K    H(0)-H(T)+PV         H(T)/Eh          T*S/Eh         G(T)/Eh
   ------------------------------------------------------------------------
    298.15    0.265822E-01    0.396322E+00    0.787988E-01    0.317524E+00
   ------------------------------------------------------------------------

         :::::::::::::::::::::::::::::::::::::::::::::::::::::
         ::                  THERMODYNAMIC                  ::
         :::::::::::::::::::::::::::::::::::::::::::::::::::::
         :: total free energy         -80.435142486058 Eh   ::
         ::.................................................::
         :: total energy              -80.752666209485 Eh   ::
         :: zero point energy           0.369740255959 Eh   ::
         :: G(RRHO) w/o ZPVE           -0.052216532532 Eh   ::
         :: G(RRHO) contrib.            0.317523723427 Eh   ::
         :::::::::::::::::::::::::::::::::::::::::::::::::::::

           -------------------------------------------------
          | TOTAL ENERGY              -80.752666209485 Eh   |
          | TOTAL ENTHALPY            -80.356343711175 Eh   |
          | TOTAL FREE ENERGY         -80.435142486058 Eh   |
          | GRADIENT NORM               0.000044456461 Eh/α |
          | HOMO-LUMO GAP               0.544019312133 eV   |
           -------------------------------------------------

 * finished run on 2025/08/23 at 09:22:49.786
