   * xtb version 6.7.1 (edcfbbe) compiled by 'albert@albert-system' on 2024-07-22

   ID    Z sym.   atoms
    1    6 C      1-4, 6, 8-11, 13-26
    2    7 N      5, 12
    3    8 O      7, 28, 29
    4   16 S      27
    5    1 H      30-49

          program call               : xtb data2507/toluene/6-Cz-Sac/6-Cz-Sac_toluene_S0_finalOpt.xtbopt.xyz --gfn 2 --uhf 2 --gbsa toluene --ohess vtight --parallel 40 --molden --ceasefiles --namespace data2507/toluene/6-Cz-Sac/6-Cz-Sac_toluene_T1_preOpt
      * Solvation model:               GBSA
        Solvent                        toluene
        Solvent mass                       9.2140E+01 g/mol
          :  Hamiltonian                  GFN2-xTB          :
 * total energy  :   -80.7450637 Eh     change       -0.3262315E-08 Eh
 * total energy  :   -80.7504086 Eh     change       -0.5344881E-02 Eh
 * total energy  :   -80.7521600 Eh     change       -0.1751426E-02 Eh
 * total energy  :   -80.7523378 Eh     change       -0.1778017E-03 Eh
 * total energy  :   -80.7524745 Eh     change       -0.1367606E-03 Eh
 * total energy  :   -80.7524992 Eh     change       -0.2468043E-04 Eh
 * total energy  :   -80.7525201 Eh     change       -0.2086606E-04 Eh
 * total energy  :   -80.7525295 Eh     change       -0.9419329E-05 Eh
 * total energy  :   -80.7525399 Eh     change       -0.1037861E-04 Eh
 * total energy  :   -80.7525584 Eh     change       -0.1853272E-04 Eh
 * total energy  :   -80.7526618 Eh     change       -0.5141033E-06 Eh
 * total energy  :   -80.7526624 Eh     change       -0.6054962E-06 Eh
 * total energy  :   -80.7526631 Eh     change       -0.7052554E-06 Eh
 * total energy  :   -80.7526639 Eh     change       -0.8142841E-06 Eh
 * total energy  :   -80.7526648 Eh     change       -0.8893408E-06 Eh
 * total energy  :   -80.7526657 Eh     change       -0.8614007E-06 Eh
 * total energy  :   -80.7526663 Eh     change       -0.6631804E-06 Eh
 * total energy  :   -80.7526667 Eh     change       -0.4079574E-06 Eh
 * total energy  :   -80.7526667 Eh     change       -0.2861796E-08 Eh
   *** GEOMETRY OPTIMIZATION CONVERGED AFTER 44 ITERATIONS ***

 final structure:
================
49
 xtb: 6.7.1 (edcfbbe)
C            5.63811936436664       -1.22024856936960        0.86451889367820
C            5.20107886819250       -0.02003991680507        0.01377570598403
C            5.87764870857040       -0.05239921516809       -1.36066882577830
C            5.57227794701995        1.27808233928262        0.73304146853363
N            3.74717115165025       -0.06354050092217       -0.16532803420048
C            3.09934101807514       -1.13049275625396       -0.81202087046650
O            3.70737841162243       -2.04751425377164       -1.39042296643411
C            1.69087122955421       -1.00593152182797       -0.69028774285920
C            0.70197645153451       -1.86044086289806       -1.25162251500171
C           -0.61504142612609       -1.58173794323124       -1.06847121187710
C           -1.03801149885399       -0.44340650232340       -0.30207223440230
N           -2.38532424304887       -0.16587230037597       -0.15130230004036
C           -2.97126746035574        1.07546728718164       -0.29080789064598
C           -2.39538617317899        2.28918224974431       -0.65683181488331
C           -3.22349387654597        3.39500750788630       -0.74557460193175
C           -4.58984417975254        3.29839477684711       -0.49204977297815
C           -5.17712763672024        2.08246946737420       -0.16072845323900
C           -4.36947666808310        0.96431709356226       -0.06654375418530
C           -4.62501804977021       -0.42633730663905        0.21916666666231
C           -5.76714205293133       -1.14414660028506        0.52103133241728
C           -5.64595466378219       -2.50522815975319        0.77927422743116
C           -4.40435081959125       -3.13645116478350        0.75865583600733
C           -3.24735249429866       -2.43774943530357        0.46024989697347
C           -3.36636438206220       -1.08252384180036        0.16212605398578
C           -0.06624466778952        0.38935859974058        0.29251585181991
C            1.24691572945520        0.09416016163602        0.10311229154633
S            2.68508201840526        0.86519362160892        0.76350087884892
O            2.76555565143116        2.25554833656847        0.38989338558772
O            2.85177504610495        0.59461659805565        2.17339004010223
H            5.11808696249733       -1.20021724152270        1.82071011707658
H            5.39305252690681       -2.14489662740808        0.34690501475575
H            6.70982680260463       -1.18261573067303        1.03844266313243
H            5.55718139927873        0.80121928521194       -1.95390213148999
H            5.60611286637357       -0.96499752042956       -1.88539569791040
H            6.95645126132566       -0.01877313895267       -1.23807019762385
H            5.22768748378354        2.13895372083320        0.16553708815695
H            5.11101461945605        1.31351521375447        1.71684480600000
H            6.65228622836087        1.33078823377725        0.84466585818327
H            1.03138085105825       -2.69896965104843       -1.84502227485407
H           -1.37264805334353       -2.17520142989042       -1.55632765927689
H           -1.34243607959884        2.36525004461773       -0.87855971533936
H           -2.80092061153166        4.34805667309726       -1.02368411263354
H           -5.20443047652225        4.18225254687626       -0.56891331116104
H           -6.23944035958118        2.01284542569509        0.01244041046330
H           -6.72971637012211       -0.65919776378248        0.56105039232862
H           -6.52719480486984       -3.08136571797370        1.01663755507573
H           -4.34053584271792       -4.18845401701059        0.98963922317067
H           -2.28449650796570       -2.92279007842289        0.47904587690527
H           -0.35882880754565        1.20371305642617        0.93720233658479

          :  Hamiltonian                  GFN2-xTB          :
         :: gradient norm              0.000038320362 Eh/a0 ::
         :: HOMO-LUMO gap              0.542173894220 eV    ::
         :: SCC energy               -81.956624886997 Eh    ::
         :: -> dispersion             -0.065376026258 Eh    ::
         :: -> Gsolv                  -0.045776169192 Eh    ::
         :: repulsion energy           1.203958159023 Eh    ::

    * Orbital Energies and Occupations

         #    Occupation            Energy/Eh            Energy/eV
      -------------------------------------------------------------
         1        2.0000           -0.7813280             -21.2610
       ...           ...                  ...                  ...
        62        2.0000           -0.4469599             -12.1624
        63        2.0000           -0.4431351             -12.0583
        64        2.0000           -0.4414654             -12.0129
        65        2.0000           -0.4408832             -11.9970
        66        2.0000           -0.4338395             -11.8054
        67        2.0000           -0.4312542             -11.7350
        68        2.0000           -0.4236882             -11.5291
        69        2.0000           -0.4207377             -11.4489
        70        2.0000           -0.4056176             -11.0374
        71        2.0000           -0.4045713             -11.0089
        72        1.9495           -0.3931976             -10.6995
        73        1.0505           -0.3876245             -10.5478
        74        1.0000           -0.2892406              -7.8706 (HOMO)
        75        0.0000           -0.2693165              -7.3285 (LUMO)
        76                         -0.2511562              -6.8343
        77                         -0.2504396              -6.8148
        78                         -0.2260070              -6.1500
        79                         -0.2117306              -5.7615
        80                         -0.1901693              -5.1748
        81                         -0.1414220              -3.8483
        82                         -0.1241417              -3.3781
        83                         -0.1167604              -3.1772
        84                         -0.1058474              -2.8803
        85                         -0.0887589              -2.4153
       ...                                ...                  ...
       141                          1.2062571              32.8239
      -------------------------------------------------------------
                  HL-Gap            0.0199241 Eh            0.5422 eV

     #   Z          covCN         q      C6AA      α(0)
     1   6 C        3.758    -0.114    22.729     6.797
     2   6 C        3.865     0.104    18.829     6.171
     3   6 C        3.759    -0.117    22.784     6.805
     4   6 C        3.766    -0.125    22.936     6.826
     5   7 N        2.758    -0.281    27.235     7.751
     6   6 C        2.927     0.245    22.906     7.849
     7   8 O        0.857    -0.488    23.530     6.504
     8   6 C        3.151    -0.055    29.060     8.817
     9   6 C        2.908    -0.023    28.571     8.765
    10   6 C        2.911    -0.041    29.022     8.834
    11   6 C        2.915     0.028    27.388     8.582
    12   7 N        2.797     0.045    20.451     6.716
    13   6 C        3.070     0.041    27.011     8.522
    14   6 C        2.908    -0.029    28.718     8.787
    15   6 C        2.920    -0.026    28.657     8.779
    16   6 C        2.920    -0.020    28.497     8.754
    17   6 C        2.910    -0.020    28.517     8.757
    18   6 C        3.059    -0.002    28.017     8.680
    19   6 C        3.059    -0.002    28.011     8.679
    20   6 C        2.910    -0.020    28.508     8.755
    21   6 C        2.920    -0.019    28.488     8.753
    22   6 C        2.920    -0.026    28.654     8.778
    23   6 C        2.908    -0.028    28.712     8.786
    24   6 C        3.070     0.042    26.989     8.518
    25   6 C        2.923    -0.028    28.700     8.785
    26   6 C        2.981    -0.115    30.909     9.120
    27  16 S        3.990     1.119   103.312    17.107
    28   8 O        0.860    -0.584    25.718     6.799
    29   8 O        0.860    -0.598    26.074     6.846
    30   1 H        0.925     0.038     2.474     2.460
    31   1 H        0.925     0.057     2.231     2.336
    32   1 H        0.925     0.056     2.249     2.345
    33   1 H        0.925     0.043     2.415     2.430
    34   1 H        0.925     0.068     2.110     2.272
    35   1 H        0.925     0.056     2.247     2.344
    36   1 H        0.925     0.051     2.308     2.376
    37   1 H        0.925     0.045     2.381     2.413
    38   1 H        0.925     0.061     2.189     2.314
    39   1 H        0.926     0.063     2.163     2.300
    40   1 H        0.926     0.071     2.075     2.252
    41   1 H        0.926     0.053     2.278     2.360
    42   1 H        0.926     0.055     2.257     2.349
    43   1 H        0.926     0.059     2.205     2.322
    44   1 H        0.926     0.063     2.167     2.302
    45   1 H        0.926     0.062     2.175     2.306
    46   1 H        0.926     0.060     2.204     2.321
    47   1 H        0.926     0.057     2.230     2.335
    48   1 H        0.926     0.060     2.196     2.317
    49   1 H        0.926     0.058     2.222     2.331

molecular dipole:
                 x           y           z       tot (Debye)
 q only:       -5.884      -0.140      -0.450
   full:       -5.578      -0.021      -0.298      14.197

 projected vibrational frequencies (cm⁻¹)
eigval :        0.00     0.00     0.00     0.00     0.00     0.00
eigval :       21.20    29.32    35.18    39.85    53.57    93.96
eigval :       99.32   119.17   127.03   135.63   141.58   156.32
eigval :      197.34   206.82   237.10   245.40   248.63   255.64
eigval :      266.88   270.30   282.00   286.78   304.72   316.66
eigval :      351.96   365.51   371.26   379.29   380.64   402.14
eigval :      411.41   417.82   431.93   456.97   469.90   480.54
eigval :      505.05   516.65   524.27   538.49   540.87   552.36
eigval :      564.45   580.39   605.17   635.74   646.85   667.62
eigval :      674.98   707.17   745.83   759.54   766.57   769.83
eigval :      793.73   814.56   856.24   863.32   865.76   876.46
eigval :      885.19   892.07   907.39   907.93   919.33   921.86
eigval :      935.41   937.90   951.71   962.30   965.96   987.05
eigval :     1002.62  1031.08  1043.92  1060.55  1064.33  1077.01
eigval :     1100.72  1104.68  1109.77  1136.95  1164.33  1165.04
eigval :     1174.64  1185.21  1196.07  1208.18  1213.49  1222.86
eigval :     1229.93  1242.47  1244.45  1267.06  1278.79  1285.58
eigval :     1302.21  1325.56  1349.67  1369.77  1380.19  1383.10
eigval :     1389.31  1389.37  1411.92  1423.42  1446.10  1463.65
eigval :     1467.12  1478.25  1480.44  1483.89  1488.15  1489.90
eigval :     1504.65  1522.20  1544.81  1545.74  1548.04  1579.17
eigval :     1604.26  3025.89  3031.83  3034.55  3039.36  3040.60
eigval :     3043.61  3045.22  3046.64  3049.93  3090.63  3091.06
eigval :     3091.42  3092.20  3096.90  3098.59  3102.07  3103.32
eigval :     3105.38  3108.29  3110.03

   temp. (K)  partition function   enthalpy   heat capacity  entropy
                                   cal/mol     cal/K/mol   cal/K/mol   J/K/mol
 298.15  VIB  0.529E+10            14327.409     92.386     85.880
         ROT  0.187E+08              888.752      2.981     36.258
         INT  0.991E+17            15216.161     95.367    122.138
         TR   0.787E+28             1481.254      4.968     43.864
         TOT                       16697.4149   100.3347   166.0014   694.5497

       T/K    H(0)-H(T)+PV         H(T)/Eh          T*S/Eh         G(T)/Eh
   ------------------------------------------------------------------------
    298.15    0.266090E-01    0.396273E+00    0.788726E-01    0.317401E+00
   ------------------------------------------------------------------------

         :::::::::::::::::::::::::::::::::::::::::::::::::::::
         ::                  THERMODYNAMIC                  ::
         :::::::::::::::::::::::::::::::::::::::::::::::::::::
         :: total free energy         -80.435265881203 Eh   ::
         ::.................................................::
         :: total energy              -80.752666729563 Eh   ::
         :: zero point energy           0.369664429729 Eh   ::
         :: G(RRHO) w/o ZPVE           -0.052263581369 Eh   ::
         :: G(RRHO) contrib.            0.317400848360 Eh   ::
         :::::::::::::::::::::::::::::::::::::::::::::::::::::

           -------------------------------------------------
          | TOTAL ENERGY              -80.752666729563 Eh   |
          | TOTAL ENTHALPY            -80.356393275473 Eh   |
          | TOTAL FREE ENERGY         -80.435265881203 Eh   |
          | GRADIENT NORM               0.000037516866 Eh/α |
          | HOMO-LUMO GAP               0.542161046327 eV   |
           -------------------------------------------------

 * finished run on 2025/08/23 at 09:20:16.804
