   * xtb version 6.7.1 (edcfbbe) compiled by 'albert@albert-system' on 2024-07-22

   ID    Z sym.   atoms
    1    6 C      1-4, 6, 8-11, 13-26
    2    7 N      5, 12
    3    8 O      7, 28, 29
    4   16 S      27
    5    1 H      30-49

          program call               : xtb data2507/toluene/6-Cz-Sac/6-Cz-Sac_toluene_S0_crest.xyz --gfn 2 --gbsa toluene --ohess vtight --parallel 40 --molden --ceasefiles --namespace data2507/toluene/6-Cz-Sac/6-Cz-Sac_toluene_S0_finalOpt
      * Solvation model:               GBSA
        Solvent                        toluene
        Solvent mass                       9.2140E+01 g/mol
          :  Hamiltonian                  GFN2-xTB          :
 * total energy  :   -80.8462234 Eh     change       -0.8838441E-09 Eh
 * total energy  :   -80.8462942 Eh     change       -0.7075952E-04 Eh
 * total energy  :   -80.8463214 Eh     change       -0.2721525E-04 Eh
 * total energy  :   -80.8463252 Eh     change       -0.3838374E-05 Eh
 * total energy  :   -80.8463282 Eh     change       -0.2963000E-05 Eh
 * total energy  :   -80.8463291 Eh     change       -0.9120460E-06 Eh
 * total energy  :   -80.8463294 Eh     change       -0.3161734E-06 Eh
 * total energy  :   -80.8463293 Eh     change        0.1276699E-06 Eh
 * total energy  :   -80.8463295 Eh     change       -0.2114475E-06 Eh
 * total energy  :   -80.8463296 Eh     change       -0.6595279E-07 Eh
   *** GEOMETRY OPTIMIZATION CONVERGED AFTER 10 ITERATIONS ***

 final structure:
================
49
 xtb: 6.7.1 (edcfbbe)
C            5.75945808314876       -1.28835228794342        0.78854157068222
C            5.23550228732431       -0.05298681566438        0.05017357600470
C            5.82947609460616        0.04034119669532       -1.35864532241184
C            5.58655808604363        1.20754554873833        0.83815315152365
N            3.76502258552380       -0.15301823947212       -0.05893254610337
C            3.13750839185466       -1.16624178350014       -0.72323521731219
O            3.68768061600501       -2.07912804809008       -1.30943670377724
C            1.66788015025073       -1.00869599378031       -0.63662275140643
C            0.72400158036532       -1.84501089889525       -1.22333152908987
C           -0.61761606853919       -1.55907198437234       -1.05912826021370
C           -1.03773505927042       -0.45299306767281       -0.30838595451606
N           -2.38774158777770       -0.17447182667805       -0.16163842296233
C           -2.97800584448931        1.07664019816495       -0.29547214457538
C           -2.41277678853085        2.28852595066482       -0.66379468664767
C           -3.24837192237943        3.38667555617626       -0.76548993279167
C           -4.61534437430926        3.28637345817489       -0.52044460817864
C           -5.18818298048313        2.07483467879013       -0.18516865172035
C           -4.36807911260798        0.95947936946804       -0.07710182358662
C           -4.62587693455975       -0.42540305355493        0.21617785501033
C           -5.77941176991988       -1.12765298578428        0.53936150188468
C           -5.67797095456846       -2.48005170903145        0.80226231523430
C           -4.44404648775000       -3.12395330107645        0.76605476165336
C           -3.28252375521117       -2.44383385840521        0.44609369479059
C           -3.38364352091144       -1.09298278469814        0.14883144456638
C           -0.08117702760140        0.38070524537120        0.29376670279428
C            1.24328784894921        0.08028249121339        0.10597217269875
S            2.68637078564786        0.92730616896132        0.70463360341867
O            2.80018835976781        2.23572267540170        0.12820003986679
O            2.81242204256173        0.82946778564773        2.13020905778571
H            5.30269730355313       -1.35423635383530        1.77398936799705
H            5.52547907601801       -2.19019221998761        0.22897420239018
H            6.83710024445526       -1.21510977368193        0.90253376236953
H            5.41985245775052        0.90328558622582       -1.87933026634779
H            5.60036740676546       -0.85664704655164       -1.92733808268453
H            6.90807601231119        0.14792041245495       -1.29058436943397
H            5.20180838554720        2.09290540734245        0.33874975239357
H            5.16285327504365        1.16690632332746        1.83817007467760
H            6.66753345372733        1.28861562081210        0.91693549721141
H            1.05243985869490       -2.68984982489948       -1.80833250065631
H           -1.36051850420228       -2.17800481133490       -1.53783063251280
H           -1.35912833754966        2.38042391648995       -0.87921585753700
H           -2.82879989330296        4.34150228537410       -1.04579037402250
H           -5.23370671064686        4.16737754029181       -0.60684942000899
H           -6.25090224527710        1.99098134187528       -0.01686218359825
H           -6.73149125653694       -0.62192584474068        0.58960033679229
H           -6.56280973148174       -3.04615101822213        1.05251662080159
H           -4.38997234324784       -4.17747269979577        0.99701744394605
H           -2.33123803870228       -2.95258414555107        0.44748028325198
H           -0.37624320775862        1.21909723145780        0.90334814934985

          :  Hamiltonian                  GFN2-xTB          :
         :: gradient norm              0.000068279527 Eh/a0 ::
         :: HOMO-LUMO gap              2.135026812753 eV    ::
         :: SCC energy               -82.072355851475 Eh    ::
         :: -> dispersion             -0.065271208644 Eh    ::
         :: -> Gsolv                  -0.034622214145 Eh    ::
         :: repulsion energy           1.226026284745 Eh    ::

    * Orbital Energies and Occupations

         #    Occupation            Energy/Eh            Energy/eV
      -------------------------------------------------------------
         1        2.0000           -0.8031554             -21.8550
       ...           ...                  ...                  ...
        61        2.0000           -0.4521776             -12.3044
        62        2.0000           -0.4468144             -12.1584
        63        2.0000           -0.4412451             -12.0069
        64        2.0000           -0.4395569             -11.9610
        65        2.0000           -0.4386181             -11.9354
        66        2.0000           -0.4303823             -11.7113
        67        2.0000           -0.4259769             -11.5914
        68        2.0000           -0.4255948             -11.5810
        69        2.0000           -0.4236227             -11.5274
        70        2.0000           -0.4165819             -11.3358
        71        2.0000           -0.4133065             -11.2466
        72        2.0000           -0.3871974             -10.5362
        73        2.0000           -0.3763770             -10.2417 (HOMO)
        74                         -0.2979163              -8.1067 (LUMO)
        75                         -0.2730310              -7.4296
        76                         -0.2526523              -6.8750
        77                         -0.2303088              -6.2670
        78                         -0.2212689              -6.0210
        79                         -0.1957141              -5.3257
        80                         -0.1940729              -5.2810
        81                         -0.1675521              -4.5593
        82                         -0.1386068              -3.7717
        83                         -0.1303170              -3.5461
        84                         -0.1052769              -2.8647
       ...                                ...                  ...
       141                          1.2220561              33.2538
      -------------------------------------------------------------
                  HL-Gap            0.0784607 Eh            2.1350 eV

     #   Z          covCN         q      C6AA      α(0)
     1   6 C        3.758    -0.120    22.854     6.816
     2   6 C        3.855     0.100    18.905     6.184
     3   6 C        3.759    -0.121    22.860     6.816
     4   6 C        3.766    -0.133    23.104     6.851
     5   7 N        2.753    -0.264    26.823     7.692
     6   6 C        2.927     0.278    22.317     7.747
     7   8 O        0.857    -0.427    22.237     6.322
     8   6 C        3.160    -0.038    28.619     8.746
     9   6 C        2.917    -0.008    28.219     8.711
    10   6 C        2.922    -0.037    28.918     8.819
    11   6 C        2.915     0.082    26.173     8.389
    12   7 N        2.800    -0.026    21.745     6.926
    13   6 C        3.063     0.042    26.995     8.520
    14   6 C        2.910    -0.051    29.255     8.869
    15   6 C        2.924    -0.032    28.786     8.799
    16   6 C        2.920    -0.038    28.938     8.821
    17   6 C        2.913    -0.032    28.787     8.798
    18   6 C        3.064    -0.012    28.238     8.714
    19   6 C        3.064    -0.012    28.238     8.714
    20   6 C        2.913    -0.031    28.782     8.797
    21   6 C        2.920    -0.038    28.936     8.821
    22   6 C        2.924    -0.031    28.781     8.798
    23   6 C        2.910    -0.050    29.254     8.869
    24   6 C        3.062     0.043    26.980     8.518
    25   6 C        2.929    -0.033    28.833     8.806
    26   6 C        2.986    -0.093    30.337     9.035
    27  16 S        3.981     1.155   102.304    17.023
    28   8 O        0.860    -0.569    25.359     6.752
    29   8 O        0.860    -0.571    25.408     6.758
    30   1 H        0.925     0.043     2.403     2.424
    31   1 H        0.925     0.062     2.174     2.306
    32   1 H        0.925     0.065     2.146     2.291
    33   1 H        0.925     0.044     2.393     2.419
    34   1 H        0.925     0.064     2.148     2.292
    35   1 H        0.925     0.064     2.147     2.292
    36   1 H        0.925     0.053     2.287     2.365
    37   1 H        0.925     0.051     2.304     2.374
    38   1 H        0.925     0.069     2.098     2.265
    39   1 H        0.926     0.086     1.914     2.164
    40   1 H        0.926     0.087     1.907     2.160
    41   1 H        0.926     0.032     2.562     2.503
    42   1 H        0.926     0.037     2.486     2.466
    43   1 H        0.926     0.037     2.486     2.466
    44   1 H        0.926     0.041     2.434     2.440
    45   1 H        0.926     0.040     2.446     2.446
    46   1 H        0.926     0.037     2.489     2.467
    47   1 H        0.926     0.039     2.459     2.452
    48   1 H        0.926     0.038     2.470     2.458
    49   1 H        0.926     0.074     2.040     2.234

molecular dipole:
                 x           y           z       tot (Debye)
 q only:       -1.638      -0.734      -0.536
   full:       -1.476      -0.589      -0.435       4.189

 projected vibrational frequencies (cm⁻¹)
eigval :       -0.00    -0.00    -0.00     0.00     0.00     0.00
eigval :       23.60    24.43    29.77    39.51    56.19    98.56
eigval :      100.81   124.91   131.06   132.60   141.15   154.44
eigval :      199.47   204.91   236.64   242.58   244.69   262.10
eigval :      270.04   274.06   283.48   292.76   314.95   318.47
eigval :      356.12   371.95   377.27   391.05   400.98   418.60
eigval :      422.91   423.92   440.43   477.99   481.06   515.55
eigval :      516.39   526.01   536.39   541.93   543.84   558.81
eigval :      586.26   605.41   651.45   652.75   674.99   683.15
eigval :      711.30   716.61   751.03   766.51   772.52   783.57
eigval :      818.23   838.11   869.50   877.98   881.09   891.27
eigval :      896.54   906.19   909.81   922.89   927.56   932.66
eigval :      945.91   953.64   967.44   967.56   982.36  1011.39
eigval :     1022.13  1036.70  1047.33  1071.28  1074.65  1107.32
eigval :     1111.08  1135.70  1151.73  1167.01  1178.04  1178.85
eigval :     1195.20  1207.68  1221.26  1231.51  1232.41  1241.81
eigval :     1242.51  1254.74  1268.61  1287.90  1296.27  1324.89
eigval :     1354.02  1355.18  1356.55  1390.36  1396.10  1410.26
eigval :     1416.76  1418.75  1424.26  1465.97  1466.36  1470.13
eigval :     1480.81  1482.12  1482.96  1486.51  1487.71  1503.62
eigval :     1543.27  1575.10  1586.81  1590.45  1596.40  1608.51
eigval :     1697.77  3030.78  3032.92  3039.77  3047.08  3050.48
eigval :     3051.62  3053.07  3053.89  3057.43  3078.20  3078.92
eigval :     3083.69  3085.63  3091.10  3093.96  3097.73  3100.14
eigval :     3101.35  3110.14  3114.54

   temp. (K)  partition function   enthalpy   heat capacity  entropy
                                   cal/mol     cal/K/mol   cal/K/mol   J/K/mol
 298.15  VIB  0.462E+10            14061.921     90.492     84.379
         ROT  0.188E+08              888.752      2.981     36.264
         INT  0.868E+17            14950.673     93.473    120.643
         TR   0.787E+28             1481.254      4.968     43.864
         TOT                       16431.9269    98.4409   164.5063   688.2942

       T/K    H(0)-H(T)+PV         H(T)/Eh          T*S/Eh         G(T)/Eh
   ------------------------------------------------------------------------
    298.15    0.261859E-01    0.400133E+00    0.781622E-01    0.321971E+00
   ------------------------------------------------------------------------

         :::::::::::::::::::::::::::::::::::::::::::::::::::::
         ::                  THERMODYNAMIC                  ::
         :::::::::::::::::::::::::::::::::::::::::::::::::::::
         :: total free energy         -80.524358627463 Eh   ::
         ::.................................................::
         :: total energy              -80.846329566859 Eh   ::
         :: zero point energy           0.373947231560 Eh   ::
         :: G(RRHO) w/o ZPVE           -0.051976292164 Eh   ::
         :: G(RRHO) contrib.            0.321970939396 Eh   ::
         :::::::::::::::::::::::::::::::::::::::::::::::::::::

           -------------------------------------------------
          | TOTAL ENERGY              -80.846329566859 Eh   |
          | TOTAL ENTHALPY            -80.446196393033 Eh   |
          | TOTAL FREE ENERGY         -80.524358627463 Eh   |
          | GRADIENT NORM               0.000068329122 Eh/α |
          | HOMO-LUMO GAP               2.135024305883 eV   |
           -------------------------------------------------

 * finished run on 2025/08/23 at 09:20:13.491
