   * xtb version 6.7.1 (edcfbbe) compiled by 'albert@albert-system' on 2024-07-22

   ID    Z sym.   atoms
    1    6 C      1-4, 6, 8-11, 13-26
    2    7 N      5, 12
    3    8 O      7, 28, 29
    4   16 S      27
    5    1 H      30-49

          program call               : xtb data2507/toluene/6-Cz-Sac/6-Cz-Sac.xyz --gfn 2 --gbsa toluene --ohess vtight --parallel 40 --molden --ceasefiles --namespace data2507/toluene/6-Cz-Sac/6-Cz-Sac_toluene_S0_preOpt
      * Solvation model:               GBSA
        Solvent                        toluene
        Solvent mass                       9.2140E+01 g/mol
          :  Hamiltonian                  GFN2-xTB          :
 * total energy  :   -80.8281588 Eh     change       -0.6962324E-09 Eh
 * total energy  :   -80.8404309 Eh     change       -0.1227211E-01 Eh
 * total energy  :   -80.8445022 Eh     change       -0.4071294E-02 Eh
 * total energy  :   -80.8453126 Eh     change       -0.8103897E-03 Eh
 * total energy  :   -80.8457443 Eh     change       -0.4317324E-03 Eh
 * total energy  :   -80.8458884 Eh     change       -0.1440563E-03 Eh
 * total energy  :   -80.8459645 Eh     change       -0.7608283E-04 Eh
 * total energy  :   -80.8460014 Eh     change       -0.3693565E-04 Eh
 * total energy  :   -80.8460350 Eh     change       -0.3355620E-04 Eh
 * total energy  :   -80.8460541 Eh     change       -0.1914138E-04 Eh
 * total energy  :   -80.8462785 Eh     change       -0.1121422E-05 Eh
 * total energy  :   -80.8462798 Eh     change       -0.1316103E-05 Eh
 * total energy  :   -80.8462813 Eh     change       -0.1501998E-05 Eh
 * total energy  :   -80.8462830 Eh     change       -0.1613220E-05 Eh
 * total energy  :   -80.8462846 Eh     change       -0.1664600E-05 Eh
 * total energy  :   -80.8462861 Eh     change       -0.1453457E-05 Eh
 * total energy  :   -80.8462871 Eh     change       -0.1071710E-05 Eh
 * total energy  :   -80.8462879 Eh     change       -0.7208035E-06 Eh
 * total energy  :   -80.8462879 Eh     change       -0.4728676E-08 Eh
   *** GEOMETRY OPTIMIZATION CONVERGED AFTER 68 ITERATIONS ***

 final structure:
================
49
 xtb: 6.7.1 (edcfbbe)
C            5.65986265338408        1.31129678894266        0.64332832805602
C            5.09041555272096       -0.02063488753706        0.14556539901684
C            5.42789877266293       -1.12707850266622        1.14304239260994
C            5.65148225048137       -0.37878563545108       -1.23396649115681
N            3.62070978281460        0.09574122281672        0.04173260435315
C            3.00346865175438        1.01298586740043       -0.75780202990153
O            3.56269067828966        1.83662967760420       -1.45674673230913
C            1.53229515172234        0.87373211693234       -0.66383882560676
C            0.59673976182960        1.65189443092390       -1.33751487596692
C           -0.74740468021975        1.38922537309908       -1.15574204507339
C           -1.17802972889104        0.36429251602614       -0.30286897025427
N           -2.53043781432686        0.10781134944859       -0.13917632529036
C           -3.52304742200509        1.05668848414361        0.07520934842650
C           -3.41606165341926        2.42927239591504        0.24217822853445
C           -4.57570691429010        3.14270998110316        0.48790523978708
C           -5.81341656840312        2.51123343450921        0.57717122148275
C           -5.92088392294252        1.14038786553884        0.44422194532397
C           -4.76944400413869        0.40465830868647        0.19706881555811
C           -4.51747657178808       -1.00321306123239        0.03905983873826
C           -5.34298397857301       -2.11968786957494        0.03034079858501
C           -4.77472345248664       -3.35998493927212       -0.18669721552814
C           -3.40681199930219       -3.48956840280458       -0.41207897898106
C           -2.56578383192958       -2.39099649322777       -0.40744351235481
C           -3.12674745550774       -1.14732810417942       -0.15786978761603
C           -0.23000283527782       -0.41127562502426        0.38425998871544
C            1.09721209509616       -0.13599765949746        0.17802748300493
S            2.53148846600625       -0.92578632777661        0.86864116484767
O            2.62785900436399       -0.71609441870521        2.28387724388435
O            2.66296367295563       -2.27492717455865        0.39838944882728
H            5.44064811833986        2.10584859148350       -0.06462130064654
H            5.22434343671480        1.56634470411617        1.60717223592665
H            6.73695675068307        1.22598818547087        0.75395472822044
H            5.01570541820246       -2.07818001697430        0.81639461784766
H            5.02227753211213       -0.89689095631979        2.12474951015184
H            6.50806873484434       -1.21942444325420        1.22047448978180
H            5.21429288811707       -1.31237588047993       -1.58215517119263
H            5.42435856303911        0.40688698189172       -1.94965485529272
H            6.72944986065694       -0.49519660760988       -1.17004570324195
H            0.93328402317178        2.43400372329805       -2.00002456130576
H           -1.48415710586590        1.96145495988350       -1.69788618063595
H           -2.46171514525327        2.93067421637696        0.20098423866357
H           -4.51764780019678        4.21327252967226        0.61730156445294
H           -6.69660044505808        3.10288557674515        0.76674397542469
H           -6.87606617906424        0.64648904918347        0.53610549971313
H           -6.40624543219214       -2.01514428110048        0.18292149408789
H           -5.39733447369374       -4.24218930557388       -0.19490360618038
H           -2.99092523539297       -4.46846081391707       -0.59943357070419
H           -1.51120742600528       -2.50753586907720       -0.60594689471047
H           -0.53360674374095       -1.18565305539383        1.06959678992938

          :  Hamiltonian                  GFN2-xTB          :
         :: gradient norm              0.000056257413 Eh/a0 ::
         :: HOMO-LUMO gap              2.133047429509 eV    ::
         :: SCC energy               -82.072359384066 Eh    ::
         :: -> dispersion             -0.065266762416 Eh    ::
         :: -> Gsolv                  -0.034594619494 Eh    ::
         :: repulsion energy           1.226071511421 Eh    ::

    * Orbital Energies and Occupations

         #    Occupation            Energy/Eh            Energy/eV
      -------------------------------------------------------------
         1        2.0000           -0.8031859             -21.8558
       ...           ...                  ...                  ...
        61        2.0000           -0.4521893             -12.3047
        62        2.0000           -0.4468234             -12.1587
        63        2.0000           -0.4412395             -12.0067
        64        2.0000           -0.4395428             -11.9606
        65        2.0000           -0.4386643             -11.9367
        66        2.0000           -0.4303774             -11.7112
        67        2.0000           -0.4259617             -11.5910
        68        2.0000           -0.4255933             -11.5810
        69        2.0000           -0.4236432             -11.5279
        70        2.0000           -0.4166020             -11.3363
        71        2.0000           -0.4132965             -11.2464
        72        2.0000           -0.3871877             -10.5359
        73        2.0000           -0.3763344             -10.2406 (HOMO)
        74                         -0.2979464              -8.1075 (LUMO)
        75                         -0.2730646              -7.4305
        76                         -0.2526420              -6.8747
        77                         -0.2302928              -6.2666
        78                         -0.2212826              -6.0214
        79                         -0.1955944              -5.3224
        80                         -0.1940651              -5.2808
        81                         -0.1677102              -4.5636
        82                         -0.1386965              -3.7741
        83                         -0.1303271              -3.5464
        84                         -0.1052538              -2.8641
       ...                                ...                  ...
       141                          1.2221059              33.2552
      -------------------------------------------------------------
                  HL-Gap            0.0783880 Eh            2.1330 eV

     #   Z          covCN         q      C6AA      α(0)
     1   6 C        3.758    -0.121    22.860     6.817
     2   6 C        3.855     0.100    18.905     6.184
     3   6 C        3.766    -0.133    23.105     6.851
     4   6 C        3.759    -0.120    22.853     6.815
     5   7 N        2.753    -0.264    26.822     7.692
     6   6 C        2.926     0.278    22.317     7.747
     7   8 O        0.857    -0.427    22.235     6.322
     8   6 C        3.159    -0.038    28.618     8.746
     9   6 C        2.917    -0.008    28.219     8.711
    10   6 C        2.922    -0.037    28.917     8.818
    11   6 C        2.916     0.082    26.173     8.389
    12   7 N        2.800    -0.026    21.747     6.926
    13   6 C        3.062     0.043    26.980     8.518
    14   6 C        2.910    -0.050    29.254     8.869
    15   6 C        2.924    -0.031    28.781     8.798
    16   6 C        2.920    -0.038    28.937     8.821
    17   6 C        2.913    -0.031    28.782     8.797
    18   6 C        3.064    -0.012    28.239     8.714
    19   6 C        3.064    -0.012    28.238     8.714
    20   6 C        2.913    -0.032    28.787     8.798
    21   6 C        2.920    -0.038    28.939     8.822
    22   6 C        2.924    -0.032    28.786     8.799
    23   6 C        2.910    -0.051    29.255     8.869
    24   6 C        3.063     0.042    26.994     8.520
    25   6 C        2.929    -0.033    28.832     8.806
    26   6 C        2.986    -0.093    30.337     9.035
    27  16 S        3.981     1.156   102.303    17.023
    28   8 O        0.860    -0.569    25.358     6.752
    29   8 O        0.860    -0.571    25.406     6.758
    30   1 H        0.925     0.064     2.149     2.292
    31   1 H        0.925     0.044     2.396     2.421
    32   1 H        0.925     0.064     2.148     2.292
    33   1 H        0.925     0.051     2.303     2.373
    34   1 H        0.925     0.053     2.288     2.365
    35   1 H        0.925     0.069     2.097     2.265
    36   1 H        0.925     0.044     2.399     2.422
    37   1 H        0.925     0.062     2.173     2.305
    38   1 H        0.925     0.065     2.145     2.290
    39   1 H        0.926     0.086     1.914     2.163
    40   1 H        0.926     0.087     1.907     2.160
    41   1 H        0.926     0.038     2.470     2.458
    42   1 H        0.926     0.039     2.459     2.452
    43   1 H        0.926     0.037     2.490     2.467
    44   1 H        0.926     0.040     2.447     2.446
    45   1 H        0.926     0.041     2.434     2.440
    46   1 H        0.926     0.037     2.487     2.466
    47   1 H        0.926     0.037     2.487     2.466
    48   1 H        0.926     0.032     2.565     2.504
    49   1 H        0.926     0.074     2.040     2.234

molecular dipole:
                 x           y           z       tot (Debye)
 q only:       -1.625       0.722      -0.575
   full:       -1.464       0.581      -0.466       4.176

 projected vibrational frequencies (cm⁻¹)
eigval :       -0.00    -0.00    -0.00    -0.00     0.00     0.00
eigval :       17.24    23.42    33.24    39.27    56.01    96.32
eigval :      100.89   122.36   130.37   132.87   141.27   152.86
eigval :      198.28   203.55   237.22   239.31   246.75   261.57
eigval :      269.79   270.15   283.65   294.92   315.25   319.44
eigval :      355.98   371.54   377.64   389.90   398.65   418.20
eigval :      421.52   423.66   438.94   478.85   480.26   515.65
eigval :      516.38   525.82   536.80   539.54   544.40   558.94
eigval :      586.41   606.28   651.65   653.40   673.95   683.22
eigval :      708.31   717.60   751.04   766.61   770.11   781.02
eigval :      818.07   839.93   868.47   876.43   880.98   890.13
eigval :      896.69   904.12   908.53   921.32   925.23   932.91
eigval :      945.29   953.85   966.25   967.88   981.89  1011.46
eigval :     1022.36  1036.50  1046.99  1071.56  1075.09  1107.42
eigval :     1111.54  1137.15  1152.29  1167.13  1177.73  1180.35
eigval :     1195.52  1208.19  1221.32  1231.77  1232.47  1242.03
eigval :     1242.86  1254.36  1268.49  1288.44  1295.82  1324.89
eigval :     1353.79  1355.33  1356.63  1389.55  1395.80  1410.26
eigval :     1416.80  1418.61  1424.45  1465.67  1466.65  1470.12
eigval :     1479.94  1482.23  1482.80  1486.32  1487.32  1503.66
eigval :     1543.31  1575.02  1586.77  1590.58  1596.41  1608.38
eigval :     1697.70  3029.60  3031.08  3039.86  3047.28  3050.60
eigval :     3051.95  3053.05  3053.95  3057.58  3078.43  3078.72
eigval :     3083.49  3085.63  3091.09  3094.36  3097.96  3100.24
eigval :     3101.34  3110.08  3114.84

   temp. (K)  partition function   enthalpy   heat capacity  entropy
                                   cal/mol     cal/K/mol   cal/K/mol   J/K/mol
 298.15  VIB  0.627E+10            14086.678     90.538     84.799
         ROT  0.188E+08              888.752      2.981     36.264
         INT  0.118E+18            14975.430     93.519    121.063
         TR   0.787E+28             1481.254      4.968     43.864
         TOT                       16456.6841    98.4868   164.9269   690.0539

       T/K    H(0)-H(T)+PV         H(T)/Eh          T*S/Eh         G(T)/Eh
   ------------------------------------------------------------------------
    298.15    0.262254E-01    0.400085E+00    0.783621E-01    0.321723E+00
   ------------------------------------------------------------------------

         :::::::::::::::::::::::::::::::::::::::::::::::::::::
         ::                  THERMODYNAMIC                  ::
         :::::::::::::::::::::::::::::::::::::::::::::::::::::
         :: total free energy         -80.524565340389 Eh   ::
         ::.................................................::
         :: total energy              -80.846287873285 Eh   ::
         :: zero point energy           0.373859206689 Eh   ::
         :: G(RRHO) w/o ZPVE           -0.052136673793 Eh   ::
         :: G(RRHO) contrib.            0.321722532896 Eh   ::
         :::::::::::::::::::::::::::::::::::::::::::::::::::::

           -------------------------------------------------
          | TOTAL ENERGY              -80.846287873285 Eh   |
          | TOTAL ENTHALPY            -80.446203271128 Eh   |
          | TOTAL FREE ENERGY         -80.524565340389 Eh   |
          | GRADIENT NORM               0.000056251138 Eh/α |
          | HOMO-LUMO GAP               2.133047284766 eV   |
           -------------------------------------------------

 * finished run on 2025/08/23 at 09:18:14.548
