   * xtb version 6.7.1 (edcfbbe) compiled by 'albert@albert-system' on 2024-07-22

   ID    Z sym.   atoms
    1    6 C      1-5, 7-19, 21-40, 42-60
    2    7 N      6, 20, 41
    3    1 H      61-95

          program call               : xtb data2507/toluene/CAPI/CAPI.xyz --gfn 2 --gbsa toluene --ohess vtight --parallel 40 --molden --ceasefiles --namespace data2507/toluene/CAPI/CAPI_toluene_S0_preOpt
      * Solvation model:               GBSA
        Solvent                        toluene
        Solvent mass                       9.2140E+01 g/mol
          :  Hamiltonian                  GFN2-xTB          :
 * total energy  :  -148.8106367 Eh     change       -0.3006107E-08 Eh
 * total energy  :  -148.8317111 Eh     change       -0.2107437E-01 Eh
 * total energy  :  -148.8377818 Eh     change       -0.6070772E-02 Eh
 * total energy  :  -148.8387776 Eh     change       -0.9957709E-03 Eh
 * total energy  :  -148.8392636 Eh     change       -0.4860043E-03 Eh
 * total energy  :  -148.8395211 Eh     change       -0.2575471E-03 Eh
 * total energy  :  -148.8397858 Eh     change       -0.2646663E-03 Eh
 * total energy  :  -148.8400140 Eh     change       -0.2282140E-03 Eh
 * total energy  :  -148.8402170 Eh     change       -0.2029383E-03 Eh
 * total energy  :  -148.8403754 Eh     change       -0.1583897E-03 Eh
 * total energy  :  -148.8414052 Eh     change       -0.1078645E-05 Eh
 * total energy  :  -148.8414058 Eh     change       -0.5632715E-06 Eh
 * total energy  :  -148.8414062 Eh     change       -0.4437168E-06 Eh
 * total energy  :  -148.8414067 Eh     change       -0.4538314E-06 Eh
 * total energy  :  -148.8414072 Eh     change       -0.5122781E-06 Eh
 * total energy  :  -148.8414077 Eh     change       -0.5711012E-06 Eh
 * total energy  :  -148.8414081 Eh     change       -0.4012127E-06 Eh
 * total energy  :  -148.8414083 Eh     change       -0.1738880E-06 Eh
 * total energy  :  -148.8414084 Eh     change       -0.9371803E-07 Eh
   *** GEOMETRY OPTIMIZATION CONVERGED AFTER 67 ITERATIONS ***

 final structure:
================
95
 xtb: 6.7.1 (edcfbbe)
C           -2.02661735356420        3.87449190638557        2.24327923067471
C           -2.46373407587110        2.58327256378388        2.57803889256510
C           -3.13419702839377        1.82030167305501        1.66323220530815
C           -3.39672580576369        2.31579997418685        0.36888330744817
C           -4.08437456188539        1.56192982992142       -0.61812526435303
N           -4.46917231060028        0.23263776708358       -0.33484529290029
C           -3.60460521939960       -0.82628987046402       -0.16978482105525
C           -2.15385858125008       -0.72965670714652       -0.21320129524300
C           -1.47315654186106        0.12299613736434       -1.07992152047017
C           -0.09316969076529        0.17831511085579       -1.06306172395910
C            0.64250681878719       -0.61866819287046       -0.19101004756296
C            2.11870580317030       -0.54635321172868       -0.16681378163639
C            2.87738022616857       -1.63041086296862       -0.63407340227176
C            2.26901067582271       -2.79534943562989       -1.17262611060693
C            3.01791001510249       -3.82987312124330       -1.64393750305784
C            4.42540993261453       -3.76047317618877       -1.61914896267951
C            5.04999403438438       -2.65890252946085       -1.12027865189549
C            4.30556017707098       -1.56417995504782       -0.60792112009708
C            4.92925171790921       -0.41606333014092       -0.09928609665744
N            6.33840582986340       -0.35256826191017       -0.06195386559378
C            7.12995721234132        0.44786271172831       -0.85574390392995
C            6.75522547179192        1.33998619345488       -1.85036765270858
C            7.75834101026266        2.01988522758021       -2.51336406684436
C            9.10246127529774        1.81666841654704       -2.20270065706016
C            9.48001933217587        0.92323590793416       -1.21978875421290
C            8.49035277348607        0.22771464481756       -0.53592137954641
C            8.50666266394081       -0.75546329588746        0.51139772568867
C            9.51758212373667       -1.36975172167701        1.24049553663628
C            9.16966515903226       -2.29320629858399        2.20646197949897
C            7.83375605234484       -2.60478463500574        2.45704181315981
C            6.80984039346020       -2.00790256994482        1.74755074934305
C            7.15563254408234       -1.08705661752927        0.76873183533122
C            4.17858174923029        0.67036516353542        0.37148041299869
C            4.79347336491159        1.82985772069819        0.91252459563763
C            4.04684868526058        2.87134499324672        1.37112794031067
C            2.63943601244495        2.81219592649092        1.32387591863803
C            2.01275519119742        1.71139682296515        0.82539233105326
C            2.75082803989324        0.60472701821223        0.32786873766879
C           -0.03783294836656       -1.49142223439377        0.65553331726445
C           -1.41565774019284       -1.54885737946133        0.64261326041416
N           -4.23964836904718       -1.95061917329013        0.05897074313624
C           -5.56405333549593       -1.64295520665139        0.04049559680668
C           -6.66925608844050       -2.52578459385654        0.19800173307799
C           -6.48131430347701       -3.89913148087398        0.39005965195177
C           -7.56110457708040       -4.73817714032218        0.51053937589396
C           -8.84891232718848       -4.21021940951087        0.43695181000656
C           -9.04567721940106       -2.86122819142393        0.25331686928223
C           -7.96791666706353       -1.96957343410237        0.13416611390663
C           -8.14444646875671       -0.53573084947374       -0.02628721938718
C           -9.41663642409671        0.05486727364653       -0.01824368175268
C           -9.59102331885522        1.41463633247480       -0.12628566199993
C           -8.48654257165682        2.25427998512730       -0.23413836630455
C           -7.22355327633960        1.71565673685687       -0.25509434175163
C           -7.02511286601782        0.32980130783760       -0.17205016317318
C           -5.73865142605930       -0.27928904231963       -0.18830081621560
C           -4.34827211396090        2.09477395902392       -1.85738451038717
C           -3.93590140521965        3.39653081310228       -2.17034490556033
C           -3.25454602370974        4.14354259906501       -1.24961526652595
C           -2.97048019104425        3.62862371335552        0.03277956638686
C           -2.27648566609450        4.38574575787667        1.00089178428574
H           -1.49545421582201        4.46031427418181        2.97888146300136
H           -2.26767421220955        2.19441764477595        3.56630114330764
H           -3.47264227455449        0.82911377286711        1.92904519396605
H           -2.01643938237684        0.73306908172871       -1.78460896432354
H            0.42491211204664        0.84001934860508       -1.74207761105333
H            1.19115857590099       -2.84398339363818       -1.20830478635906
H            2.53885550008523       -4.70861020659679       -2.05022161811878
H            5.00446021842282       -4.58509918638644       -2.00794005996130
H            6.12836016410091       -2.60394187846925       -1.11476208095691
H            5.71440580078426        1.49661317313330       -2.09248045367167
H            7.49668468816246        2.72320866667602       -3.29071873948426
H            9.85761631196275        2.36779892516975       -2.74414738350333
H           10.52223496009838        0.76436966743104       -0.98518987754650
H           10.55307705217628       -1.12662886949356        1.05306534247274
H            9.94182025034655       -2.78274133847929        2.78205282412227
H            7.59528603475077       -3.32787821100607        3.22362087376582
H            5.77527306813580       -2.24873020008483        1.94285845393338
H            5.87133784334703        1.87318437162726        0.95975600002355
H            4.52806651355206        3.74699385705874        1.78141056156134
H            2.06192114978538        3.64527703460933        1.69627146199450
H            0.93485133277433        1.66186530175131        0.80433341577758
H            0.52327612201555       -2.11967051632061        1.33205047990897
H           -1.94606046774516       -2.22350942830568        1.29719349716767
H           -5.46803536646093       -4.26902512103814        0.43231785962014
H           -7.41837455733696       -5.79876160576950        0.65751274153482
H           -9.70250815235122       -4.86704196715931        0.52460921265515
H          -10.05995421564062       -2.49888425279579        0.19991915591284
H          -10.29376597192340       -0.56320104599515        0.08486007238526
H          -10.58723552570768        1.83210994489453       -0.11540986388822
H           -8.62013287877462        3.32418996140569       -0.29702444948451
H           -6.36855869226734        2.36921021933435       -0.32236702647320
H           -4.87760674738430        1.50204310136159       -2.59004859540858
H           -4.15620718572234        3.79501054543225       -3.14912686410493
H           -2.92580029402280        5.14364587262444       -1.49061436332894
H           -1.95006434705162        5.38175519771851        0.73889275756492

          :  Hamiltonian                  GFN2-xTB          :
         :: gradient norm              0.000042547868 Eh/a0 ::
         :: HOMO-LUMO gap              1.946500027387 eV    ::
         :: SCC energy              -151.679096087461 Eh    ::
         :: -> dispersion             -0.147683934337 Eh    ::
         :: -> Gsolv                  -0.060318970905 Eh    ::
         :: repulsion energy           2.837687682612 Eh    ::

    * Orbital Energies and Occupations

         #    Occupation            Energy/Eh            Energy/eV
      -------------------------------------------------------------
         1        2.0000           -0.6897027             -18.7678
       ...           ...                  ...                  ...
       127        2.0000           -0.4121684             -11.2157
       128        2.0000           -0.4094467             -11.1416
       129        2.0000           -0.4064943             -11.0613
       130        2.0000           -0.4052441             -11.0273
       131        2.0000           -0.4030614             -10.9679
       132        2.0000           -0.4007391             -10.9047
       133        2.0000           -0.3917090             -10.6589
       134        2.0000           -0.3833266             -10.4308
       135        2.0000           -0.3794643             -10.3258
       136        2.0000           -0.3771247             -10.2621
       137        2.0000           -0.3703841             -10.0787
       138        2.0000           -0.3659787              -9.9588
       139        2.0000           -0.3584093              -9.7528 (HOMO)
       140                         -0.2868767              -7.8063 (LUMO)
       141                         -0.2750090              -7.4834
       142                         -0.2604010              -7.0859
       143                         -0.2505265              -6.8172
       144                         -0.2436261              -6.6294
       145                         -0.2434811              -6.6255
       146                         -0.2424862              -6.5984
       147                         -0.2372315              -6.4554
       148                         -0.2305771              -6.2743
       149                         -0.2251880              -6.1277
       150                         -0.2203779              -5.9968
       ...                                ...                  ...
       275                          0.7459955              20.2996
      -------------------------------------------------------------
                  HL-Gap            0.0715326 Eh            1.9465 eV

     #   Z          covCN         q      C6AA      α(0)
     1   6 C        2.915    -0.026    28.662     8.779
     2   6 C        2.916    -0.027    28.679     8.782
     3   6 C        2.916    -0.031    28.779     8.797
     4   6 C        2.986     0.002    27.967     8.675
     5   6 C        2.908     0.059    26.687     8.471
     6   7 N        2.840    -0.052    22.250     7.006
     7   6 C        3.191     0.138    24.555     8.082
     8   6 C        2.974    -0.002    28.081     8.692
     9   6 C        2.921    -0.036    28.899     8.816
    10   6 C        2.923    -0.032    28.797     8.800
    11   6 C        2.977     0.018    27.596     8.617
    12   6 C        2.976    -0.004    28.117     8.698
    13   6 C        2.983     0.007    27.852     8.657
    14   6 C        2.917    -0.033    28.834     8.806
    15   6 C        2.914    -0.028    28.712     8.787
    16   6 C        2.914    -0.028    28.697     8.784
    17   6 C        2.917    -0.032    28.798     8.800
    18   6 C        2.982     0.001    27.995     8.679
    19   6 C        2.911     0.045    26.994     8.520
    20   7 N        2.803    -0.048    22.157     6.991
    21   6 C        3.081     0.049    26.809     8.488
    22   6 C        2.909    -0.051    29.259     8.870
    23   6 C        2.924    -0.035    28.872     8.812
    24   6 C        2.920    -0.044    29.083     8.844
    25   6 C        2.912    -0.035    28.882     8.813
    26   6 C        3.068    -0.021    28.449     8.746
    27   6 C        3.068    -0.021    28.450     8.746
    28   6 C        2.912    -0.035    28.883     8.813
    29   6 C        2.920    -0.044    29.082     8.843
    30   6 C        2.924    -0.035    28.870     8.811
    31   6 C        2.909    -0.051    29.257     8.869
    32   6 C        3.081     0.049    26.808     8.488
    33   6 C        2.982     0.001    27.997     8.679
    34   6 C        2.917    -0.032    28.797     8.800
    35   6 C        2.914    -0.028    28.702     8.785
    36   6 C        2.914    -0.029    28.718     8.788
    37   6 C        2.917    -0.033    28.827     8.804
    38   6 C        2.983     0.007    27.858     8.658
    39   6 C        2.922    -0.031    28.762     8.795
    40   6 C        2.927    -0.029    28.720     8.789
    41   7 N        1.895    -0.320    29.145     8.003
    42   6 C        3.204     0.060    26.098     8.322
    43   6 C        2.985    -0.003    28.101     8.696
    44   6 C        2.921    -0.034    28.836     8.806
    45   6 C        2.917    -0.032    28.793     8.799
    46   6 C        2.917    -0.034    28.853     8.808
    47   6 C        2.921    -0.036    28.907     8.817
    48   6 C        2.979    -0.005    28.141     8.702
    49   6 C        2.979    -0.002    28.061     8.689
    50   6 C        2.922    -0.035    28.874     8.812
    51   6 C        2.916    -0.034    28.847     8.807
    52   6 C        2.917    -0.032    28.808     8.801
    53   6 C        2.919    -0.041    29.012     8.833
    54   6 C        2.978    -0.005    28.152     8.703
    55   6 C        3.075     0.022    27.428     8.587
    56   6 C        2.919    -0.040    28.990     8.829
    57   6 C        2.915    -0.030    28.749     8.792
    58   6 C        2.918    -0.036    28.892     8.814
    59   6 C        2.986     0.015    27.665     8.628
    60   6 C        2.919    -0.033    28.819     8.803
    61   1 H        0.926     0.042     2.424     2.435
    62   1 H        0.926     0.038     2.470     2.458
    63   1 H        0.926     0.026     2.646     2.544
    64   1 H        0.926     0.031     2.571     2.507
    65   1 H        0.926     0.039     2.465     2.455
    66   1 H        0.926     0.038     2.480     2.463
    67   1 H        0.926     0.036     2.503     2.474
    68   1 H        0.926     0.035     2.513     2.479
    69   1 H        0.926     0.034     2.534     2.489
    70   1 H        0.926     0.024     2.667     2.554
    71   1 H        0.926     0.028     2.609     2.526
    72   1 H        0.926     0.026     2.637     2.539
    73   1 H        0.926     0.029     2.604     2.524
    74   1 H        0.926     0.029     2.604     2.523
    75   1 H        0.926     0.026     2.637     2.539
    76   1 H        0.926     0.028     2.608     2.526
    77   1 H        0.926     0.024     2.666     2.553
    78   1 H        0.926     0.034     2.531     2.488
    79   1 H        0.926     0.036     2.508     2.476
    80   1 H        0.926     0.036     2.497     2.471
    81   1 H        0.926     0.035     2.514     2.479
    82   1 H        0.926     0.042     2.428     2.437
    83   1 H        0.926     0.046     2.365     2.405
    84   1 H        0.926     0.043     2.408     2.426
    85   1 H        0.926     0.032     2.551     2.498
    86   1 H        0.926     0.032     2.559     2.501
    87   1 H        0.926     0.035     2.522     2.483
    88   1 H        0.926     0.037     2.488     2.467
    89   1 H        0.926     0.033     2.547     2.496
    90   1 H        0.926     0.032     2.562     2.503
    91   1 H        0.926     0.028     2.616     2.529
    92   1 H        0.926     0.038     2.469     2.457
    93   1 H        0.926     0.045     2.382     2.413
    94   1 H        0.926     0.047     2.352     2.398
    95   1 H        0.926     0.045     2.389     2.417

molecular dipole:
                 x           y           z       tot (Debye)
 q only:       -0.185       1.342      -0.061
   full:       -0.430       1.632      -0.140       4.304

 projected vibrational frequencies (cm⁻¹)
eigval :       -0.00    -0.00    -0.00     0.00     0.00     0.00
eigval :        5.80    10.19    14.43    20.30    22.07    31.18
eigval :       34.20    36.75    46.14    54.07    57.78    67.37
eigval :       74.40    78.57    88.91    92.06    99.11   108.55
eigval :      120.16   127.03   140.62   143.11   151.24   157.48
eigval :      166.64   178.93   186.85   201.93   210.31   210.51
eigval :      231.81   240.23   246.01   255.05   271.17   272.11
eigval :      302.88   305.74   314.99   348.82   371.08   375.43
eigval :      379.16   387.75   394.04   396.09   399.98   405.11
eigval :      411.52   412.26   422.35   423.00   429.38   434.06
eigval :      436.66   439.88   446.65   447.49   456.06   473.52
eigval :      488.96   499.91   512.44   517.72   524.30   529.46
eigval :      533.56   538.78   541.30   542.81   543.93   582.51
eigval :      583.89   586.00   588.10   594.11   601.26   615.41
eigval :      619.53   631.00   639.99   642.01   650.13   661.86
eigval :      673.30   674.73   680.25   681.62   686.11   691.79
eigval :      704.87   706.62   708.33   721.81   734.22   735.61
eigval :      736.31   755.03   759.68   763.78   766.78   771.52
eigval :      775.76   776.28   778.20   780.29   783.80   813.98
eigval :      817.38   841.95   853.20   858.98   866.32   868.72
eigval :      871.36   873.07   873.16   873.39   876.76   888.01
eigval :      893.00   900.66   901.00   901.78   905.19   907.10
eigval :      911.99   914.89   915.89   919.05   920.40   920.81
eigval :      920.89   921.48   922.60   925.27   925.40   928.48
eigval :      929.91   930.53   932.07   933.98   943.17  1001.10
eigval :     1010.99  1016.00  1041.65  1056.77  1066.15  1069.66
eigval :     1080.78  1082.33  1082.61  1084.60  1096.81  1106.25
eigval :     1111.44  1133.93  1135.77  1141.57  1145.71  1149.37
eigval :     1151.05  1168.47  1171.02  1173.70  1178.78  1179.90
eigval :     1180.01  1180.56  1181.32  1183.41  1186.98  1193.08
eigval :     1194.73  1210.35  1217.47  1221.98  1227.83  1230.58
eigval :     1237.45  1249.10  1253.68  1255.25  1258.25  1261.98
eigval :     1269.43  1281.77  1287.54  1295.49  1305.29  1306.10
eigval :     1312.87  1326.44  1333.63  1335.51  1340.41  1346.61
eigval :     1348.35  1351.47  1356.59  1361.36  1381.51  1384.74
eigval :     1385.29  1391.62  1397.82  1405.93  1414.59  1417.72
eigval :     1419.05  1426.96  1428.26  1429.73  1430.75  1433.96
eigval :     1445.82  1455.29  1468.61  1474.09  1483.17  1487.74
eigval :     1505.21  1512.55  1513.42  1524.53  1531.70  1538.31
eigval :     1539.95  1556.42  1560.07  1563.59  1568.22  1571.07
eigval :     1588.01  1593.11  1594.15  1595.50  1597.29  1603.27
eigval :     1606.20  1608.74  1613.63  1620.53  3069.11  3069.40
eigval :     3069.90  3073.69  3073.85  3074.04  3074.48  3074.92
eigval :     3075.21  3075.64  3078.66  3078.84  3080.29  3080.56
eigval :     3080.75  3081.40  3081.95  3082.38  3082.96  3083.91
eigval :     3084.45  3088.38  3090.92  3092.21  3092.82  3093.32
eigval :     3096.09  3096.71  3096.77  3098.31  3098.47  3100.52
eigval :     3102.62  3109.25  3113.88

   temp. (K)  partition function   enthalpy   heat capacity  entropy
                                   cal/mol     cal/K/mol   cal/K/mol   J/K/mol
 298.15  VIB  0.749E+21            26731.330    172.220    165.836
         ROT  0.155E+09              888.752      2.981     40.459
         INT  0.116E+30            27620.082    175.201    206.295
         TR   0.203E+29             1481.254      4.968     45.750
         TOT                       29101.3358   180.1688   252.0448  1054.5556

       T/K    H(0)-H(T)+PV         H(T)/Eh          T*S/Eh         G(T)/Eh
   ------------------------------------------------------------------------
    298.15    0.463759E-01    0.772584E+00    0.119755E+00    0.652829E+00
   ------------------------------------------------------------------------

         :::::::::::::::::::::::::::::::::::::::::::::::::::::
         ::                  THERMODYNAMIC                  ::
         :::::::::::::::::::::::::::::::::::::::::::::::::::::
         :: total free energy        -148.188579171664 Eh   ::
         ::.................................................::
         :: total energy             -148.841408402617 Eh   ::
         :: zero point energy           0.726207934108 Eh   ::
         :: G(RRHO) w/o ZPVE           -0.073378703155 Eh   ::
         :: G(RRHO) contrib.            0.652829230953 Eh   ::
         :::::::::::::::::::::::::::::::::::::::::::::::::::::

           -------------------------------------------------
          | TOTAL ENERGY             -148.841408402617 Eh   |
          | TOTAL ENTHALPY           -148.068824537963 Eh   |
          | TOTAL FREE ENERGY        -148.188579171664 Eh   |
          | GRADIENT NORM               0.000042571809 Eh/α |
          | HOMO-LUMO GAP               1.946501086149 eV   |
           -------------------------------------------------

 * finished run on 2025/09/13 at 00:13:05.408
