   * xtb version 6.7.1 (edcfbbe) compiled by 'albert@albert-system' on 2024-07-22

   ID    Z sym.   atoms
    1    6 C      1-5, 7-19, 21-40, 42-60
    2    7 N      6, 20, 41
    3    1 H      61-95

          program call               : xtb data2507/toluene/CAPI/CAPI_toluene_S0_crest.xyz --gfn 2 --gbsa toluene --ohess vtight --parallel 40 --molden --ceasefiles --namespace data2507/toluene/CAPI/CAPI_toluene_S0_finalOpt
      * Solvation model:               GBSA
        Solvent                        toluene
        Solvent mass                       9.2140E+01 g/mol
          :  Hamiltonian                  GFN2-xTB          :
 * total energy  :  -148.8406428 Eh     change       -0.1301029E-07 Eh
 * total energy  :  -148.8407056 Eh     change       -0.6288409E-04 Eh
 * total energy  :  -148.8407557 Eh     change       -0.5007247E-04 Eh
 * total energy  :  -148.8407908 Eh     change       -0.3509337E-04 Eh
 * total energy  :  -148.8408186 Eh     change       -0.2776143E-04 Eh
 * total energy  :  -148.8408581 Eh     change       -0.3950872E-04 Eh
 * total energy  :  -148.8408980 Eh     change       -0.3990395E-04 Eh
 * total energy  :  -148.8409190 Eh     change       -0.2103519E-04 Eh
 * total energy  :  -148.8409397 Eh     change       -0.2071115E-04 Eh
 * total energy  :  -148.8409517 Eh     change       -0.1198182E-04 Eh
 * total energy  :  -148.8415226 Eh     change       -0.2803611E-06 Eh
 * total energy  :  -148.8415228 Eh     change       -0.2104519E-06 Eh
 * total energy  :  -148.8415230 Eh     change       -0.2061263E-06 Eh
 * total energy  :  -148.8415232 Eh     change       -0.1994439E-06 Eh
 * total energy  :  -148.8415234 Eh     change       -0.1585716E-06 Eh
 * total energy  :  -148.8415235 Eh     change       -0.1595841E-06 Eh
 * total energy  :  -148.8415237 Eh     change       -0.1621814E-06 Eh
 * total energy  :  -148.8415238 Eh     change       -0.1237056E-06 Eh
 * total energy  :  -148.8415239 Eh     change       -0.8074051E-07 Eh
   *** GEOMETRY OPTIMIZATION CONVERGED AFTER 138 ITERATIONS ***

 final structure:
================
95
 xtb: 6.7.1 (edcfbbe)
C           -1.92854374111946        4.39828207863392        1.29494906323210
C           -2.37603142670667        3.22604226323955        1.92415656561374
C           -3.05739647663288        2.27643334611247        1.21520914079843
C           -3.32228377034422        2.45795753113624       -0.15831750875045
C           -4.01984001657972        1.49961189992524       -0.93978146912176
N           -4.41047872299931        0.27547714972202       -0.35245491251686
C           -3.55197558728427       -0.72628888485498        0.04293136219482
C           -2.10108685316420       -0.66174350051470       -0.03299594873880
C           -1.41537091529014       -0.01234701136266       -1.05772303981762
C           -0.03475314069762        0.02649447280029       -1.05807337932161
C            0.69708519668154       -0.59049105711953       -0.04793546812579
C            2.17436547402578       -0.53584461812412       -0.04707075343414
C            2.91477280920400       -1.70042719098654       -0.29904015812774
C            2.28688612130585       -2.93882915700402       -0.59748933335590
C            3.01774178589196       -4.06709476188360       -0.81190759124275
C            4.42469243011567       -4.03044794932879       -0.73408578040063
C            5.06818216041812       -2.85926277480364       -0.47568868129659
C            4.34370207706031       -1.65570930082999       -0.27185758303049
C            4.98633416871708       -0.43230248686852       -0.03494132598104
N            6.39610354962969       -0.38006297367557       -0.02884532454186
C            7.21231917516076       -0.53144340578501       -1.12812096125531
C            6.86513100035601       -0.74120347581629       -2.45525412839415
C            7.88844442666904       -0.84903549289156       -3.37679284727459
C            9.22540715579853       -0.74797906572285       -2.99360619847596
C            9.57483660720622       -0.52814071635713       -1.67586761332596
C            8.56452656573166       -0.41586330887315       -0.72839609838249
C            8.54993761559156       -0.18613899337472        0.68968421279014
C            9.54088201734706       -0.00049947138759        1.64600485378179
C            9.16453753621964        0.19384054759412        2.96033923399030
C            7.82041487613611        0.19837071378942        3.33144329767943
C            6.81599151527008        0.01511952205674        2.40109437591532
C            7.18947607072837       -0.16943712040249        1.07740888588719
C            4.25349193889936        0.74052879836088        0.19551896327000
C            4.88624838430001        1.99345002090551        0.40740548313427
C            4.15639629236404        3.11476785620306        0.65743415983652
C            2.74964937417097        3.04914741784068        0.71752443539351
C            2.10544043590099        1.87041832195307        0.49717930458838
C            2.82498540335534        0.68046676900950        0.20897588157291
C            0.01208387056317       -1.26672090017879        0.95935582365380
C           -1.36634427884095       -1.30251102319463        0.96662145527923
N           -4.19346217704716       -1.75846897739625        0.53649103465786
C           -5.51485108113970       -1.44716540064597        0.46669034197641
C           -6.62399104879361       -2.25232905654995        0.85016208783430
C           -6.44353937337806       -3.54294525736769        1.36019878062781
C           -7.52739547525208       -4.31287376200278        1.70196737415509
C           -8.81176271561601       -3.79841685282066        1.53356238424362
C           -9.00101666909852       -2.52946426565456        1.03743716197130
C           -7.91869558701862       -1.70860515427824        0.68311795638884
C           -8.08612734860882       -0.35318836579118        0.18568923122079
C           -9.35319299398544        0.23761520854434        0.07170987113472
C           -9.51882233898333        1.53332867673167       -0.35793631830391
C           -8.40978877105714        2.30922823565926       -0.68111860829519
C           -7.15176428716242        1.76590939325536       -0.59193863750136
C           -6.96268396584230        0.43832713081559       -0.18131001997853
C           -5.68163268938792       -0.17261100187750       -0.07211308631619
C           -4.28607463338284        1.73054819858066       -2.26837642146999
C           -3.86485655412753        2.91935401772445       -2.87834314474603
C           -3.17249735753213        3.85472437796772       -2.16018838215738
C           -2.88654632275473        3.65160690309782       -0.79361648506842
C           -2.18031586629266        4.60706052640484       -0.03182824908851
H           -1.38812378509878        5.13473328043265        1.87114745025059
H           -2.17852659401390        3.07758220823387        2.97550178833540
H           -3.40261480268698        1.37794200319416        1.70627590519075
H           -1.95468047937695        0.45005569361768       -1.86948051909383
H            0.48668774964188        0.53256093449150       -1.85769460197177
H            1.20920451779103       -2.96885121116705       -0.65449785951604
H            2.52474284045505       -5.00106784577149       -1.03865623162133
H            4.98835460011905       -4.93920055018879       -0.88580602989367
H            6.14628592394661       -2.83409028071018       -0.42147583829537
H            5.82983907837753       -0.81976514376157       -2.75267820650078
H            7.64861193722090       -1.01549424312543       -4.41704711152998
H            9.99701579657189       -0.83993946568050       -3.74414707607989
H           10.61122838909807       -0.44420406875719       -1.38380300602042
H           10.58326028847729       -0.00948250791106        1.36343186404550
H            9.92071163693863        0.34148298854426        3.71767936584399
H            7.55989303524977        0.34748599740713        4.36933632728005
H            5.77514253562688        0.01771493519258        2.68927154284156
H            5.96406888041334        2.04550235492735        0.36695137882560
H            4.65100411001776        4.06184431602114        0.81582630014421
H            2.18694805390120        3.94475403555487        0.93567268902592
H            1.02801941909916        1.82178201220921        0.54045219617715
H            0.57018692552722       -1.75664538048547        1.74405970056243
H           -1.90101724132179       -1.82219157765958        1.74693080913359
H           -5.43286446575381       -3.90649308630298        1.46800829430834
H           -7.39083912069530       -5.30979970462158        2.09480187364929
H           -9.66872557158345       -4.40218113858035        1.79588471283784
H          -10.01306474366633       -2.17504408188175        0.92313617195518
H          -10.23324418878085       -0.32744692737557        0.33288808115126
H          -10.51140557079952        1.95292825160363       -0.43267303979628
H           -8.53572880376149        3.33430451240037       -0.99716428818940
H           -6.29281216015259        2.37341526835283       -0.82804500320522
H           -4.82313659582925        0.98765140955212       -2.84094913835466
H           -4.08708729335682        3.07973792282880       -3.92248778503206
H           -2.83626950250835        4.76731971271117       -2.62969594467638
H           -1.84571674474500        5.51057192566229       -0.52060045333686

          :  Hamiltonian                  GFN2-xTB          :
         :: gradient norm              0.000032403822 Eh/a0 ::
         :: HOMO-LUMO gap              1.958659885137 eV    ::
         :: SCC energy              -151.679220107009 Eh    ::
         :: -> dispersion             -0.147659800627 Eh    ::
         :: -> Gsolv                  -0.060324441079 Eh    ::
         :: repulsion energy           2.837696207390 Eh    ::

    * Orbital Energies and Occupations

         #    Occupation            Energy/Eh            Energy/eV
      -------------------------------------------------------------
         1        2.0000           -0.6896433             -18.7661
       ...           ...                  ...                  ...
       127        2.0000           -0.4118448             -11.2069
       128        2.0000           -0.4098774             -11.1533
       129        2.0000           -0.4064775             -11.0608
       130        2.0000           -0.4050264             -11.0213
       131        2.0000           -0.4029338             -10.9644
       132        2.0000           -0.4005859             -10.9005
       133        2.0000           -0.3917555             -10.6602
       134        2.0000           -0.3833688             -10.4320
       135        2.0000           -0.3794074             -10.3242
       136        2.0000           -0.3771336             -10.2623
       137        2.0000           -0.3702048             -10.0738
       138        2.0000           -0.3656618              -9.9502
       139        2.0000           -0.3587526              -9.7622 (HOMO)
       140                         -0.2867732              -7.8035 (LUMO)
       141                         -0.2750251              -7.4838
       142                         -0.2607506              -7.0954
       143                         -0.2505458              -6.8177
       144                         -0.2437161              -6.6319
       145                         -0.2434767              -6.6253
       146                         -0.2425694              -6.6007
       147                         -0.2372207              -6.4551
       148                         -0.2303775              -6.2689
       149                         -0.2250820              -6.1248
       150                         -0.2203874              -5.9970
       ...                                ...                  ...
       275                          0.7458984              20.2969
      -------------------------------------------------------------
                  HL-Gap            0.0719794 Eh            1.9587 eV

     #   Z          covCN         q      C6AA      α(0)
     1   6 C        2.915    -0.026    28.662     8.779
     2   6 C        2.916    -0.027    28.679     8.782
     3   6 C        2.916    -0.031    28.777     8.797
     4   6 C        2.986     0.002    27.964     8.674
     5   6 C        2.908     0.059    26.685     8.470
     6   7 N        2.840    -0.052    22.251     7.006
     7   6 C        3.190     0.137    24.566     8.085
     8   6 C        2.974    -0.002    28.083     8.693
     9   6 C        2.920    -0.036    28.905     8.816
    10   6 C        2.923    -0.032    28.796     8.800
    11   6 C        2.977     0.018    27.597     8.617
    12   6 C        2.976    -0.004    28.119     8.698
    13   6 C        2.984     0.007    27.853     8.657
    14   6 C        2.917    -0.033    28.831     8.805
    15   6 C        2.914    -0.029    28.713     8.787
    16   6 C        2.914    -0.028    28.698     8.785
    17   6 C        2.916    -0.032    28.797     8.800
    18   6 C        2.982     0.001    27.997     8.679
    19   6 C        2.911     0.045    26.997     8.520
    20   7 N        2.803    -0.047    22.152     6.990
    21   6 C        3.081     0.049    26.809     8.488
    22   6 C        2.909    -0.051    29.257     8.869
    23   6 C        2.924    -0.035    28.871     8.812
    24   6 C        2.919    -0.044    29.082     8.843
    25   6 C        2.912    -0.035    28.883     8.813
    26   6 C        3.068    -0.021    28.448     8.746
    27   6 C        3.068    -0.021    28.448     8.746
    28   6 C        2.912    -0.035    28.882     8.813
    29   6 C        2.920    -0.044    29.081     8.843
    30   6 C        2.924    -0.035    28.870     8.811
    31   6 C        2.909    -0.051    29.256     8.869
    32   6 C        3.081     0.049    26.808     8.488
    33   6 C        2.982     0.001    27.999     8.680
    34   6 C        2.916    -0.032    28.796     8.800
    35   6 C        2.914    -0.028    28.703     8.785
    36   6 C        2.914    -0.029    28.719     8.788
    37   6 C        2.917    -0.033    28.823     8.804
    38   6 C        2.984     0.007    27.859     8.658
    39   6 C        2.922    -0.030    28.761     8.795
    40   6 C        2.927    -0.029    28.722     8.789
    41   7 N        1.895    -0.320    29.140     8.003
    42   6 C        3.203     0.060    26.101     8.323
    43   6 C        2.985    -0.003    28.102     8.696
    44   6 C        2.921    -0.034    28.835     8.806
    45   6 C        2.917    -0.032    28.793     8.799
    46   6 C        2.917    -0.034    28.853     8.808
    47   6 C        2.921    -0.036    28.907     8.817
    48   6 C        2.979    -0.005    28.140     8.702
    49   6 C        2.979    -0.002    28.061     8.689
    50   6 C        2.922    -0.035    28.874     8.812
    51   6 C        2.916    -0.034    28.846     8.807
    52   6 C        2.917    -0.032    28.808     8.801
    53   6 C        2.919    -0.041    29.013     8.833
    54   6 C        2.978    -0.005    28.152     8.703
    55   6 C        3.075     0.022    27.425     8.586
    56   6 C        2.919    -0.040    28.991     8.830
    57   6 C        2.915    -0.030    28.749     8.792
    58   6 C        2.918    -0.036    28.891     8.814
    59   6 C        2.986     0.015    27.664     8.628
    60   6 C        2.919    -0.033    28.818     8.803
    61   1 H        0.926     0.042     2.425     2.435
    62   1 H        0.926     0.038     2.471     2.458
    63   1 H        0.926     0.026     2.647     2.544
    64   1 H        0.926     0.031     2.568     2.506
    65   1 H        0.926     0.039     2.468     2.457
    66   1 H        0.926     0.037     2.485     2.465
    67   1 H        0.926     0.036     2.504     2.474
    68   1 H        0.926     0.035     2.513     2.479
    69   1 H        0.926     0.034     2.535     2.490
    70   1 H        0.926     0.024     2.669     2.555
    71   1 H        0.926     0.028     2.610     2.526
    72   1 H        0.926     0.027     2.636     2.539
    73   1 H        0.926     0.029     2.603     2.523
    74   1 H        0.926     0.029     2.603     2.523
    75   1 H        0.926     0.027     2.636     2.539
    76   1 H        0.926     0.028     2.608     2.525
    77   1 H        0.926     0.025     2.666     2.553
    78   1 H        0.926     0.034     2.533     2.489
    79   1 H        0.926     0.036     2.509     2.477
    80   1 H        0.926     0.036     2.499     2.472
    81   1 H        0.926     0.035     2.519     2.482
    82   1 H        0.926     0.041     2.429     2.437
    83   1 H        0.926     0.047     2.356     2.400
    84   1 H        0.926     0.043     2.407     2.426
    85   1 H        0.926     0.033     2.551     2.498
    86   1 H        0.926     0.032     2.559     2.501
    87   1 H        0.926     0.035     2.522     2.483
    88   1 H        0.926     0.037     2.488     2.467
    89   1 H        0.926     0.033     2.547     2.496
    90   1 H        0.926     0.032     2.562     2.503
    91   1 H        0.926     0.028     2.615     2.529
    92   1 H        0.926     0.039     2.468     2.457
    93   1 H        0.926     0.045     2.382     2.413
    94   1 H        0.926     0.047     2.352     2.398
    95   1 H        0.926     0.045     2.388     2.417

molecular dipole:
                 x           y           z       tot (Debye)
 q only:       -0.182       1.293      -0.366
   full:       -0.427       1.561      -0.509       4.312

 projected vibrational frequencies (cm⁻¹)
eigval :       -0.00     0.00     0.00     0.00     0.00     0.00
eigval :        9.45    12.72    16.16    20.44    25.21    30.64
eigval :       33.07    39.14    45.90    54.44    55.90    61.97
eigval :       75.36    76.33    86.65    90.89   102.47   118.03
eigval :      121.83   126.91   140.05   146.58   157.01   159.44
eigval :      167.52   177.44   191.31   202.03   210.27   212.75
eigval :      232.86   239.79   246.69   255.36   271.59   272.18
eigval :      302.53   305.82   314.75   351.92   369.15   373.54
eigval :      378.99   387.46   395.74   396.75   400.39   404.18
eigval :      411.95   415.44   422.48   424.17   429.89   434.18
eigval :      435.70   439.73   446.95   449.84   458.52   473.65
eigval :      488.88   500.30   512.29   517.60   524.14   531.63
eigval :      534.03   536.76   540.64   543.49   543.83   583.22
eigval :      584.24   585.32   588.20   594.29   603.15   615.31
eigval :      615.40   631.13   641.44   643.05   650.45   662.27
eigval :      674.12   674.88   679.43   681.91   686.46   693.21
eigval :      704.57   705.87   709.73   720.55   735.08   736.16
eigval :      736.53   755.06   757.87   766.26   767.76   773.77
eigval :      775.05   775.62   779.11   782.59   783.64   813.21
eigval :      816.80   841.97   853.07   859.98   869.11   869.25
eigval :      871.92   872.13   874.53   874.62   877.10   887.89
eigval :      894.12   900.41   901.03   902.13   905.68   907.13
eigval :      912.79   913.29   916.05   918.89   920.13   920.47
eigval :      920.62   921.33   926.18   926.61   928.06   928.38
eigval :      928.91   929.48   929.54   934.26   943.11  1000.99
eigval :     1011.07  1015.82  1041.40  1056.78  1065.79  1069.21
eigval :     1080.55  1081.23  1082.15  1084.39  1096.64  1106.17
eigval :     1112.80  1133.94  1134.73  1140.75  1145.04  1147.77
eigval :     1150.51  1168.82  1170.34  1172.95  1177.89  1179.00
eigval :     1179.32  1179.59  1180.38  1182.57  1185.62  1192.69
eigval :     1195.07  1210.62  1217.47  1221.93  1227.39  1229.46
eigval :     1236.86  1249.02  1253.67  1255.49  1257.21  1262.52
eigval :     1268.60  1281.54  1286.95  1295.90  1304.67  1305.98
eigval :     1313.10  1326.90  1334.21  1335.46  1340.62  1347.04
eigval :     1348.32  1351.78  1356.55  1361.31  1381.63  1384.82
eigval :     1385.48  1391.49  1398.03  1406.03  1415.05  1417.47
eigval :     1419.11  1427.18  1428.22  1430.02  1430.80  1434.19
eigval :     1446.05  1455.09  1468.35  1473.85  1483.55  1487.56
eigval :     1504.99  1512.26  1513.14  1525.05  1532.01  1538.55
eigval :     1539.29  1556.49  1559.92  1563.55  1568.30  1571.08
eigval :     1587.90  1593.12  1593.96  1595.38  1597.31  1603.25
eigval :     1606.40  1608.59  1613.61  1620.76  3069.15  3069.19
eigval :     3069.49  3072.23  3074.00  3074.28  3074.75  3074.82
eigval :     3075.17  3077.13  3078.21  3078.75  3079.25  3080.02
eigval :     3080.79  3081.41  3081.96  3082.46  3083.25  3083.33
eigval :     3084.95  3088.78  3091.09  3091.58  3092.53  3093.37
eigval :     3095.82  3095.85  3096.66  3098.20  3098.76  3099.21
eigval :     3104.58  3108.89  3113.34

   temp. (K)  partition function   enthalpy   heat capacity  entropy
                                   cal/mol     cal/K/mol   cal/K/mol   J/K/mol
 298.15  VIB  0.280E+21            26684.982    172.112    164.640
         ROT  0.155E+09              888.752      2.981     40.463
         INT  0.435E+29            27573.735    175.093    205.103
         TR   0.203E+29             1481.254      4.968     45.750
         TOT                       29054.9885   180.0612   250.8535  1049.5710

       T/K    H(0)-H(T)+PV         H(T)/Eh          T*S/Eh         G(T)/Eh
   ------------------------------------------------------------------------
    298.15    0.463021E-01    0.772608E+00    0.119189E+00    0.653419E+00
   ------------------------------------------------------------------------

         :::::::::::::::::::::::::::::::::::::::::::::::::::::
         ::                  THERMODYNAMIC                  ::
         :::::::::::::::::::::::::::::::::::::::::::::::::::::
         :: total free energy        -148.188104893164 Eh   ::
         ::.................................................::
         :: total energy             -148.841523900999 Eh   ::
         :: zero point energy           0.726305527818 Eh   ::
         :: G(RRHO) w/o ZPVE           -0.072886519983 Eh   ::
         :: G(RRHO) contrib.            0.653419007835 Eh   ::
         :::::::::::::::::::::::::::::::::::::::::::::::::::::

           -------------------------------------------------
          | TOTAL ENERGY             -148.841523900999 Eh   |
          | TOTAL ENTHALPY           -148.068916301744 Eh   |
          | TOTAL FREE ENERGY        -148.188104893164 Eh   |
          | GRADIENT NORM               0.000032392590 Eh/α |
          | HOMO-LUMO GAP               1.958658603125 eV   |
           -------------------------------------------------

 * finished run on 2025/09/13 at 00:20:06.692
