   * xtb version 6.7.1 (edcfbbe) compiled by 'albert@albert-system' on 2024-07-22

   ID    Z sym.   atoms
    1    6 C      1-5, 7-19, 21-40, 42-60
    2    7 N      6, 20, 41
    3    1 H      61-95

          program call               : xtb data2507/toluene/CAPI/CAPI_toluene_S0_finalOpt.xtbopt.xyz --gfn 2 --uhf 2 --gbsa toluene --ohess vtight --parallel 40 --molden --ceasefiles --namespace data2507/toluene/CAPI/CAPI_toluene_T1_preOpt
      * Solvation model:               GBSA
        Solvent                        toluene
        Solvent mass                       9.2140E+01 g/mol
          :  Hamiltonian                  GFN2-xTB          :
 * total energy  :  -148.7662762 Eh     change       -0.6122292E-08 Eh
 * total energy  :  -148.7715753 Eh     change       -0.5299103E-02 Eh
 * total energy  :  -148.7730149 Eh     change       -0.1439603E-02 Eh
 * total energy  :  -148.7731697 Eh     change       -0.1548365E-03 Eh
 * total energy  :  -148.7733738 Eh     change       -0.2040556E-03 Eh
 * total energy  :  -148.7734984 Eh     change       -0.1245989E-03 Eh
 * total energy  :  -148.7736747 Eh     change       -0.1762983E-03 Eh
 * total energy  :  -148.7738554 Eh     change       -0.1807243E-03 Eh
 * total energy  :  -148.7739682 Eh     change       -0.1128082E-03 Eh
 * total energy  :  -148.7740572 Eh     change       -0.8902984E-04 Eh
 * total energy  :  -148.7747972 Eh     change       -0.5040946E-06 Eh
 * total energy  :  -148.7747977 Eh     change       -0.4729767E-06 Eh
 * total energy  :  -148.7747981 Eh     change       -0.3642807E-06 Eh
 * total energy  :  -148.7747984 Eh     change       -0.3008533E-06 Eh
 * total energy  :  -148.7747987 Eh     change       -0.3303682E-06 Eh
 * total energy  :  -148.7747991 Eh     change       -0.4073107E-06 Eh
 * total energy  :  -148.7747996 Eh     change       -0.4908034E-06 Eh
 * total energy  :  -148.7748002 Eh     change       -0.5651987E-06 Eh
 * total energy  :  -148.7748002 Eh     change       -0.4305122E-08 Eh
   *** GEOMETRY OPTIMIZATION CONVERGED AFTER 122 ITERATIONS ***

 final structure:
================
95
 xtb: 6.7.1 (edcfbbe)
C           -1.93045245232351        4.25988427755474        1.69412069925943
C           -2.35507770683334        3.01617372533075        2.18695961073400
C           -3.04252542424254        2.15052884000098        1.38263664945012
C           -3.33475698734032        2.49112514898847        0.04555592472263
C           -4.03467224621029        1.62263233831969       -0.83373100098316
N           -4.41200187235647        0.33664816131161       -0.38803773264218
C           -3.54900335712192       -0.70768522680487       -0.11986798237949
C           -2.10721703094049       -0.65241475755197       -0.19906594745589
C           -1.39966424378110        0.19965423201842       -1.05351684636348
C           -0.02479828025249        0.22939237715544       -1.03295848035808
C            0.71401163765571       -0.60927222425982       -0.18532294803296
C            2.16452603862065       -0.55516800511663       -0.15206046901716
C            2.92869187140403       -1.75220055049704       -0.33210557961924
C            2.32779723335280       -2.97616634541479       -0.64290211523659
C            3.07325432783325       -4.14694457735429       -0.75157683631886
C            4.43802643560837       -4.11696571697262       -0.54859875433035
C            5.07271492121113       -2.90491271152038       -0.30020157107282
C            4.35187640188764       -1.70723418088436       -0.23725083843369
C            4.99557308220830       -0.45011908680992       -0.05213712234976
N            6.39178032078286       -0.39768386661658        0.00359194696150
C            7.25833339185843       -0.76141818878802       -1.00902770323351
C            6.96957289761312       -1.20391080187129       -2.29286125490465
C            8.03213343722341       -1.47017642047349       -3.13521897347173
C            9.35070282396483       -1.29346912088245       -2.71957163877153
C            9.64245689876812       -0.83307451075213       -1.44912314797510
C            8.59205539741809       -0.56032018008496       -0.58370257443897
C            8.51831928278130       -0.06142909084649        0.76375812735657
C            9.47141657195009        0.29124704445704        1.70930715564784
C            9.04349746557427        0.72091621397786        2.95165234644735
C            7.68615586554044        0.78926373168615        3.26072912212335
C            6.71865771041976        0.44313058892251        2.33682683793399
C            7.14324698881993        0.03037277842829        1.08113260108860
C            4.24895707464248        0.75620584081977        0.07730419176517
C            4.87440320231452        2.00345226693815        0.18434258217341
C            4.13750216549787        3.16642365679924        0.37924911852519
C            2.76299301700562        3.09690151695597        0.48200988255301
C            2.11471261348646        1.87474920025170        0.32752577619730
C            2.82314798410351        0.69674417462243        0.07005771725346
C           -0.00182017023762       -1.50180394890048        0.62905493637696
C           -1.37481183571099       -1.51672458172436        0.62730707849304
N           -4.19569787435906       -1.78899798285335        0.26069796811236
C           -5.51236075056158       -1.46862316290813        0.23932332911559
C           -6.62084058325726       -2.31131516825627        0.53427786568371
C           -6.43842055485032       -3.65359017779699        0.88502573045584
C           -7.52110320789909       -4.45860526917524        1.13932443402394
C           -8.80564932410377       -3.92712405088648        1.04120099824514
C           -8.99673535367165       -2.60768070221967        0.70092175485181
C           -7.91574191394270       -1.75066113046466        0.44185603738651
C           -8.08363709531791       -0.34499903842262        0.11173024139644
C           -9.34985215635432        0.25661542954170        0.08252412482431
C           -9.51717425495872        1.59455535378146       -0.18873717126595
C           -8.40962373706208        2.40190602930747       -0.42975585090385
C           -7.15200320876738        1.85086631957964       -0.41778298858222
C           -6.96087058685794        0.48304597564560       -0.17035462201856
C           -5.68090157384963       -0.13752109849061       -0.14802020579944
C           -4.32260179443588        2.00444133338894       -2.12262049795091
C           -3.92256896166257        3.26143365998743       -2.59442165250419
C           -3.23029620567165        4.11491136410673       -1.78044195553671
C           -2.92082783961693        3.75599506035479       -0.45134804520959
C           -2.21003993013363        4.62246531106745        0.40651838028546
H           -1.38433116588646        4.92793998507670        2.34370518492128
H           -2.13468316557713        2.74501803314002        3.20885633802513
H           -3.36856898236267        1.19537248306826        1.76887039417745
H           -1.92495007687952        0.82499706190608       -1.75796447412054
H            0.50267597621362        0.87840409184107       -1.71699760616495
H            1.26243554226524       -3.01844707099962       -0.80762446736364
H            2.57413254978612       -5.07525636655881       -0.98705600857993
H            5.02215643415868       -5.02372872354340       -0.60067732393629
H            6.14317502866262       -2.89316087705644       -0.16172182290267
H            5.94906404804874       -1.33926368844584       -2.61784989207074
H            7.83645710398071       -1.82033934926242       -4.13811264281898
H           10.15462882268099       -1.51489552283399       -3.40602743206658
H           10.66450149856943       -0.68289936447771       -1.13516205820146
H           10.52389997241820        0.22512004571957        1.47782898886739
H            9.76970283314341        1.00264990085817        3.69988401141094
H            7.38369335694469        1.11740997728386        4.24434103005166
H            5.66806785424968        0.49478942520819        2.57952722825867
H            5.95000451609075        2.06900948537135        0.12239558984444
H            4.64949896353678        4.11309176376590        0.46813283639513
H            2.18083963550384        3.98579452594382        0.67468691528322
H            1.04009774202414        1.84058991247026        0.41358517269727
H            0.54096873105491       -2.14751685160279        1.30394520605669
H           -1.92005377908935       -2.18374057949221        1.27744864148156
H           -5.42738648461540       -4.02771227788918        0.94094905526955
H           -7.38298303895314       -5.49529729299321        1.40930033900296
H           -9.66174060232550       -4.55766140056793        1.23412216274314
H          -10.00916357979362       -2.24251945454125        0.63402598798872
H          -10.22829731516659       -0.33415363727953        0.28568439284894
H          -10.50944377986421        2.02108217384125       -0.20268404913385
H           -8.53640908388975        3.45719108607094       -0.62144840645567
H           -6.29471349551164        2.48187754223191       -0.58855858281948
H           -4.85983962132662        1.32677984980380       -2.77096276528168
H           -4.16093280131156        3.54025634070152       -3.60968152378733
H           -2.91072321421554        5.08026783642151       -2.14419227050524
H           -1.89222136856889        5.58114306365033        0.02280154748687

          :  Hamiltonian                  GFN2-xTB          :
         :: gradient norm              0.000048846623 Eh/a0 ::
         :: HOMO-LUMO gap              0.432585804863 eV    ::
         :: SCC energy              -151.594461463402 Eh    ::
         :: -> dispersion             -0.148109183828 Eh    ::
         :: -> Gsolv                  -0.059659735035 Eh    ::
         :: repulsion energy           2.819661284531 Eh    ::

    * Orbital Energies and Occupations

         #    Occupation            Energy/Eh            Energy/eV
      -------------------------------------------------------------
         1        2.0000           -0.6889641             -18.7477
       ...           ...                  ...                  ...
       128        2.0000           -0.4075788             -11.0908
       129        2.0000           -0.4052496             -11.0274
       130        2.0000           -0.4026772             -10.9574
       131        2.0000           -0.4004232             -10.8961
       132        2.0000           -0.3989443             -10.8558
       133        2.0000           -0.3913189             -10.6483
       134        2.0000           -0.3836042             -10.4384
       135        2.0000           -0.3823719             -10.4049
       136        2.0000           -0.3786867             -10.3046
       137        2.0000           -0.3713860             -10.1059
       138        1.9997           -0.3659293              -9.9574
       139        1.0003           -0.3503946              -9.5347
       140        0.9998           -0.2905013              -7.9049 (HOMO)
       141        0.0002           -0.2746041              -7.4724 (LUMO)
       142                         -0.2606662              -7.0931
       143                         -0.2509581              -6.8289
       144                         -0.2482400              -6.7550
       145                         -0.2436417              -6.6298
       146                         -0.2421587              -6.5895
       147                         -0.2294209              -6.2429
       148                         -0.2260062              -6.1499
       149                         -0.2256199              -6.1394
       150                         -0.2226926              -6.0598
       151                         -0.2121427              -5.7727
       ...                                ...                  ...
       275                          0.7398448              20.1322
      -------------------------------------------------------------
                  HL-Gap            0.0158972 Eh            0.4326 eV

     #   Z          covCN         q      C6AA      α(0)
     1   6 C        2.915    -0.026    28.660     8.779
     2   6 C        2.916    -0.027    28.677     8.781
     3   6 C        2.916    -0.031    28.767     8.795
     4   6 C        2.986     0.003    27.952     8.673
     5   6 C        2.908     0.059    26.669     8.468
     6   7 N        2.838    -0.054    22.279     7.010
     7   6 C        3.182     0.138    24.608     8.097
     8   6 C        2.973    -0.006    28.170     8.706
     9   6 C        2.918    -0.038    28.953     8.824
    10   6 C        2.922    -0.034    28.835     8.806
    11   6 C        2.973     0.016    27.642     8.624
    12   6 C        2.971    -0.014    28.348     8.733
    13   6 C        2.977     0.007    27.857     8.658
    14   6 C        2.921    -0.039    28.977     8.827
    15   6 C        2.914    -0.032    28.802     8.800
    16   6 C        2.914    -0.032    28.793     8.799
    17   6 C        2.920    -0.038    28.957     8.824
    18   6 C        2.977     0.002    27.973     8.676
    19   6 C        2.907     0.030    27.341     8.574
    20   7 N        2.798    -0.026    21.755     6.927
    21   6 C        3.077     0.049    26.826     8.492
    22   6 C        2.909    -0.045    29.119     8.848
    23   6 C        2.924    -0.033    28.825     8.804
    24   6 C        2.920    -0.039    28.970     8.826
    25   6 C        2.912    -0.033    28.829     8.804
    26   6 C        3.065    -0.016    28.347     8.731
    27   6 C        3.065    -0.016    28.347     8.731
    28   6 C        2.912    -0.033    28.829     8.804
    29   6 C        2.920    -0.039    28.970     8.826
    30   6 C        2.924    -0.033    28.825     8.805
    31   6 C        2.909    -0.045    29.118     8.848
    32   6 C        3.077     0.049    26.826     8.492
    33   6 C        2.977     0.002    27.972     8.676
    34   6 C        2.920    -0.039    28.964     8.826
    35   6 C        2.914    -0.032    28.800     8.800
    36   6 C        2.914    -0.033    28.811     8.802
    37   6 C        2.921    -0.040    28.982     8.828
    38   6 C        2.977     0.007    27.860     8.658
    39   6 C        2.921    -0.032    28.809     8.802
    40   6 C        2.925    -0.031    28.768     8.796
    41   7 N        1.895    -0.321    29.176     8.008
    42   6 C        3.198     0.063    26.074     8.323
    43   6 C        2.985    -0.004    28.112     8.697
    44   6 C        2.921    -0.033    28.816     8.803
    45   6 C        2.917    -0.032    28.790     8.799
    46   6 C        2.917    -0.034    28.838     8.806
    47   6 C        2.921    -0.036    28.900     8.816
    48   6 C        2.978    -0.005    28.130     8.700
    49   6 C        2.979    -0.001    28.056     8.688
    50   6 C        2.922    -0.035    28.868     8.811
    51   6 C        2.916    -0.034    28.837     8.806
    52   6 C        2.916    -0.032    28.804     8.801
    53   6 C        2.919    -0.040    29.002     8.831
    54   6 C        2.977    -0.006    28.162     8.705
    55   6 C        3.071     0.025    27.383     8.580
    56   6 C        2.919    -0.040    29.001     8.831
    57   6 C        2.915    -0.030    28.752     8.793
    58   6 C        2.918    -0.036    28.899     8.815
    59   6 C        2.986     0.015    27.666     8.628
    60   6 C        2.919    -0.033    28.820     8.803
    61   1 H        0.926     0.042     2.427     2.436
    62   1 H        0.926     0.038     2.477     2.461
    63   1 H        0.926     0.025     2.652     2.547
    64   1 H        0.926     0.029     2.604     2.524
    65   1 H        0.926     0.038     2.478     2.462
    66   1 H        0.926     0.035     2.511     2.478
    67   1 H        0.926     0.031     2.571     2.507
    68   1 H        0.926     0.031     2.579     2.511
    69   1 H        0.926     0.029     2.602     2.522
    70   1 H        0.926     0.031     2.572     2.508
    71   1 H        0.926     0.034     2.533     2.489
    72   1 H        0.926     0.033     2.546     2.495
    73   1 H        0.926     0.035     2.515     2.480
    74   1 H        0.926     0.035     2.515     2.480
    75   1 H        0.926     0.033     2.546     2.495
    76   1 H        0.926     0.034     2.532     2.488
    77   1 H        0.926     0.031     2.571     2.508
    78   1 H        0.926     0.029     2.605     2.524
    79   1 H        0.926     0.031     2.577     2.510
    80   1 H        0.926     0.031     2.572     2.508
    81   1 H        0.926     0.033     2.551     2.497
    82   1 H        0.926     0.041     2.435     2.440
    83   1 H        0.926     0.047     2.363     2.404
    84   1 H        0.926     0.044     2.401     2.423
    85   1 H        0.926     0.033     2.541     2.493
    86   1 H        0.926     0.033     2.546     2.495
    87   1 H        0.926     0.035     2.511     2.478
    88   1 H        0.926     0.038     2.478     2.462
    89   1 H        0.926     0.034     2.536     2.491
    90   1 H        0.926     0.032     2.555     2.500
    91   1 H        0.926     0.028     2.610     2.526
    92   1 H        0.926     0.038     2.474     2.460
    93   1 H        0.926     0.045     2.385     2.415
    94   1 H        0.926     0.047     2.356     2.401
    95   1 H        0.926     0.044     2.393     2.419

molecular dipole:
                 x           y           z       tot (Debye)
 q only:        0.595       1.300      -0.197
   full:        0.324       1.586      -0.308       4.188

 projected vibrational frequencies (cm⁻¹)
eigval :       -0.00    -0.00    -0.00    -0.00     0.00     0.00
eigval :        5.85     8.44    16.07    20.23    29.38    30.55
eigval :       40.04    40.87    48.42    56.28    59.67    76.83
eigval :       79.01    81.54    87.78    92.89    97.70   120.40
eigval :      128.02   131.21   142.55   148.75   156.12   159.21
eigval :      167.15   182.70   192.14   202.14   210.59   215.04
eigval :      241.04   244.72   247.22   258.26   270.97   272.98
eigval :      301.88   305.68   314.87   351.73   353.51   371.52
eigval :      378.05   386.24   390.25   393.38   396.60   399.29
eigval :      407.18   410.66   413.79   418.85   426.67   428.16
eigval :      434.86   435.71   439.93   448.53   472.92   473.86
eigval :      489.47   496.85   511.69   514.29   523.11   523.66
eigval :      533.23   535.10   537.78   541.55   543.73   571.38
eigval :      581.61   584.21   585.72   593.85   595.07   605.75
eigval :      608.07   627.79   630.98   641.82   649.33   662.08
eigval :      669.83   672.50   674.34   678.01   680.84   684.63
eigval :      697.55   705.13   709.55   712.31   722.94   734.06
eigval :      734.80   747.29   754.33   758.26   761.75   763.56
eigval :      764.45   773.88   776.01   780.34   783.65   815.69
eigval :      818.97   840.17   841.03   843.20   848.58   862.47
eigval :      865.03   865.69   866.25   873.17   879.85   880.81
eigval :      887.99   890.92   896.48   898.05   899.42   900.04
eigval :      904.44   904.80   907.69   907.75   913.35   914.68
eigval :      918.26   918.61   922.12   923.42   924.24   926.06
eigval :      928.88   930.89   936.64   940.45   948.84   996.14
eigval :     1010.33  1012.42  1037.37  1056.99  1066.13  1069.57
eigval :     1081.13  1084.41  1096.53  1101.31  1106.45  1106.79
eigval :     1111.36  1117.30  1131.20  1139.13  1143.22  1145.20
eigval :     1150.62  1164.91  1169.24  1171.80  1176.87  1178.42
eigval :     1179.19  1180.53  1181.22  1183.64  1184.22  1185.62
eigval :     1193.45  1203.96  1210.97  1220.13  1221.90  1229.07
eigval :     1236.50  1249.68  1253.85  1255.73  1257.93  1263.10
eigval :     1268.00  1281.88  1284.54  1288.52  1292.66  1295.81
eigval :     1307.81  1309.97  1316.12  1322.87  1333.64  1334.57
eigval :     1341.86  1348.39  1349.09  1355.26  1363.02  1364.80
eigval :     1371.44  1378.17  1383.60  1390.94  1402.18  1410.33
eigval :     1411.65  1416.74  1417.68  1419.69  1420.44  1425.01
eigval :     1429.25  1431.89  1446.72  1456.44  1463.54  1472.10
eigval :     1483.40  1491.80  1493.99  1504.59  1508.92  1515.36
eigval :     1526.62  1528.40  1538.10  1547.02  1557.29  1559.81
eigval :     1562.33  1568.57  1569.51  1583.32  1586.45  1590.27
eigval :     1593.01  1600.69  1603.75  1608.60  3070.19  3073.68
eigval :     3073.84  3074.09  3074.49  3074.82  3075.82  3075.91
eigval :     3077.44  3078.13  3079.55  3079.86  3080.22  3080.47
eigval :     3082.23  3082.39  3084.18  3084.35  3084.61  3086.46
eigval :     3087.34  3092.99  3093.45  3093.60  3094.40  3095.72
eigval :     3096.61  3096.92  3098.48  3099.19  3099.78  3103.94
eigval :     3106.66  3109.67  3116.51

   temp. (K)  partition function   enthalpy   heat capacity  entropy
                                   cal/mol     cal/K/mol   cal/K/mol   J/K/mol
 298.15  VIB  0.308E+21            26734.607    173.628    165.240
         ROT  0.156E+09              888.752      2.981     40.473
         INT  0.482E+29            27623.360    176.609    205.713
         TR   0.203E+29             1481.254      4.968     45.750
         TOT                       29104.6137   181.5771   251.4630  1052.1214

       T/K    H(0)-H(T)+PV         H(T)/Eh          T*S/Eh         G(T)/Eh
   ------------------------------------------------------------------------
    298.15    0.463812E-01    0.770137E+00    0.119478E+00    0.650658E+00
   ------------------------------------------------------------------------

         :::::::::::::::::::::::::::::::::::::::::::::::::::::
         ::                  THERMODYNAMIC                  ::
         :::::::::::::::::::::::::::::::::::::::::::::::::::::
         :: total free energy        -148.124141729734 Eh   ::
         ::.................................................::
         :: total energy             -148.774800175569 Eh   ::
         :: zero point energy           0.723755499865 Eh   ::
         :: G(RRHO) w/o ZPVE           -0.073097054029 Eh   ::
         :: G(RRHO) contrib.            0.650658445836 Eh   ::
         :::::::::::::::::::::::::::::::::::::::::::::::::::::

           -------------------------------------------------
          | TOTAL ENERGY             -148.774800175569 Eh   |
          | TOTAL ENTHALPY           -148.004663521515 Eh   |
          | TOTAL FREE ENERGY        -148.124141729734 Eh   |
          | GRADIENT NORM               0.000048840008 Eh/α |
          | HOMO-LUMO GAP               0.432583908256 eV   |
           -------------------------------------------------

 * finished run on 2025/09/13 at 00:20:23.703
