   * xtb version 6.7.1 (edcfbbe) compiled by 'albert@albert-system' on 2024-07-22

   ID    Z sym.   atoms
    1    6 C      1-5, 7-19, 21-40, 42-60
    2    7 N      6, 20, 41
    3    1 H      61-95

          program call               : xtb data2507/toluene/CAPI/CAPI_toluene_T1_crest.xyz --gfn 2 --uhf 2 --gbsa toluene --ohess vtight --parallel 40 --molden --ceasefiles --namespace data2507/toluene/CAPI/CAPI_toluene_T1_finalOpt
      * Solvation model:               GBSA
        Solvent                        toluene
        Solvent mass                       9.2140E+01 g/mol
          :  Hamiltonian                  GFN2-xTB          :
 * total energy  :  -148.7739377 Eh     change       -0.3601002E-08 Eh
 * total energy  :  -148.7739994 Eh     change       -0.6169447E-04 Eh
 * total energy  :  -148.7740443 Eh     change       -0.4489342E-04 Eh
 * total energy  :  -148.7740718 Eh     change       -0.2745054E-04 Eh
 * total energy  :  -148.7740929 Eh     change       -0.2117313E-04 Eh
 * total energy  :  -148.7741316 Eh     change       -0.3861354E-04 Eh
 * total energy  :  -148.7741591 Eh     change       -0.2758035E-04 Eh
 * total energy  :  -148.7741898 Eh     change       -0.3067767E-04 Eh
 * total energy  :  -148.7742104 Eh     change       -0.2058591E-04 Eh
 * total energy  :  -148.7742203 Eh     change       -0.9843102E-05 Eh
 * total energy  :  -148.7747831 Eh     change       -0.5964253E-06 Eh
 * total energy  :  -148.7747836 Eh     change       -0.5431112E-06 Eh
 * total energy  :  -148.7747841 Eh     change       -0.4550394E-06 Eh
 * total energy  :  -148.7747845 Eh     change       -0.3622867E-06 Eh
 * total energy  :  -148.7747847 Eh     change       -0.2833448E-06 Eh
 * total energy  :  -148.7747851 Eh     change       -0.3485962E-06 Eh
 * total energy  :  -148.7747856 Eh     change       -0.4750878E-06 Eh
 * total energy  :  -148.7747861 Eh     change       -0.5583059E-06 Eh
 * total energy  :  -148.7747861 Eh     change       -0.2399872E-08 Eh
   *** GEOMETRY OPTIMIZATION CONVERGED AFTER 68 ITERATIONS ***

 final structure:
================
95
 xtb: 6.7.1 (edcfbbe)
C           -1.81644773087101        4.19747296232398        1.59558050093438
C           -2.26397240938511        2.97359111714227        2.11703858317923
C           -2.98700435345634        2.11244809121793        1.33965863548099
C           -3.29242523102696        2.43676921347615        0.00135634600229
C           -4.02655572329836        1.57058819985423       -0.85176601897389
N           -4.41681051858337        0.29752791268082       -0.38154293684062
C           -3.56015131235660       -0.74796717002026       -0.09912552132252
C           -2.11837302356516       -0.69480134440146       -0.18943881067249
C           -1.42370916560275        0.09778598381741       -1.10899862462852
C           -0.04908285385498        0.13482318573467       -1.10511856910232
C            0.70295871111204       -0.63064399546906       -0.20056667524718
C            2.15208401723718       -0.56199506219155       -0.17725277028547
C            2.92637729217428       -1.76570567322574       -0.23199856850211
C            2.33719956600918       -3.01847999665527       -0.42906727087845
C            3.08912145375210       -4.18981762517981       -0.40366519164956
C            4.44919689513364       -4.13124711208845       -0.17643434272300
C            5.07422562883426       -2.89628943837393       -0.04497709909010
C            4.34792966068306       -1.70261583414160       -0.12267983817994
C            4.98348617693182       -0.42920059253835       -0.06791230701624
N            6.37761597081306       -0.35979303021555        0.01193839580686
C            7.27357281148279       -0.83407661123127       -0.92685385727838
C            7.02382254522297       -1.42906129826604       -2.15625358319588
C            8.11093861062376       -1.78193578006463       -2.93291446907709
C            9.41643160972415       -1.54262464583513       -2.50744989152783
C            9.66974657266435       -0.93178323458054       -1.29348357741151
C            8.59404690557116       -0.57028536943738       -0.49421484204147
C            8.48107294433525        0.08596037097313        0.78102624667324
C            9.40647527001585        0.55943915186867        1.70095685144271
C            8.94296385019017        1.13558772675420        2.86892959590169
C            7.57738275894194        1.22892565871657        3.13177267714764
C            6.63715841928116        0.76211217299886        2.23321672323075
C            7.09754152592460        0.20291153568615        1.04883958613739
C            4.22886498341897        0.77894410633050       -0.08622795531969
C            4.84744990522965        2.03363685506330       -0.12475836848078
C            4.10476399843180        3.20724519055548       -0.06093997723354
C            2.73128538788272        3.14180186260748        0.05810418535888
C            2.08987813380503        1.90648228790746        0.04353561193065
C            2.80339827930007        0.71086745978519       -0.08775007650719
C           -0.00178966855149       -1.46415146681632        0.68404388786842
C           -1.37460733180079       -1.49272787309420        0.69079010993261
N           -4.21074953175742       -1.81779172329904        0.30406852943074
C           -5.52609493382496       -1.48876722592441        0.28262088208821
C           -6.63968708232975       -2.31969985448650        0.59134970601183
C           -6.46647082803964       -3.65980556848140        0.95496816107858
C           -7.55460613118189       -4.45493791729857        1.21699888714608
C           -8.83559240860458       -3.91579282909687        1.11404798619987
C           -9.01768857112120       -2.59807767051235        0.76238638298473
C           -7.93089639060119       -1.75084242766663        0.49566881729804
C           -8.08959212986969       -0.34688569401014        0.15410673499679
C           -9.35033186371711        0.26646800300815        0.13276160633444
C           -9.50766994432377        1.60347220272538       -0.14894444819149
C           -8.39517480354377        2.39787220003792       -0.40959651120596
C           -7.14271133954492        1.83508423651320       -0.40537109018594
C           -6.96218091958233        0.46800625911896       -0.14638163004389
C           -5.68745409717858       -0.16325077839307       -0.12612579927014
C           -4.33200042049363        1.94045400534945       -2.14005977622066
C           -3.91462229735077        3.18161583870279       -2.63783428280681
C           -3.18554592167619        4.02998435360014       -1.85116587939905
C           -2.85851747116528        3.68375002199549       -0.52299536408202
C           -2.11130020311431        4.54618303229607        0.30759989161075
H           -1.24100446467170        4.86144785191793        2.22364183919474
H           -2.03353216792779        2.71460581809942        3.13985974239282
H           -3.33210180564300        1.17368976066031        1.74867279094564
H           -1.96049436028170        0.66765381656773       -1.85128998325603
H            0.46745468418057        0.72972130093626       -1.84442624534673
H            1.27566033213063       -3.08402927515052       -0.60986771690695
H            2.59844879218274       -5.14019221692169       -0.55296602206869
H            5.03748319849692       -5.03514831190505       -0.12175906295683
H            6.14146154112335       -2.86371292226818        0.11315790805609
H            6.01384775026261       -1.61295292338029       -2.49005369632556
H            7.94508383224974       -2.25106826012668       -3.89162437614585
H           10.24013454507848       -1.83504290812346       -3.14189645451085
H           10.68152788979887       -0.73395066164107       -0.97274761762791
H           10.46515071811809        0.47410432082540        1.50692928974763
H            9.64707317962718        1.51424095623417        3.59517744866707
H            7.24663061663275        1.67359294815668        4.05885771727129
H            5.58019615521271        0.83267731747465        2.44101560631928
H            5.92253406175689        2.09682992134172       -0.19827909698233
H            4.61136754753406        4.16069929905485       -0.08303946330273
H            2.14439534909784        4.04314156301566        0.15444837394416
H            1.01641237027349        1.87648110444895        0.14193995355358
H            0.54985618311238       -2.05036782463378        1.40441809384791
H           -1.90951434373491       -2.11591450310093        1.39125244078145
H           -5.45810670119926       -4.04068032739007        1.01332818708315
H           -7.42349426229118       -5.49009821327290        1.49617116583578
H           -9.69595828059100       -4.53900182684647        1.31172131224258
H          -10.02757070488567       -2.22669198253817        0.69115089291634
H          -10.23196011673606       -0.31369183503028        0.35215477867062
H          -10.49583300767501        2.03963483589559       -0.15543132552778
H           -8.51403540454826        3.45251687250200       -0.60969288390693
H           -6.28108457086825        2.45621383561213       -0.59047269865137
H           -4.89624406884386        1.26544334178314       -2.76800568281605
H           -4.16785208530918        3.45144875782284       -3.65193491198839
H           -2.85072710019494        4.98197295496672       -2.23579812369432
H           -1.77760423817961        5.49054460047983       -0.09755542347493

          :  Hamiltonian                  GFN2-xTB          :
         :: gradient norm              0.000038281242 Eh/a0 ::
         :: HOMO-LUMO gap              0.438380540834 eV    ::
         :: SCC energy              -151.594416470627 Eh    ::
         :: -> dispersion             -0.148394514931 Eh    ::
         :: -> Gsolv                  -0.059605625003 Eh    ::
         :: repulsion energy           2.819630343439 Eh    ::

    * Orbital Energies and Occupations

         #    Occupation            Energy/Eh            Energy/eV
      -------------------------------------------------------------
         1        2.0000           -0.6890627             -18.7503
       ...           ...                  ...                  ...
       128        2.0000           -0.4076809             -11.0936
       129        2.0000           -0.4051358             -11.0243
       130        2.0000           -0.4026118             -10.9556
       131        2.0000           -0.4001675             -10.8891
       132        2.0000           -0.3990612             -10.8590
       133        2.0000           -0.3912625             -10.6468
       134        2.0000           -0.3835353             -10.4365
       135        2.0000           -0.3823766             -10.4050
       136        2.0000           -0.3788260             -10.3084
       137        2.0000           -0.3714428             -10.1075
       138        1.9998           -0.3660866              -9.9617
       139        1.0002           -0.3502895              -9.5319
       140        0.9998           -0.2906690              -7.9095 (HOMO)
       141        0.0002           -0.2745589              -7.4711 (LUMO)
       142                         -0.2601040              -7.0778
       143                         -0.2509385              -6.8284
       144                         -0.2482464              -6.7551
       145                         -0.2434615              -6.6249
       146                         -0.2420770              -6.5873
       147                         -0.2295560              -6.2465
       148                         -0.2260804              -6.1520
       149                         -0.2256596              -6.1405
       150                         -0.2226782              -6.0594
       151                         -0.2124715              -5.7816
       ...                                ...                  ...
       275                          0.7397790              20.1304
      -------------------------------------------------------------
                  HL-Gap            0.0161101 Eh            0.4384 eV

     #   Z          covCN         q      C6AA      α(0)
     1   6 C        2.915    -0.026    28.660     8.779
     2   6 C        2.916    -0.027    28.678     8.782
     3   6 C        2.916    -0.031    28.769     8.796
     4   6 C        2.986     0.003    27.957     8.673
     5   6 C        2.908     0.059    26.672     8.468
     6   7 N        2.838    -0.054    22.278     7.010
     7   6 C        3.183     0.138    24.586     8.092
     8   6 C        2.973    -0.006    28.169     8.706
     9   6 C        2.918    -0.038    28.943     8.822
    10   6 C        2.922    -0.034    28.839     8.807
    11   6 C        2.972     0.016    27.647     8.625
    12   6 C        2.970    -0.014    28.349     8.733
    13   6 C        2.977     0.007    27.859     8.658
    14   6 C        2.921    -0.039    28.974     8.827
    15   6 C        2.914    -0.032    28.804     8.801
    16   6 C        2.914    -0.032    28.792     8.799
    17   6 C        2.920    -0.039    28.958     8.825
    18   6 C        2.977     0.002    27.974     8.676
    19   6 C        2.907     0.030    27.340     8.574
    20   7 N        2.798    -0.026    21.753     6.927
    21   6 C        3.076     0.049    26.829     8.492
    22   6 C        2.909    -0.045    29.119     8.848
    23   6 C        2.923    -0.033    28.825     8.805
    24   6 C        2.920    -0.039    28.970     8.826
    25   6 C        2.912    -0.033    28.829     8.804
    26   6 C        3.065    -0.016    28.347     8.730
    27   6 C        3.065    -0.016    28.346     8.730
    28   6 C        2.912    -0.033    28.829     8.804
    29   6 C        2.920    -0.039    28.970     8.826
    30   6 C        2.924    -0.033    28.825     8.805
    31   6 C        2.909    -0.045    29.117     8.848
    32   6 C        3.077     0.049    26.827     8.492
    33   6 C        2.977     0.002    27.973     8.676
    34   6 C        2.920    -0.039    28.960     8.825
    35   6 C        2.914    -0.032    28.799     8.800
    36   6 C        2.914    -0.033    28.812     8.802
    37   6 C        2.921    -0.040    28.985     8.829
    38   6 C        2.976     0.007    27.861     8.658
    39   6 C        2.921    -0.033    28.811     8.802
    40   6 C        2.925    -0.031    28.763     8.795
    41   7 N        1.894    -0.321    29.181     8.008
    42   6 C        3.200     0.062    26.068     8.321
    43   6 C        2.985    -0.004    28.112     8.697
    44   6 C        2.921    -0.033    28.817     8.803
    45   6 C        2.917    -0.032    28.790     8.799
    46   6 C        2.917    -0.034    28.838     8.806
    47   6 C        2.921    -0.036    28.900     8.816
    48   6 C        2.978    -0.005    28.131     8.700
    49   6 C        2.979    -0.001    28.056     8.689
    50   6 C        2.922    -0.035    28.868     8.811
    51   6 C        2.916    -0.034    28.837     8.806
    52   6 C        2.916    -0.032    28.804     8.801
    53   6 C        2.919    -0.040    29.001     8.831
    54   6 C        2.977    -0.006    28.161     8.705
    55   6 C        3.071     0.024    27.386     8.581
    56   6 C        2.919    -0.040    29.000     8.831
    57   6 C        2.915    -0.030    28.752     8.793
    58   6 C        2.918    -0.036    28.898     8.815
    59   6 C        2.986     0.015    27.667     8.628
    60   6 C        2.919    -0.033    28.820     8.803
    61   1 H        0.926     0.042     2.426     2.436
    62   1 H        0.926     0.038     2.478     2.462
    63   1 H        0.926     0.025     2.652     2.547
    64   1 H        0.926     0.028     2.611     2.527
    65   1 H        0.926     0.038     2.470     2.458
    66   1 H        0.926     0.036     2.507     2.476
    67   1 H        0.926     0.031     2.570     2.507
    68   1 H        0.926     0.031     2.578     2.511
    69   1 H        0.926     0.029     2.599     2.521
    70   1 H        0.926     0.031     2.570     2.507
    71   1 H        0.926     0.034     2.533     2.489
    72   1 H        0.926     0.033     2.546     2.495
    73   1 H        0.926     0.035     2.515     2.480
    74   1 H        0.926     0.035     2.515     2.480
    75   1 H        0.926     0.033     2.545     2.495
    76   1 H        0.926     0.034     2.532     2.488
    77   1 H        0.926     0.031     2.573     2.508
    78   1 H        0.926     0.029     2.607     2.525
    79   1 H        0.926     0.031     2.576     2.510
    80   1 H        0.926     0.031     2.570     2.507
    81   1 H        0.926     0.033     2.544     2.494
    82   1 H        0.926     0.041     2.432     2.439
    83   1 H        0.926     0.045     2.380     2.413
    84   1 H        0.926     0.044     2.402     2.423
    85   1 H        0.926     0.033     2.541     2.493
    86   1 H        0.926     0.033     2.546     2.495
    87   1 H        0.926     0.035     2.511     2.478
    88   1 H        0.926     0.038     2.479     2.462
    89   1 H        0.926     0.034     2.537     2.491
    90   1 H        0.926     0.032     2.555     2.500
    91   1 H        0.926     0.028     2.610     2.527
    92   1 H        0.926     0.038     2.474     2.459
    93   1 H        0.926     0.045     2.385     2.415
    94   1 H        0.926     0.047     2.356     2.400
    95   1 H        0.926     0.044     2.393     2.419

molecular dipole:
                 x           y           z       tot (Debye)
 q only:        0.628       1.300      -0.225
   full:        0.358       1.581      -0.339       4.210

 projected vibrational frequencies (cm⁻¹)
eigval :       -0.00    -0.00    -0.00     0.00     0.00     0.00
eigval :       -8.08     7.57    11.21    16.51    19.84    28.80
eigval :       32.85    40.02    45.63    52.37    57.36    77.10
eigval :       78.26    80.89    87.44    91.23    98.74   120.00
eigval :      125.76   131.42   140.90   149.44   155.24   157.55
eigval :      159.90   181.66   191.26   204.04   210.22   215.44
eigval :      240.99   242.60   247.24   257.70   271.66   273.62
eigval :      301.44   305.18   314.12   350.89   353.64   369.75
eigval :      379.57   383.79   390.11   392.86   395.36   398.28
eigval :      406.99   410.39   414.56   419.03   425.99   428.42
eigval :      433.16   435.25   439.54   447.36   470.21   473.36
eigval :      488.90   497.52   511.61   514.05   522.29   524.06
eigval :      533.31   535.50   538.43   539.09   543.40   571.35
eigval :      581.46   583.92   586.12   592.67   594.44   604.77
eigval :      607.95   627.70   630.73   641.73   648.69   661.35
eigval :      669.10   673.06   673.79   677.50   680.74   684.72
eigval :      696.79   704.83   709.38   711.78   719.67   733.41
eigval :      734.77   746.73   754.80   757.20   758.00   764.31
eigval :      766.28   775.77   777.14   780.55   782.73   811.58
eigval :      818.62   839.94   840.92   843.57   848.48   862.68
eigval :      864.06   865.92   869.20   870.54   873.17   880.60
eigval :      888.70   890.40   891.31   899.55   899.93   903.05
eigval :      903.62   904.55   905.24   907.52   912.93   913.34
eigval :      919.16   919.57   921.19   921.96   923.67   926.20
eigval :      927.43   931.36   938.32   940.47   949.13   996.06
eigval :     1010.43  1012.61  1037.84  1057.01  1066.51  1069.99
eigval :     1080.69  1083.62  1096.36  1101.20  1105.72  1105.98
eigval :     1110.99  1116.14  1131.22  1139.58  1143.35  1145.55
eigval :     1149.73  1165.31  1168.27  1171.48  1177.37  1177.83
eigval :     1179.64  1179.82  1180.35  1181.56  1182.44  1186.20
eigval :     1192.66  1204.07  1210.31  1220.36  1221.38  1228.83
eigval :     1236.33  1249.11  1253.23  1255.41  1257.37  1263.17
eigval :     1268.52  1281.68  1284.49  1288.04  1292.43  1296.25
eigval :     1307.65  1310.04  1315.67  1322.34  1333.56  1334.58
eigval :     1341.62  1348.22  1349.26  1355.63  1362.19  1364.60
eigval :     1371.35  1378.13  1383.43  1390.86  1402.13  1410.13
eigval :     1411.77  1416.63  1417.14  1419.52  1420.55  1424.90
eigval :     1429.19  1432.03  1446.79  1456.38  1464.01  1471.83
eigval :     1483.91  1492.66  1494.80  1504.48  1509.07  1514.63
eigval :     1526.78  1527.98  1538.58  1546.75  1557.32  1560.01
eigval :     1562.42  1568.91  1569.14  1583.34  1586.64  1590.25
eigval :     1593.02  1600.68  1604.00  1608.29  3069.69  3073.04
eigval :     3073.51  3073.86  3074.38  3074.66  3074.98  3075.65
eigval :     3077.19  3077.45  3079.19  3079.76  3080.18  3080.88
eigval :     3082.13  3082.33  3082.71  3083.68  3084.17  3087.83
eigval :     3088.65  3093.33  3093.46  3093.71  3094.49  3096.16
eigval :     3096.26  3096.52  3097.26  3098.35  3100.18  3101.99
eigval :     3103.84  3109.20  3115.42

   temp. (K)  partition function   enthalpy   heat capacity  entropy
                                   cal/mol     cal/K/mol   cal/K/mol   J/K/mol
 298.15  VIB  0.103E+22            26817.283    173.290    166.206
         ROT  0.155E+09              888.752      2.981     40.459
         INT  0.160E+30            27706.035    176.271    206.665
         TR   0.203E+29             1481.254      4.968     45.750
         TOT                       29187.2890   181.2392   252.4150  1056.1043

       T/K    H(0)-H(T)+PV         H(T)/Eh          T*S/Eh         G(T)/Eh
   ------------------------------------------------------------------------
    298.15    0.465129E-01    0.769987E+00    0.119931E+00    0.650056E+00
   ------------------------------------------------------------------------

         :::::::::::::::::::::::::::::::::::::::::::::::::::::
         ::                  THERMODYNAMIC                  ::
         :::::::::::::::::::::::::::::::::::::::::::::::::::::
         :: total free energy        -148.124730093357 Eh   ::
         ::.................................................::
         :: total energy             -148.774786125311 Eh   ::
         :: zero point energy           0.723473636281 Eh   ::
         :: G(RRHO) w/o ZPVE           -0.073417604327 Eh   ::
         :: G(RRHO) contrib.            0.650056031954 Eh   ::
         :::::::::::::::::::::::::::::::::::::::::::::::::::::

           -------------------------------------------------
          | TOTAL ENERGY             -148.774786125311 Eh   |
          | TOTAL ENTHALPY           -148.004799583413 Eh   |
          | TOTAL FREE ENERGY        -148.124730093357 Eh   |
          | GRADIENT NORM               0.000038281462 Eh/α |
          | HOMO-LUMO GAP               0.438379309001 eV   |
           -------------------------------------------------

 * finished run on 2025/09/13 at 00:26:17.720
