   * xtb version 6.7.1 (edcfbbe) compiled by 'albert@albert-system' on 2024-07-22

   ID    Z sym.   atoms
    1    6 C      1-8, 10-16, 18-24, 26-38
    2    7 N      9, 17, 25
    3    1 H      39-61

          program call               : xtb data2507/gas/CzBPDCb/CzBPDCb.xyz --gfn 2 --ohess vtight --parallel 40 --molden --ceasefiles --namespace data2507/gas/CzBPDCb/CzBPDCb_gas_S0_preOpt
          :  Hamiltonian                  GFN2-xTB          :
 * total energy  :   -95.4918809 Eh     change       -0.2129426E-08 Eh
 * total energy  :   -95.5046555 Eh     change       -0.1277460E-01 Eh
 * total energy  :   -95.5072156 Eh     change       -0.2560163E-02 Eh
 * total energy  :   -95.5076416 Eh     change       -0.4259157E-03 Eh
 * total energy  :   -95.5079863 Eh     change       -0.3447709E-03 Eh
 * total energy  :   -95.5081161 Eh     change       -0.1298035E-03 Eh
 * total energy  :   -95.5082383 Eh     change       -0.1221645E-03 Eh
 * total energy  :   -95.5083258 Eh     change       -0.8749387E-04 Eh
 * total energy  :   -95.5084004 Eh     change       -0.7464942E-04 Eh
 * total energy  :   -95.5084641 Eh     change       -0.6368528E-04 Eh
 * total energy  :   -95.5089626 Eh     change       -0.6002646E-06 Eh
 * total energy  :   -95.5089632 Eh     change       -0.5374750E-06 Eh
 * total energy  :   -95.5089636 Eh     change       -0.4700966E-06 Eh
 * total energy  :   -95.5089641 Eh     change       -0.4350698E-06 Eh
 * total energy  :   -95.5089645 Eh     change       -0.4421028E-06 Eh
 * total energy  :   -95.5089650 Eh     change       -0.4810754E-06 Eh
 * total energy  :   -95.5089655 Eh     change       -0.5103243E-06 Eh
 * total energy  :   -95.5089660 Eh     change       -0.4927832E-06 Eh
 * total energy  :   -95.5089660 Eh     change       -0.2379807E-08 Eh
   *** GEOMETRY OPTIMIZATION CONVERGED AFTER 68 ITERATIONS ***

 final structure:
================
61
 xtb: 6.7.1 (edcfbbe)
C            1.38357187423670        0.80425653325335        2.89569037247945
C            0.27425024520220        0.25811951518808        2.27633835551180
C            0.40018548627008       -0.38546772040588        1.04726513649983
C           -0.77202934963851       -0.97063028697681        0.37794447181266
C           -0.68999898956626       -2.21579591621893       -0.24147181278870
C           -1.79684712115729       -2.76160051526876       -0.86505900874931
C           -2.99513493710927       -2.07224010458533       -0.89820583663709
C           -3.08891942919089       -0.82687017426531       -0.28382647649874
N           -4.29758778932773       -0.11549600017394       -0.31314282440823
C           -4.45302779504704        1.20913141802114       -0.68132852083312
C           -3.50687869384422        2.11353877583816       -1.14283756758637
C           -3.93770305867101        3.38450966725933       -1.47123999050283
C           -5.27643332925977        3.75569793543955       -1.35517815199134
C           -6.22690179735551        2.85545269755443       -0.91975081367772
C           -5.81592690442023        1.57167027996063       -0.58390188963339
C           -6.51326945759394        0.40226267151833       -0.13077480474072
N           -7.80034650705289        0.22740146031060        0.12886126376640
C           -8.15720505742527       -0.96900975432860        0.55458713649647
C           -7.27089778738523       -2.02644159475797        0.75945997750742
C           -5.92179490245399       -1.86108518545404        0.49482907432508
C           -5.53491808102488       -0.61773129867781        0.01892520235273
C           -1.98241214322371       -0.28695319504005        0.36004082158127
C            1.65317801571982       -0.46125597646475        0.45006402390956
C            2.76806082022664        0.08753344039811        1.07261752279930
N            4.02361432708580        0.00055776270597        0.45746564240419
C            4.89720150262419        1.04938467840083        0.24666517220107
C            4.74629599555009        2.39769040720256        0.53692795886921
C            5.77693588759624        3.25087998821621        0.19202273831428
C            6.92978892057094        2.78344179303801       -0.43505833343182
C            7.07496989632712        1.44697016268204       -0.74858266417229
C            6.05259258784138        0.56963673003273       -0.41183346451252
C            5.85988644253785       -0.84115855624728       -0.59913222799442
C            6.63771351501724       -1.84571826685905       -1.15961908293449
C            6.15122770488169       -3.13760008702242       -1.15874933644499
C            4.91352494118100       -3.43647300438211       -0.59348861044120
C            4.12180465682102       -2.45429645378785       -0.03004408032841
C            4.59370061125477       -1.14971690483834       -0.05123759866709
C            2.63102918176278        0.72024956556592        2.30506757482968
H            1.27809948274810        1.29155264814695        3.85364924762613
H           -0.69129920381113        0.31029554464120        2.75641569567063
H            0.23886361794372       -2.76531192119172       -0.21723898538786
H           -1.72422959526512       -3.72916576756320       -1.33908900218078
H           -3.85205616525521       -2.48285674347073       -1.41032565759610
H           -2.47031411114768        1.83341074071610       -1.25525752269673
H           -3.21894821952615        4.10630775412547       -1.83053396681912
H           -5.56875221780746        4.76060349528021       -1.62062722720892
H           -7.26861322400302        3.12260071846684       -0.84050823269561
H           -9.21288711495826       -1.09357724597828        0.75503594694738
H           -7.63988245488213       -2.97055258194231        1.12949302111781
H           -5.21139556615796       -2.65811833332765        0.66200154333179
H           -2.06621339259680        0.67618761967929        0.84084794723451
H            1.76134334808053       -0.91934352116461       -0.52188367457544
H            3.84923102869833        2.77297443492649        1.00610400860794
H            5.68482173856955        4.30465369602910        0.41039215863554
H            7.71402125497864        3.48211837075281       -0.68581186860258
H            7.96105550507408        1.08690315816258       -1.24927145316535
H            7.60444569060809       -1.61662652604560       -1.58198693240778
H            6.73902672001188       -3.93311354646764       -1.59199415388811
H            4.56707506523888       -4.45958812023157       -0.59191840158689
H            3.17381092205598       -2.69907041341997        0.42528541376154
H            3.50149440944022        1.12687205304877        2.79691274720276

          :  Hamiltonian                  GFN2-xTB          :
         :: gradient norm              0.000039389711 Eh/a0 ::
         :: HOMO-LUMO gap              2.764301687950 eV    ::
         :: SCC energy               -97.302706105423 Eh    ::
         :: -> dispersion             -0.082415905763 Eh    ::
         :: repulsion energy           1.793740113141 Eh    ::

    * Orbital Energies and Occupations

         #    Occupation            Energy/Eh            Energy/eV
      -------------------------------------------------------------
         1        2.0000           -0.6831041             -18.5882
       ...           ...                  ...                  ...
        77        2.0000           -0.4223616             -11.4930
        78        2.0000           -0.4207796             -11.4500
        79        2.0000           -0.4195641             -11.4169
        80        2.0000           -0.4185080             -11.3882
        81        2.0000           -0.4155385             -11.3074
        82        2.0000           -0.4148057             -11.2874
        83        2.0000           -0.4055131             -11.0346
        84        2.0000           -0.4017559             -10.9323
        85        2.0000           -0.3868762             -10.5274
        86        2.0000           -0.3788480             -10.3090
        87        2.0000           -0.3702960             -10.0763
        88        2.0000           -0.3635248              -9.8920
        89        2.0000           -0.3623306              -9.8595 (HOMO)
        90                         -0.2607443              -7.0952 (LUMO)
        91                         -0.2578858              -7.0174
        92                         -0.2465436              -6.7088
        93                         -0.2418298              -6.5805
        94                         -0.2373639              -6.4590
        95                         -0.2309627              -6.2848
        96                         -0.2220919              -6.0434
        97                         -0.2167906              -5.8992
        98                         -0.1977229              -5.3803
        99                         -0.1926336              -5.2418
       100                         -0.1897681              -5.1639
       ...                                ...                  ...
       175                          0.7458703              20.2962
      -------------------------------------------------------------
                  HL-Gap            0.1015862 Eh            2.7643 eV

     #   Z          covCN         q      C6AA      α(0)
     1   6 C        2.918    -0.028    28.710     8.787
     2   6 C        2.924    -0.038    28.953     8.824
     3   6 C        2.977     0.012    27.751     8.641
     4   6 C        2.977     0.013    27.724     8.637
     5   6 C        2.924    -0.037    28.931     8.821
     6   6 C        2.918    -0.028    28.707     8.786
     7   6 C        2.922    -0.044    29.103     8.847
     8   6 C        2.912     0.065    26.552     8.450
     9   7 N        2.799    -0.046    22.129     6.987
    10   6 C        3.081     0.047    26.855     8.496
    11   6 C        2.910    -0.050    29.242     8.867
    12   6 C        2.924    -0.031    28.770     8.796
    13   6 C        2.920    -0.039    28.966     8.826
    14   6 C        2.912    -0.026    28.659     8.778
    15   6 C        3.064    -0.021    28.467     8.749
    16   6 C        3.073     0.069    26.371     8.420
    17   7 N        1.832    -0.230    26.883     7.683
    18   6 C        2.924     0.050    26.887     8.503
    19   6 C        2.922    -0.046    29.134     8.851
    20   6 C        2.915    -0.035    28.882     8.813
    21   6 C        3.075     0.037    27.099     8.535
    22   6 C        2.928    -0.048    29.189     8.860
    23   6 C        2.929    -0.048    29.189     8.860
    24   6 C        2.911     0.065    26.535     8.447
    25   7 N        2.803    -0.045    22.103     6.983
    26   6 C        3.075     0.047    26.875     8.500
    27   6 C        2.910    -0.051    29.267     8.871
    28   6 C        2.924    -0.033    28.830     8.805
    29   6 C        2.920    -0.041    29.012     8.833
    30   6 C        2.913    -0.033    28.814     8.802
    31   6 C        3.068    -0.017    28.361     8.732
    32   6 C        3.068    -0.017    28.359     8.732
    33   6 C        2.913    -0.033    28.813     8.802
    34   6 C        2.920    -0.041    29.016     8.833
    35   6 C        2.924    -0.034    28.838     8.806
    36   6 C        2.910    -0.051    29.262     8.870
    37   6 C        3.076     0.047    26.876     8.500
    38   6 C        2.922    -0.044    29.096     8.846
    39   1 H        0.926     0.038     2.477     2.461
    40   1 H        0.926     0.037     2.492     2.469
    41   1 H        0.926     0.037     2.483     2.464
    42   1 H        0.926     0.039     2.468     2.457
    43   1 H        0.926     0.041     2.439     2.442
    44   1 H        0.926     0.030     2.591     2.517
    45   1 H        0.926     0.033     2.551     2.498
    46   1 H        0.926     0.033     2.544     2.494
    47   1 H        0.926     0.048     2.348     2.396
    48   1 H        0.925     0.034     2.524     2.484
    49   1 H        0.926     0.032     2.559     2.502
    50   1 H        0.926     0.028     2.610     2.526
    51   1 H        0.926     0.044     2.401     2.423
    52   1 H        0.926     0.043     2.411     2.428
    53   1 H        0.926     0.027     2.631     2.537
    54   1 H        0.926     0.029     2.599     2.521
    55   1 H        0.926     0.028     2.612     2.527
    56   1 H        0.926     0.031     2.571     2.508
    57   1 H        0.926     0.031     2.570     2.507
    58   1 H        0.926     0.028     2.614     2.528
    59   1 H        0.926     0.028     2.611     2.527
    60   1 H        0.926     0.024     2.666     2.553
    61   1 H        0.926     0.042     2.418     2.432

molecular dipole:
                 x           y           z       tot (Debye)
 q only:        0.475      -0.239       0.186
   full:        0.722      -0.605       0.281       2.499

 projected vibrational frequencies (cm⁻¹)
eigval :       -0.00    -0.00    -0.00    -0.00     0.00     0.00
eigval :       11.53    16.23    21.11    35.81    38.73    62.08
eigval :       73.24    90.96    91.97   107.24   112.20   138.22
eigval :      143.39   148.57   191.55   208.74   227.15   230.35
eigval :      244.46   271.49   275.23   281.28   286.77   320.83
eigval :      326.47   344.57   387.53   391.42   397.58   400.01
eigval :      422.83   423.84   432.52   437.17   440.60   451.95
eigval :      516.60   519.84   523.00   529.97   541.17   542.08
eigval :      549.37   571.62   587.60   593.78   596.64   607.69
eigval :      615.71   618.06   649.19   670.50   673.51   679.43
eigval :      684.17   684.94   708.24   721.92   727.48   755.87
eigval :      764.16   769.36   776.80   780.74   791.12   797.87
eigval :      809.95   813.74   868.68   871.96   873.09   891.19
eigval :      893.78   896.58   898.75   901.28   901.42   906.72
eigval :      906.87   908.24   911.06   915.64   922.22   923.09
eigval :      925.05   926.01   931.28   933.11   987.48   999.26
eigval :     1007.70  1013.27  1023.61  1066.93  1070.15  1073.76
eigval :     1090.16  1093.71  1118.11  1120.60  1129.42  1130.45
eigval :     1145.90  1152.41  1171.16  1176.03  1179.47  1181.43
eigval :     1181.88  1190.25  1192.82  1215.89  1232.95  1236.68
eigval :     1239.44  1256.13  1260.73  1285.76  1292.01  1299.86
eigval :     1301.83  1304.78  1316.29  1321.78  1334.41  1343.90
eigval :     1356.43  1358.53  1361.35  1366.06  1395.26  1409.27
eigval :     1422.66  1428.03  1430.70  1459.86  1467.49  1474.28
eigval :     1477.10  1486.52  1488.46  1489.92  1556.63  1570.66
eigval :     1573.94  1577.28  1581.65  1587.50  1589.12  1589.59
eigval :     1591.67  1599.81  1608.64  1615.56  3062.13  3067.82
eigval :     3075.13  3076.42  3077.77  3080.63  3081.07  3081.62
eigval :     3082.06  3085.90  3087.31  3089.29  3090.44  3091.64
eigval :     3093.33  3093.63  3094.32  3094.66  3095.13  3096.82
eigval :     3099.44  3100.17  3108.28

   temp. (K)  partition function   enthalpy   heat capacity  entropy
                                   cal/mol     cal/K/mol   cal/K/mol   J/K/mol
 298.15  VIB  0.730E+12            16169.538    107.319     98.349
         ROT  0.467E+08              888.752      2.981     38.074
         INT  0.341E+20            17058.290    110.299    136.422
         TR   0.104E+29             1481.254      4.968     44.408
         TOT                       18539.5440   115.2676   180.8303   756.5938

       T/K    H(0)-H(T)+PV         H(T)/Eh          T*S/Eh         G(T)/Eh
   ------------------------------------------------------------------------
    298.15    0.295446E-01    0.497528E+00    0.859183E-01    0.411610E+00
   ------------------------------------------------------------------------

         :::::::::::::::::::::::::::::::::::::::::::::::::::::
         ::                  THERMODYNAMIC                  ::
         :::::::::::::::::::::::::::::::::::::::::::::::::::::
         :: total free energy         -95.097355819619 Eh   ::
         ::.................................................::
         :: total energy              -95.508965992282 Eh   ::
         :: zero point energy           0.467983821513 Eh   ::
         :: G(RRHO) w/o ZPVE           -0.056373648850 Eh   ::
         :: G(RRHO) contrib.            0.411610172663 Eh   ::
         :::::::::::::::::::::::::::::::::::::::::::::::::::::

           -------------------------------------------------
          | TOTAL ENERGY              -95.508965992282 Eh   |
          | TOTAL ENTHALPY            -95.011437526788 Eh   |
          | TOTAL FREE ENERGY         -95.097355819619 Eh   |
          | GRADIENT NORM               0.000039389133 Eh/α |
          | HOMO-LUMO GAP               2.764301585752 eV   |
           -------------------------------------------------

 * finished run on 2025/09/08 at 19:57:38.178
