   * xtb version 6.7.1 (edcfbbe) compiled by 'albert@albert-system' on 2024-07-22

   ID    Z sym.   atoms
    1    6 C      1-8, 10-16, 18-24, 26-38
    2    7 N      9, 17, 25
    3    1 H      39-61

          program call               : xtb data2507/gas/CzBPDCb/CzBPDCb_gas_S0_finalOpt.xtbopt.xyz --gfn 2 --spinpol --tblite --uhf 2 --ohess vtight --parallel 40 --molden --ceasefiles --namespace data2507/gas/CzBPDCb/CzBPDCb_gas_T1_preOpt
 * total energy  :   -95.4041387 Eh     change        0.1010352E-07 Eh
 * total energy  :   -95.4069565 Eh     change       -0.2817821E-02 Eh
 * total energy  :   -95.4078778 Eh     change       -0.9212925E-03 Eh
 * total energy  :   -95.4080897 Eh     change       -0.2118848E-03 Eh
 * total energy  :   -95.4081906 Eh     change       -0.1008867E-03 Eh
 * total energy  :   -95.4084987 Eh     change       -0.3081029E-03 Eh
 * total energy  :   -95.4085714 Eh     change       -0.7275668E-04 Eh
 * total energy  :   -95.4086675 Eh     change       -0.9606099E-04 Eh
 * total energy  :   -95.4086916 Eh     change       -0.2405500E-04 Eh
 * total energy  :   -95.4087364 Eh     change       -0.4484981E-04 Eh
 * total energy  :   -95.4088911 Eh     change       -0.1291785E-05 Eh
 * total energy  :   -95.4088927 Eh     change       -0.1527737E-05 Eh
 * total energy  :   -95.4088935 Eh     change       -0.8478067E-06 Eh
 * total energy  :   -95.4088942 Eh     change       -0.6580749E-06 Eh
 * total energy  :   -95.4088947 Eh     change       -0.5005298E-06 Eh
 * total energy  :   -95.4088951 Eh     change       -0.4389090E-06 Eh
 * total energy  :   -95.4088955 Eh     change       -0.3886492E-06 Eh
 * total energy  :   -95.4088955 Eh     change        0.1375653E-08 Eh
 * total energy  :   -95.4088955 Eh     change       -0.7503814E-08 Eh
   *** GEOMETRY OPTIMIZATION CONVERGED AFTER 45 ITERATIONS ***

 final structure:
================
61
 xtb: 6.7.1 (edcfbbe)
C            2.53995347219433        3.59470745203200        1.45439083989171
C            1.25517417843329        3.68089226130782        0.95116584364838
C            0.69777131646559        2.60375568692755        0.26355124608746
C           -0.67766198540825        2.62962468483279       -0.24504763687217
C           -1.21898771535953        3.75257961123750       -0.87278675608872
C           -2.50807998423683        3.71519442075333       -1.37146256742626
C           -3.28499368508594        2.57586220889457       -1.25452457638343
C           -2.76317081828860        1.45388022401796       -0.60755537502478
N           -3.51566252702939        0.28424081862453       -0.47584590527352
C           -4.81820670209382        0.19107722944752        0.00515367087132
C           -5.72074577079225        1.18263198760154        0.32041720156010
C           -6.97350641606959        0.79977961475325        0.80561532323451
C           -7.29397521834949       -0.54392785846649        0.97395605850037
C           -6.38786071846019       -1.54913840854718        0.68918642641975
C           -5.11804630854346       -1.18890945647684        0.21990218947721
C           -3.97491299200945       -1.92089019222336       -0.15225799627765
N           -3.67605553149977       -3.23273578728259       -0.11266806142001
C           -2.49327557424398       -3.65432835804815       -0.55468026981770
C           -1.49500819063026       -2.80632291995547       -0.95883011566291
C           -1.75696073472949       -1.40980841012551       -1.04167386935767
C           -2.99507574621335       -0.98051567357668       -0.60625154632050
C           -1.46779326969435        1.49344784414682       -0.10715528837787
C            1.46928164550019        1.46215971198481        0.06489758264359
C            2.75667540847316        1.37269906228474        0.57542056114420
N            3.49499270483776        0.19952579151651        0.37197824117658
C            4.79476516995108        0.12350348894493       -0.08789842149961
C            5.66785013702925        1.13981233641568       -0.45020048612411
C            6.92256817421023        0.78183823067576       -0.90560943426411
C            7.30488654148643       -0.55324200098547       -1.01150467671260
C            6.43042337656154       -1.57014550705217       -0.68092681651534
C            5.16456860660187       -1.23524871165679       -0.22110084124528
C            4.02181988447964       -2.01070808180516        0.17560090731236
C            3.77629924010116       -3.37445875666079        0.25764732761383
C            2.53796339314774       -3.79903473602680        0.69880418791674
C            1.56039881602069       -2.88255316421661        1.07909172058932
C            1.78444391315612       -1.52083358494037        1.01011382051755
C            3.01354553853674       -1.08593809893866        0.53274915567175
C            3.29269337121182        2.44487455927644        1.28581072755775
H            2.95797758710070        4.42690839983898        2.00140782127430
H            0.66821978838709        4.57214467582218        1.11404073025367
H           -0.61705008837748        4.64065715795821       -0.99121328531557
H           -2.91259429334072        4.58096576736507       -1.87476266797075
H           -4.27161392149389        2.53730553572232       -1.68792626413285
H           -5.47596060838646        2.22838767620239        0.21668827662412
H           -7.69622368952559        1.56012033531322        1.05655922116646
H           -8.26902844714121       -0.80510027803009        1.35933780281289
H           -6.63303077040178       -2.58857583078733        0.83738517755395
H           -2.36135461303602       -4.72671979503362       -0.57671919412275
H           -0.54765813084995       -3.19968653516526       -1.28758493086778
H           -1.05642072824734       -0.74966999389202       -1.52741845927015
H           -1.08956681750140        0.63982681888056        0.43459963176657
H            1.07766680532362        0.64502931102921       -0.52169633941533
H            5.37581016469054        2.17730894676160       -0.39354015038393
H            7.62074144912934        1.55531165787195       -1.18962031666623
H            8.29572935924678       -0.79198678141909       -1.36800661125158
H            6.71955319503236       -2.60539604186576       -0.78091792142711
H            4.54129086292203       -4.08477139387353       -0.01739421820710
H            2.32430293473872       -4.85553681486797        0.76281535740526
H            0.60668863187840       -3.24156878635565        1.43654393645963
H            1.02771301446399       -0.82270030237908        1.33360937776328
H            4.28015353149674        2.36732105384966        1.71377609194685

 projected vibrational frequencies (cm⁻¹)
eigval :       -0.00    -0.00    -0.00    -0.00     0.00     0.00
eigval :       13.34    17.60    27.29    38.18    39.97    63.18
eigval :       77.66    82.87    97.56   102.70   113.71   137.27
eigval :      144.71   174.12   186.80   213.65   218.71   224.91
eigval :      234.71   244.44   271.51   278.74   300.87   308.24
eigval :      327.93   339.05   359.80   386.17   387.44   396.99
eigval :      412.60   422.38   425.54   434.92   440.51   454.34
eigval :      474.23   498.17   513.27   518.03   526.48   538.38
eigval :      540.22   552.60   569.54   586.77   587.65   602.97
eigval :      608.39   610.16   620.71   638.61   659.32   662.48
eigval :      670.04   675.64   679.94   690.00   708.36   713.03
eigval :      718.49   741.86   750.11   756.42   769.37   780.25
eigval :      787.99   802.41   804.04   823.71   849.31   864.22
eigval :      867.18   870.61   872.05   885.40   888.88   893.97
eigval :      897.16   897.94   900.20   904.51   910.67   915.52
eigval :      921.08   924.04   925.89   929.14   980.09   988.29
eigval :      991.17  1000.49  1012.38  1058.96  1061.55  1070.49
eigval :     1073.87  1077.16  1096.36  1115.55  1118.19  1122.95
eigval :     1126.99  1143.73  1150.51  1157.92  1166.85  1174.94
eigval :     1178.95  1180.35  1186.70  1192.02  1202.64  1231.30
eigval :     1234.26  1237.73  1252.00  1256.42  1268.83  1272.25
eigval :     1284.92  1297.36  1298.96  1320.69  1321.95  1328.00
eigval :     1337.77  1352.87  1354.22  1357.24  1360.88  1386.61
eigval :     1410.74  1413.93  1420.41  1424.64  1432.42  1436.25
eigval :     1439.22  1463.61  1470.24  1473.07  1482.68  1486.52
eigval :     1507.91  1529.20  1550.97  1555.05  1570.35  1576.90
eigval :     1585.91  1588.32  1592.25  1609.87  3064.40  3075.76
eigval :     3078.00  3079.02  3079.69  3080.93  3083.11  3083.32
eigval :     3084.52  3088.13  3090.28  3091.24  3091.93  3092.65
eigval :     3095.49  3095.82  3096.77  3097.72  3099.84  3101.08
eigval :     3105.12  3107.29  3108.69

   temp. (K)  partition function   enthalpy   heat capacity  entropy
                                   cal/mol     cal/K/mol   cal/K/mol   J/K/mol
 298.15  VIB  0.535E+12            16480.176    109.964     99.568
         ROT  0.375E+08              888.752      2.981     37.640
         INT  0.201E+20            17368.928    112.945    137.208
         TR   0.104E+29             1481.254      4.968     44.408
         TOT                       18850.1820   117.9131   181.6165   759.8833

       T/K    H(0)-H(T)+PV         H(T)/Eh          T*S/Eh         G(T)/Eh
   ------------------------------------------------------------------------
    298.15    0.300397E-01    0.492901E+00    0.862918E-01    0.406609E+00
   ------------------------------------------------------------------------

         :::::::::::::::::::::::::::::::::::::::::::::::::::::
         ::                  THERMODYNAMIC                  ::
         :::::::::::::::::::::::::::::::::::::::::::::::::::::
         :: total free energy         -95.002286823481 Eh   ::
         ::.................................................::
         :: total energy              -95.408895505175 Eh   ::
         :: zero point energy           0.462860847020 Eh   ::
         :: G(RRHO) w/o ZPVE           -0.056252165326 Eh   ::
         :: G(RRHO) contrib.            0.406608681693 Eh   ::
         :::::::::::::::::::::::::::::::::::::::::::::::::::::

           -------------------------------------------------
          | TOTAL ENERGY              -95.408895505175 Eh   |
          | TOTAL ENTHALPY            -94.915994981068 Eh   |
          | TOTAL FREE ENERGY         -95.002286823481 Eh   |
          | GRADIENT NORM               0.000059217010 Eh/α |
           -------------------------------------------------

 * finished run on 2025/09/08 at 20:00:23.461
