   * xtb version 6.7.1 (edcfbbe) compiled by 'albert@albert-system' on 2024-07-22

   ID    Z sym.   atoms
    1    6 C      1-8, 10-16, 18-24, 26-38
    2    7 N      9, 17, 25
    3    1 H      39-61

          program call               : xtb data2507/gas/CzBPDCb/CzBPDCb_gas_S0_crest.xyz --gfn 2 --ohess vtight --parallel 40 --molden --ceasefiles --namespace data2507/gas/CzBPDCb/CzBPDCb_gas_S0_finalOpt
          :  Hamiltonian                  GFN2-xTB          :
 * total energy  :   -95.5104200 Eh     change       -0.1712394E-08 Eh
 * total energy  :   -95.5104210 Eh     change       -0.9346018E-06 Eh
 * total energy  :   -95.5104218 Eh     change       -0.8436924E-06 Eh
 * total energy  :   -95.5104237 Eh     change       -0.1901491E-05 Eh
 * total energy  :   -95.5104250 Eh     change       -0.1321426E-05 Eh
 * total energy  :   -95.5104259 Eh     change       -0.8240431E-06 Eh
 * total energy  :   -95.5104266 Eh     change       -0.7091185E-06 Eh
 * total energy  :   -95.5104273 Eh     change       -0.7577677E-06 Eh
 * total energy  :   -95.5104280 Eh     change       -0.7200358E-06 Eh
 * total energy  :   -95.5104285 Eh     change       -0.4980589E-06 Eh
 * total energy  :   -95.5104297 Eh     change       -0.2540565E-06 Eh
 * total energy  :   -95.5104299 Eh     change       -0.1890631E-06 Eh
 * total energy  :   -95.5104300 Eh     change       -0.1764729E-06 Eh
 * total energy  :   -95.5104303 Eh     change       -0.2292854E-06 Eh
 * total energy  :   -95.5104306 Eh     change       -0.2981891E-06 Eh
 * total energy  :   -95.5104309 Eh     change       -0.3179822E-06 Eh
 * total energy  :   -95.5104311 Eh     change       -0.2490152E-06 Eh
 * total energy  :   -95.5104313 Eh     change       -0.1878450E-06 Eh
 * total energy  :   -95.5104313 Eh     change       -0.2344720E-08 Eh
   *** GEOMETRY OPTIMIZATION CONVERGED AFTER 22 ITERATIONS ***

 final structure:
================
61
 xtb: 6.7.1 (edcfbbe)
C            2.53625143455503        3.60554507239554        1.47884444047192
C            1.25171643662679        3.68015191883454        0.96951228139365
C            0.71631365923875        2.60236985284359        0.27116293631998
C           -0.66089973840746        2.60877235446701       -0.24502081538567
C           -1.18927110199930        3.69420552644737       -0.93669716646828
C           -2.47404556638528        3.63179243387666       -1.44706378870137
C           -3.24814752336549        2.49721424503301       -1.28075562201675
C           -2.73942363425322        1.41683145171447       -0.56496594598999
N           -3.49572481248692        0.25333259025606       -0.37073704423071
C           -4.81262204105389        0.18592088800423        0.05022329889455
C           -5.68677378791738        1.20917864851960        0.38912099051628
C           -6.95710643254499        0.86096280797218        0.80643680012700
C           -7.35759746526590       -0.47096918346000        0.89820927353235
C           -6.48552033292161       -1.49525643913080        0.59212707535308
C           -5.20327316694471       -1.16746132728289        0.17072686009364
C           -4.05733605816700       -1.95307911520401       -0.18824158725959
N           -3.91127914797930       -3.26890373887490       -0.23318430969924
C           -2.72948160316863       -3.71784970540195       -0.61000052552900
C           -1.66238555961563       -2.90088169969858       -0.98278745676848
C           -1.80134740577400       -1.52374817034681       -0.94814546984351
C           -3.02394256325086       -1.03382356126311       -0.51366997553736
C           -1.45255582587749        1.48384401449414       -0.04692501531298
C            1.49988781015855        1.47333455078304        0.06649357394405
C            2.78593920101751        1.39225536336712        0.58550796904875
N            3.53441319271200        0.22716026671376        0.38257971850425
C            4.84074434470761        0.16116244171937       -0.06386814535163
C            5.71365489276802        1.18389985595664       -0.40606385038460
C            6.97413315755465        0.83539496753778       -0.85245960079239
C            7.36296457008146       -0.49705770737111       -0.96872395712172
C            6.48923073285586       -1.51967571739164       -0.65850606590947
C            5.21674016698367       -1.19412285302969       -0.20825237772130
C            4.07360900643301       -1.97873043483132        0.16631241126752
C            3.83399768547488       -3.34519238802575        0.23000611346173
C            2.59396179283166       -3.78142682198959        0.65169096448418
C            1.60808248934255       -2.87400986731371        1.03256925597437
C            1.82624222984273       -1.51059551536770        0.98250520944450
C            3.05721833706648       -1.06340791857200        0.52262059139305
C            3.30196641144930        2.46628043103014        1.30608473942870
H            2.94150451672430        4.43887158883369        2.03365452208696
H            0.65183926245811        4.56256293682689        1.13396488772438
H           -0.58346320761241        4.57359153088174       -1.09528832790797
H           -2.87331654901459        4.47095172854854       -1.99730343634464
H           -4.23441061084703        2.43827779845330       -1.71461113407661
H           -5.38444358988728        2.24437002852813        0.34526077914642
H           -7.65501912846639        1.64137968390066        1.07211549005681
H           -8.36134606939015       -0.69774958711785        1.22493006531521
H           -6.77298427761769       -2.53111480631523        0.67697957649518
H           -2.62712872616711       -4.79460659491494       -0.62837814763126
H           -0.73065828307430       -3.34267219795718       -1.30090593292255
H           -0.99654651251334       -0.87377377798835       -1.25935816962577
H           -1.07581983639768        0.66109576864252        0.54181845945930
H            1.11878071861773        0.65660355061270       -0.52772567590302
H            5.41802113922370        2.22005921417904       -0.34178555262297
H            7.67218618134996        1.61462962659995       -1.12100636714896
H            8.35853738848110       -0.72796900791181       -1.31729990658420
H            6.78248806498847       -2.55302573065629       -0.76647015971080
H            4.60621919899147       -4.04798360476846       -0.04424799859455
H            2.38448703304400       -4.83960085497493        0.70102560050370
H            0.65277192243627       -3.24229255389178        1.37720099093644
H            1.06322944135326       -0.82042016324169        1.30931073628146
H            4.28815914969826        2.39834580642024        1.73891284193803

          :  Hamiltonian                  GFN2-xTB          :
         :: gradient norm              0.000032714754 Eh/a0 ::
         :: HOMO-LUMO gap              2.800042381074 eV    ::
         :: SCC energy               -97.304290663797 Eh    ::
         :: -> dispersion             -0.085398910927 Eh    ::
         :: repulsion energy           1.793859332090 Eh    ::

    * Orbital Energies and Occupations

         #    Occupation            Energy/Eh            Energy/eV
      -------------------------------------------------------------
         1        2.0000           -0.6827372             -18.5782
       ...           ...                  ...                  ...
        77        2.0000           -0.4222989             -11.4913
        78        2.0000           -0.4209787             -11.4554
        79        2.0000           -0.4192213             -11.4076
        80        2.0000           -0.4186560             -11.3922
        81        2.0000           -0.4149293             -11.2908
        82        2.0000           -0.4137165             -11.2578
        83        2.0000           -0.4056418             -11.0381
        84        2.0000           -0.4016929             -10.9306
        85        2.0000           -0.3865802             -10.5194
        86        2.0000           -0.3790362             -10.3141
        87        2.0000           -0.3697925             -10.0626
        88        2.0000           -0.3636298              -9.8949
        89        2.0000           -0.3620137              -9.8509 (HOMO)
        90                         -0.2591140              -7.0509 (LUMO)
        91                         -0.2571317              -6.9969
        92                         -0.2467922              -6.7156
        93                         -0.2414289              -6.5696
        94                         -0.2368641              -6.4454
        95                         -0.2304993              -6.2722
        96                         -0.2223830              -6.0513
        97                         -0.2176040              -5.9213
        98                         -0.1966698              -5.3517
        99                         -0.1923429              -5.2339
       100                         -0.1891493              -5.1470
       ...                                ...                  ...
       175                          0.7451780              20.2773
      -------------------------------------------------------------
                  HL-Gap            0.1028997 Eh            2.8000 eV

     #   Z          covCN         q      C6AA      α(0)
     1   6 C        2.919    -0.029    28.713     8.787
     2   6 C        2.922    -0.038    28.955     8.824
     3   6 C        2.979     0.012    27.752     8.641
     4   6 C        2.979     0.013    27.730     8.638
     5   6 C        2.922    -0.038    28.944     8.823
     6   6 C        2.919    -0.028    28.708     8.786
     7   6 C        2.921    -0.045    29.127     8.850
     8   6 C        2.911     0.065    26.553     8.450
     9   7 N        2.798    -0.045    22.107     6.983
    10   6 C        3.078     0.047    26.856     8.496
    11   6 C        2.910    -0.050    29.247     8.868
    12   6 C        2.924    -0.031    28.772     8.796
    13   6 C        2.920    -0.039    28.964     8.825
    14   6 C        2.912    -0.026    28.657     8.778
    15   6 C        3.065    -0.021    28.462     8.748
    16   6 C        3.072     0.070    26.367     8.419
    17   7 N        1.832    -0.230    26.887     7.684
    18   6 C        2.923     0.050    26.876     8.502
    19   6 C        2.921    -0.045    29.116     8.849
    20   6 C        2.915    -0.034    28.838     8.806
    21   6 C        3.073     0.037    27.105     8.536
    22   6 C        2.932    -0.048    29.204     8.863
    23   6 C        2.932    -0.048    29.202     8.862
    24   6 C        2.911     0.065    26.539     8.447
    25   7 N        2.802    -0.044    22.089     6.980
    26   6 C        3.072     0.047    26.875     8.500
    27   6 C        2.910    -0.051    29.270     8.871
    28   6 C        2.924    -0.033    28.831     8.805
    29   6 C        2.920    -0.041    29.007     8.832
    30   6 C        2.913    -0.033    28.814     8.802
    31   6 C        3.068    -0.017    28.356     8.732
    32   6 C        3.067    -0.017    28.355     8.732
    33   6 C        2.913    -0.033    28.814     8.802
    34   6 C        2.920    -0.040    29.004     8.832
    35   6 C        2.923    -0.033    28.823     8.804
    36   6 C        2.910    -0.050    29.237     8.866
    37   6 C        3.074     0.046    26.883     8.501
    38   6 C        2.921    -0.045    29.123     8.850
    39   1 H        0.926     0.037     2.485     2.465
    40   1 H        0.926     0.036     2.497     2.471
    41   1 H        0.926     0.037     2.483     2.464
    42   1 H        0.926     0.038     2.475     2.460
    43   1 H        0.926     0.042     2.418     2.432
    44   1 H        0.926     0.031     2.577     2.510
    45   1 H        0.926     0.033     2.551     2.498
    46   1 H        0.926     0.033     2.545     2.495
    47   1 H        0.926     0.048     2.347     2.396
    48   1 H        0.925     0.035     2.521     2.483
    49   1 H        0.926     0.034     2.535     2.490
    50   1 H        0.926     0.027     2.633     2.537
    51   1 H        0.926     0.040     2.448     2.447
    52   1 H        0.926     0.040     2.453     2.449
    53   1 H        0.926     0.028     2.620     2.531
    54   1 H        0.926     0.029     2.600     2.521
    55   1 H        0.926     0.028     2.610     2.527
    56   1 H        0.926     0.031     2.568     2.506
    57   1 H        0.926     0.031     2.566     2.505
    58   1 H        0.926     0.029     2.605     2.524
    59   1 H        0.926     0.029     2.597     2.520
    60   1 H        0.926     0.024     2.677     2.558
    61   1 H        0.926     0.042     2.421     2.433

molecular dipole:
                 x           y           z       tot (Debye)
 q only:        0.138       1.142      -0.018
   full:        0.466       1.511      -0.121       4.030

 projected vibrational frequencies (cm⁻¹)
eigval :       -0.00    -0.00    -0.00    -0.00     0.00     0.00
eigval :       13.67    17.85    23.87    37.91    40.29    61.91
eigval :       77.20    81.25    97.83   107.38   114.43   143.00
eigval :      146.34   174.22   186.84   220.07   221.76   236.03
eigval :      240.43   272.07   274.63   280.87   299.00   301.12
eigval :      332.21   340.38   387.84   388.51   397.74   399.88
eigval :      423.51   424.61   434.97   439.76   444.45   456.85
eigval :      516.68   520.14   523.78   530.47   539.53   541.47
eigval :      549.31   574.73   589.52   590.74   596.51   608.10
eigval :      611.99   628.94   643.25   669.37   674.05   679.93
eigval :      684.58   686.33   708.56   722.65   727.91   755.95
eigval :      764.53   770.02   776.41   781.62   793.72   798.56
eigval :      808.98   810.59   868.52   872.00   873.98   887.51
eigval :      894.14   896.33   899.11   900.65   903.41   906.05
eigval :      908.45   909.71   910.92   920.51   922.12   923.77
eigval :      925.17   929.34   932.37   934.87   987.30  1000.19
eigval :     1005.50  1012.70  1024.78  1067.49  1071.18  1074.83
eigval :     1089.93  1100.19  1119.04  1120.41  1125.88  1127.10
eigval :     1147.00  1153.33  1172.12  1176.37  1178.44  1180.80
eigval :     1182.16  1189.69  1193.32  1216.74  1232.07  1235.93
eigval :     1239.97  1259.75  1259.98  1285.81  1290.95  1299.73
eigval :     1301.74  1303.60  1317.52  1323.68  1332.57  1345.24
eigval :     1355.98  1356.91  1360.36  1363.75  1391.99  1416.45
eigval :     1421.68  1427.04  1430.16  1449.42  1472.40  1475.80
eigval :     1476.04  1486.44  1488.14  1490.74  1556.75  1572.33
eigval :     1574.68  1577.81  1579.93  1585.93  1588.51  1588.93
eigval :     1593.25  1599.37  1608.47  1614.93  3061.99  3070.32
eigval :     3075.83  3076.88  3078.23  3080.35  3081.42  3081.55
eigval :     3083.01  3087.45  3088.30  3090.49  3091.72  3092.47
eigval :     3094.15  3094.86  3095.32  3095.42  3095.95  3097.25
eigval :     3101.26  3101.92  3108.26

   temp. (K)  partition function   enthalpy   heat capacity  entropy
                                   cal/mol     cal/K/mol   cal/K/mol   J/K/mol
 298.15  VIB  0.390E+12            16108.308    107.336     97.523
         ROT  0.381E+08              888.752      2.981     37.668
         INT  0.148E+20            16997.060    110.317    135.191
         TR   0.104E+29             1481.254      4.968     44.408
         TOT                       18478.3143   115.2855   179.5988   751.4414

       T/K    H(0)-H(T)+PV         H(T)/Eh          T*S/Eh         G(T)/Eh
   ------------------------------------------------------------------------
    298.15    0.294471E-01    0.497638E+00    0.853332E-01    0.412305E+00
   ------------------------------------------------------------------------

         :::::::::::::::::::::::::::::::::::::::::::::::::::::
         ::                  THERMODYNAMIC                  ::
         :::::::::::::::::::::::::::::::::::::::::::::::::::::
         :: total free energy         -95.098126448527 Eh   ::
         ::.................................................::
         :: total energy              -95.510431331707 Eh   ::
         :: zero point energy           0.468191003991 Eh   ::
         :: G(RRHO) w/o ZPVE           -0.055886120810 Eh   ::
         :: G(RRHO) contrib.            0.412304883181 Eh   ::
         :::::::::::::::::::::::::::::::::::::::::::::::::::::

           -------------------------------------------------
          | TOTAL ENERGY              -95.510431331707 Eh   |
          | TOTAL ENTHALPY            -95.012793259571 Eh   |
          | TOTAL FREE ENERGY         -95.098126448527 Eh   |
          | GRADIENT NORM               0.000032715414 Eh/α |
          | HOMO-LUMO GAP               2.800042553220 eV   |
           -------------------------------------------------

 * finished run on 2025/09/08 at 20:00:16.248
