   * xtb version 6.7.1 (edcfbbe) compiled by 'albert@albert-system' on 2024-07-22

   ID    Z sym.   atoms
    1    6 C      1-8, 10-16, 18-24, 26-38
    2    7 N      9, 17, 25
    3    1 H      39-61

          program call               : xtb data2507/gas/CzBPDCb/CzBPDCb_gas_T1_crest.xyz --gfn 2 --spinpol --tblite --uhf 2 --ohess vtight --parallel 40 --molden --ceasefiles --namespace data2507/gas/CzBPDCb/CzBPDCb_gas_T1_finalOpt
 * total energy  :   -95.4084164 Eh     change        0.1517549E-08 Eh
 * total energy  :   -95.4086580 Eh     change       -0.2415975E-03 Eh
 * total energy  :   -95.4088005 Eh     change       -0.1424956E-03 Eh
 * total energy  :   -95.4088172 Eh     change       -0.1671044E-04 Eh
 * total energy  :   -95.4088376 Eh     change       -0.2035367E-04 Eh
 * total energy  :   -95.4088441 Eh     change       -0.6502042E-05 Eh
 * total energy  :   -95.4088568 Eh     change       -0.1271519E-04 Eh
 * total energy  :   -95.4088614 Eh     change       -0.4664702E-05 Eh
 * total energy  :   -95.4088668 Eh     change       -0.5307668E-05 Eh
 * total energy  :   -95.4088698 Eh     change       -0.3095580E-05 Eh
 * total energy  :   -95.4089062 Eh     change       -0.2997633E-06 Eh
 * total energy  :   -95.4089063 Eh     change       -0.1944960E-06 Eh
 * total energy  :   -95.4089066 Eh     change       -0.2506363E-06 Eh
 * total energy  :   -95.4089068 Eh     change       -0.2314279E-06 Eh
 * total energy  :   -95.4089070 Eh     change       -0.1792354E-06 Eh
 * total energy  :   -95.4089072 Eh     change       -0.2314902E-06 Eh
 * total energy  :   -95.4089074 Eh     change       -0.2066817E-06 Eh
 * total energy  :   -95.4089076 Eh     change       -0.1645935E-06 Eh
 * total energy  :   -95.4089077 Eh     change       -0.7371119E-07 Eh
   *** GEOMETRY OPTIMIZATION CONVERGED AFTER 42 ITERATIONS ***

 final structure:
================
61
 xtb: 6.7.1 (edcfbbe)
C            2.52418628533192        3.64004979322350        1.45726179918350
C            1.23622941856992        3.72266793136460        0.96174341315168
C            0.67496582594101        2.64178238152463        0.28246649419840
C           -0.70311523167577        2.65926093214833       -0.21741982416882
C           -1.26651330800338        3.78430414544309       -0.82241710875471
C           -2.55792792843734        3.73526593235080       -1.31380519340327
C           -3.31564240891060        2.58089844349707       -1.21663731382146
C           -2.77101974845859        1.45538142310810       -0.59515481653518
N           -3.49689180322734        0.26623483567343       -0.48936588021489
C           -4.79530352471990        0.12897333334211       -0.00861643342131
C           -5.72165525407640        1.08995900933477        0.33150970777937
C           -6.96313957957415        0.66434046136741        0.80976040600756
C           -7.24961906465926       -0.69060421989047        0.94648883394966
C           -6.31938133924025       -1.66579748374401        0.63611411129662
C           -5.06020859387368       -1.26277101980878        0.17356866294654
C           -3.89971557248230       -1.95703099807487       -0.21784780115550
N           -3.56829970902756       -3.26136217864693       -0.20968216894312
C           -2.37569151055433       -3.64215679823287       -0.66209131405211
C           -1.40009993016584       -2.75986524104709       -1.04832033567795
C           -1.69786610833269       -1.36934999170195       -1.09921797360608
C           -2.94530807722274       -0.98171676925712       -0.65113937317756
C           -1.47585754765566        1.50878583066956       -0.09640105768191
C            1.44790132191788        1.50035882307221        0.08560068015870
C            2.73606693200078        1.41221298433939        0.59354907498706
N            3.46693220104068        0.23262992744200        0.39938539749250
C            4.76336817844525        0.14063640853288       -0.06620689892823
C            5.64406219387761        1.14578568667843       -0.44094122235533
C            6.89285479473755        0.77226733209447       -0.90020435576653
C            7.26193876040938       -0.56719703081702       -0.99741685727532
C            6.37986193304468       -1.57320046872583       -0.65374367809926
C            5.11972735958849       -1.22270450196263       -0.19004638269262
C            3.97169110603224       -1.98416255369491        0.21850541386931
C            3.71301290805225       -3.34475718003603        0.31212706259824
C            2.47232270049455       -3.75368178173725        0.76151281149023
C            1.50561109714449       -2.82480674742512        1.13944202960011
C            1.74327854978567       -1.46602516082882        1.05999414800865
C            2.97421392492209       -1.04690055920776        0.57316413940261
C            3.27649139753592        2.48889825228804        1.29360616681998
H            2.94512937316616        4.47615725274825        1.99606063885195
H            0.65014070905213        4.61448527877039        1.12448575304074
H           -0.68002146541810        4.68408498718097       -0.92922779238326
H           -2.97947795324947        4.60403786991619       -1.79762338484614
H           -4.30343177642277        2.53448759772695       -1.64654330287851
H           -5.50314012596797        2.14360423601686        0.25168973109946
H           -7.70408917002281        1.40004625750978        1.08021196958338
H           -8.21695797352167       -0.98522465055526        1.32714197984938
H           -6.53819086058565       -2.71430867942757        0.75964488664121
H           -2.21597904138478       -4.70997224581336       -0.70831945885539
H           -0.44315652405012       -3.12147881466722       -1.38560491232465
H           -1.01575930226328       -0.68030646676679       -1.57091431482837
H           -1.08365117928643        0.65194915010521        0.42994635030945
H            1.05636071270173        0.68019986002384       -0.49665055065723
H            5.36196630101467        2.18635513112186       -0.39067512581551
H            7.59678533304057        1.53671127746245       -1.19423733698223
H            8.24846263396747       -0.81821456687548       -1.35743929952444
H            6.65877130384299       -2.61190493411792       -0.74672822879015
H            4.46968863987338       -4.06476630164540        0.03930648457035
H            2.24820762523997       -4.80744147859805        0.83401821945051
H            0.54975510365296       -3.17187227616459        1.50280841451269
H            0.99566608926237       -0.75776303196770        1.38272586891972
H            4.26575158348124        2.41414400566672        1.71784635854882

 projected vibrational frequencies (cm⁻¹)
eigval :       -0.00    -0.00    -0.00    -0.00    -0.00     0.00
eigval :       13.57    17.79    26.76    37.97    40.21    63.45
eigval :       77.53    83.26    98.00   102.57   113.22   137.71
eigval :      144.92   174.23   186.47   213.50   219.33   225.21
eigval :      235.04   244.37   271.37   278.08   301.62   309.50
eigval :      328.31   339.55   360.24   386.63   387.79   396.89
eigval :      412.91   422.59   425.98   435.03   440.73   455.15
eigval :      475.22   498.71   512.30   517.91   526.56   538.23
eigval :      540.14   552.94   569.53   586.56   587.60   602.81
eigval :      609.03   610.51   620.51   638.58   659.65   662.36
eigval :      670.16   675.70   679.54   691.37   708.45   713.76
eigval :      718.42   742.25   750.15   756.41   769.37   780.21
eigval :      787.49   802.36   803.68   824.41   849.31   864.51
eigval :      867.45   870.69   872.24   885.57   888.17   893.17
eigval :      897.17   898.23   900.35   904.45   911.45   915.67
eigval :      921.21   923.76   925.81   928.84   979.51   988.50
eigval :      991.21  1000.90  1012.45  1058.97  1061.24  1070.49
eigval :     1073.79  1077.97  1096.41  1115.41  1118.40  1122.58
eigval :     1126.97  1145.98  1150.53  1158.13  1167.25  1175.66
eigval :     1179.34  1180.76  1187.23  1192.42  1202.72  1231.84
eigval :     1234.32  1238.59  1252.36  1256.77  1268.76  1272.42
eigval :     1285.28  1297.44  1298.95  1320.74  1322.41  1328.69
eigval :     1338.47  1352.94  1354.47  1356.91  1360.78  1386.53
eigval :     1409.77  1413.34  1419.77  1424.08  1432.26  1436.34
eigval :     1438.78  1463.15  1470.11  1472.62  1483.01  1486.55
eigval :     1507.80  1527.18  1549.10  1555.02  1570.17  1576.58
eigval :     1585.72  1588.36  1591.94  1609.75  3064.66  3075.87
eigval :     3078.36  3079.44  3079.77  3080.98  3083.14  3083.51
eigval :     3084.85  3088.24  3090.52  3091.69  3092.52  3092.84
eigval :     3096.12  3096.59  3097.40  3098.74  3100.05  3101.22
eigval :     3104.74  3107.66  3108.98

   temp. (K)  partition function   enthalpy   heat capacity  entropy
                                   cal/mol     cal/K/mol   cal/K/mol   J/K/mol
 298.15  VIB  0.521E+12            16473.523    109.941     99.504
         ROT  0.372E+08              888.752      2.981     37.622
         INT  0.194E+20            17362.275    112.922    137.125
         TR   0.104E+29             1481.254      4.968     44.408
         TOT                       18843.5293   117.8902   181.5334   759.5357

       T/K    H(0)-H(T)+PV         H(T)/Eh          T*S/Eh         G(T)/Eh
   ------------------------------------------------------------------------
    298.15    0.300291E-01    0.492933E+00    0.862524E-01    0.406680E+00
   ------------------------------------------------------------------------

         :::::::::::::::::::::::::::::::::::::::::::::::::::::
         ::                  THERMODYNAMIC                  ::
         :::::::::::::::::::::::::::::::::::::::::::::::::::::
         :: total free energy         -95.002227444285 Eh   ::
         ::.................................................::
         :: total energy              -95.408907755742 Eh   ::
         :: zero point energy           0.462903602902 Eh   ::
         :: G(RRHO) w/o ZPVE           -0.056223291445 Eh   ::
         :: G(RRHO) contrib.            0.406680311457 Eh   ::
         :::::::::::::::::::::::::::::::::::::::::::::::::::::

           -------------------------------------------------
          | TOTAL ENERGY              -95.408907755742 Eh   |
          | TOTAL ENTHALPY            -94.915975077441 Eh   |
          | TOTAL FREE ENERGY         -95.002227444285 Eh   |
          | GRADIENT NORM               0.000046489589 Eh/α |
           -------------------------------------------------

 * finished run on 2025/09/08 at 20:04:44.441
