   * xtb version 6.7.1 (edcfbbe) compiled by 'albert@albert-system' on 2024-07-22

   ID    Z sym.   atoms
    1    6 C      1-4, 6-43, 45-82
    2    7 N      5, 44
    3    1 H      83-134

          program call               : xtb data2507/gas/TPA–DAP–TPA/TPA–DAP–TPA_gas_T1_crest.xyz --gfn 2 --spinpol --tblite --uhf 2 --ohess vtight --parallel 40 --molden --ceasefiles --namespace data2507/gas/TPA–DAP–TPA/TPA–DAP–TPA_gas_T1_finalOpt
 * total energy  :  -203.6786446 Eh     change       -0.1920756E-07 Eh
 * total energy  :  -203.6787792 Eh     change       -0.1345734E-03 Eh
 * total energy  :  -203.6789117 Eh     change       -0.1325148E-03 Eh
 * total energy  :  -203.6789272 Eh     change       -0.1550942E-04 Eh
 * total energy  :  -203.6789443 Eh     change       -0.1709713E-04 Eh
 * total energy  :  -203.6789510 Eh     change       -0.6759293E-05 Eh
 * total energy  :  -203.6789633 Eh     change       -0.1223241E-04 Eh
 * total energy  :  -203.6789756 Eh     change       -0.1234589E-04 Eh
 * total energy  :  -203.6789863 Eh     change       -0.1067494E-04 Eh
 * total energy  :  -203.6789968 Eh     change       -0.1053806E-04 Eh
 * total energy  :  -203.6790469 Eh     change       -0.1457993E-05 Eh
 * total energy  :  -203.6790485 Eh     change       -0.1597000E-05 Eh
 * total energy  :  -203.6790504 Eh     change       -0.1976136E-05 Eh
 * total energy  :  -203.6790526 Eh     change       -0.2127259E-05 Eh
 * total energy  :  -203.6790555 Eh     change       -0.2901931E-05 Eh
 * total energy  :  -203.6790575 Eh     change       -0.2053147E-05 Eh
 * total energy  :  -203.6790591 Eh     change       -0.1556930E-05 Eh
 * total energy  :  -203.6790591 Eh     change        0.2992303E-07 Eh
 * total energy  :  -203.6790591 Eh     change       -0.4166398E-07 Eh
   *** GEOMETRY OPTIMIZATION CONVERGED AFTER 45 ITERATIONS ***

 final structure:
================
134
 xtb: 6.7.1 (edcfbbe)
C          -14.36468952471974        3.70112376854539       -1.52987867771841
C          -14.89715188287150        2.47881096299550       -1.90667840001699
C          -14.33973255478008        1.30127608179827       -1.44829902337928
C          -13.23777574421331        1.33249428516244       -0.59363999598232
N          -12.67281427180679        0.14273362572468       -0.12070799827293
C          -13.49675168192640       -0.94303320072025        0.19713496261251
C          -14.74096823983947       -0.73596584297868        0.79270493436633
C          -15.55241011629499       -1.81087064922128        1.09872318328961
C          -15.13752243650184       -3.10419116179245        0.82541964723456
C          -13.90098123251200       -3.31536073992607        0.23742444462401
C          -13.08530938695522       -2.24694226295674       -0.07952983813833
C          -11.29033674041534        0.03689239238609        0.03055703276931
C          -10.74316407679498       -0.69689982715213        1.08677209457990
C           -9.37924055927686       -0.81341359984811        1.22471512166101
C           -8.50181580194664       -0.19010928042925        0.32883816475906
C           -7.05790263550250       -0.31657966000895        0.47704556597378
C           -6.45899197088900       -1.61199658410002        0.52948582126125
C           -7.21601546539151       -2.77674800952120        0.34498342045067
C           -6.63051116126443       -4.03314893979421        0.34176226233202
C           -5.25930370236022       -4.15276722828983        0.46590115168068
C           -4.47840528359934       -3.01441244815230        0.59925929803541
C           -5.04624131185597       -1.73685046094489        0.66912824020423
C           -4.22645943909473       -0.56572123143948        0.75334755645834
C           -2.79688751586147       -0.70817035447040        0.94088369064652
C           -2.32931957559292       -1.44130645811436        2.04349482774105
C           -0.99310995286697       -1.53658472248470        2.33251431007445
C           -0.02965826586071       -0.93974192566557        1.50168682571432
C            1.35543949304288       -1.01163938693270        1.78306678402249
C            2.27575417506229       -0.45508696228623        0.95143838230658
C            1.87994506169484        0.20701988410561       -0.24170297306022
C            2.81886115441082        0.76448341997917       -1.13289689628264
C            4.26955929717379        0.62225785389477       -0.90143647289096
C            5.03495737783226        1.74313792051997       -0.54793234485100
C            4.43853910267615        3.01406042134710       -0.34002105437433
C            5.19082313822380        4.10350977345931       -0.02446148072258
C            6.58945436898805        3.98848375911799        0.09746026555660
C            7.19659298268252        2.78140120410848       -0.06700713047418
C            6.44724336163446        1.61434001335486       -0.36937239408292
C            7.05786119797759        0.35956159115182       -0.51481871865026
C            8.51314817444897        0.22017789735955       -0.31299296705455
C            9.34916690017402       -0.11675532473964       -1.37472441888368
C           10.70985070356205       -0.24828220387941       -1.19087028983860
C           11.27330087651830       -0.05969593552765        0.07134464185634
N           12.65140180013159       -0.20442766705346        0.26342151818953
C           13.34954871971500       -1.20231007433721       -0.42520402925723
C           14.64339671546622       -0.96919387891593       -0.89116153756075
C           15.32853285973298       -1.95957113816450       -1.56740726187173
C           14.73709636988674       -3.19079009029313       -1.79849168351640
C           13.45056893161019       -3.42610252998572       -1.34197851009914
C           12.76039734062896       -2.44525078567433       -0.65718949233344
C           13.32743669077528        0.64751115057292        1.14311623402808
C           14.37460759386635        0.16767692760314        1.92977910636149
C           15.04124145944247        1.01479053323881        2.79318472736111
C           14.67292206764719        2.34635564807944        2.89505180090161
C           13.63027021480126        2.82696411439294        2.11992398100006
C           12.96313426175375        1.99001296096154        1.24711916887203
C           10.43861065691603        0.27388484959400        1.13809777050662
C            9.08053839004086        0.41782067659393        0.94335094300393
C            6.28990754218187       -0.76559899283240       -0.85281740285197
C            6.86671256607295       -2.05723915983994       -0.97124184535688
C            6.11737804024572       -3.13656418666671       -1.32640790370147
C            4.74172113409100       -2.99048271544116       -1.59102778317183
C            4.14430253121951       -1.77452471547711       -1.46236494878810
C            4.88375572160827       -0.62915627365812       -1.06764513393866
C            2.37644541580298        1.44534349067267       -2.26329082341690
C            1.03358702099276        1.55394227393249       -2.55290300583888
C            0.07153074917215        0.98846643662069       -1.70649273047513
C           -1.31603390219109        1.04183624955583       -1.99583076076720
C           -2.23428888577811        0.49979091888506       -1.15375181607590
C           -1.84700311900972       -0.12687661937171        0.05925487818275
C           -0.46370128425341       -0.24584321312871        0.34462319942269
C            0.49620018246060        0.32044059394030       -0.53180812961177
C           -4.83281404461616        0.73244202589850        0.71572825427644
C           -4.08108194852519        1.89216976066285        0.93705283306062
C           -4.66771569819603        3.14731970850037        0.95850746112833
C           -6.03674298955324        3.26829634980175        0.80615155008314
C           -6.81424047462808        2.13337842690187        0.64267257764404
C           -6.24517327809791        0.85426250447910        0.57462051948060
C           -9.06005563049890        0.55502695279713       -0.71708486914150
C          -10.42332820915537        0.66040892035364       -0.87103024899582
C          -12.70743885113843        2.56576570283795       -0.21456698534442
C          -13.26769645977919        3.73735601460385       -0.68449805967481
H          -14.80187592283195        4.61897352082901       -1.89222871521901
H          -15.74878106132980        2.44118012553374       -2.56980699821268
H          -14.74977155071574        0.34909987217891       -1.75172033653098
H          -15.06180081429492        0.27095105747749        1.01633361115169
H          -16.51257282154519       -1.63741437446780        1.56178200637256
H          -15.77358771868166       -3.94156970567263        1.06854000422756
H          -13.57218956862349       -4.31981812621319        0.01517039468341
H          -12.12730556279470       -2.41282403097115       -0.55014208570023
H          -11.40223337429279       -1.16348331921914        1.80447522237761
H           -8.97319420222887       -1.35917870192854        2.06389213437964
H           -8.27955994701396       -2.69599695014052        0.18142387726082
H           -7.24759237144687       -4.91079991661259        0.21700881878453
H           -4.78882262645990       -5.12434429002304        0.43678521933514
H           -3.40481338307826       -3.11871783909995        0.63286722812466
H           -3.05589990309696       -1.88022634001978        2.71293778880190
H           -0.66564074620867       -2.06211139149237        3.21832215666754
H            1.66978795263723       -1.52435665054078        2.68134651604381
H            3.32883860821919       -0.51312847056584        1.18395256995861
H            3.36630714917157        3.10091065490223       -0.43616442061502
H            4.72263349051069        5.06465943827735        0.13013889558515
H            7.17494008550858        4.86705013148932        0.32651946537630
H            8.26888627709185        2.69523201544730        0.02734770203106
H            8.92425564281303       -0.25890014840224       -2.35796848380706
H           11.34858178482909       -0.49643026757086       -2.02594745377052
H           15.10329357691390       -0.00652936180359       -0.72174778892854
H           16.32918066589922       -1.76482644245545       -1.92454048461962
H           15.27470821423489       -3.96100090269334       -2.33033919131695
H           12.98306970527055       -4.38482728758755       -1.51255737108718
H           11.76148426555955       -2.63555997057869       -0.29264077336686
H           14.65722761480874       -0.87263841219679        1.86043914964744
H           15.84920503474528        0.62945684260496        3.39774601842017
H           15.19446064771940        3.00442284866822        3.57332382548730
H           13.33927248656453        3.86495553575204        2.18849251120065
H           12.15797765990482        2.37046979734139        0.63563189292313
H           10.86343636317536        0.41418589274502        2.12133571479970
H            8.44234439419235        0.66765535572127        1.77872399814506
H            7.92118419897190       -2.17136012277492       -0.76848733285990
H            6.57243468790760       -4.11271142888746       -1.41109179967049
H            4.16468669727299       -3.85290664159576       -1.89103648802297
H            3.08850584660884       -1.66461799978644       -1.66006958180913
H            3.11012287579731        1.87413485277542       -2.93176122305078
H            0.71072292823144        2.06899955813902       -3.44625329039654
H           -1.63035140677531        1.52032126090218       -2.91262628533546
H           -3.28470598145090        0.53796532692691       -1.40137775544644
H           -3.01810496525248        1.80961920439950        1.10275420295400
H           -4.05364555968938        4.02214045598645        1.11204154410854
H           -6.50718326480837        4.24008859446911        0.83600763415026
H           -7.88694223519362        2.23757186321710        0.58764633720594
H           -8.40495008989292        1.01663984700757       -1.44145653868865
H          -10.83339440722401        1.21501558454056       -1.70254580792482
H          -11.86036336944431        2.59614327907841        0.45499887192277
H          -12.84998131957685        4.68590174430849       -0.38084616051741

 projected vibrational frequencies (cm⁻¹)
eigval :       -0.00    -0.00    -0.00    -0.00     0.00     0.00
eigval :        4.11     4.99     6.83     9.12    11.69    14.87
eigval :       18.45    20.12    29.49    31.42    33.55    40.23
eigval :       45.06    47.22    49.67    53.84    58.62    61.15
eigval :       69.28    70.54    72.22    74.48    78.29    78.71
eigval :       87.42    98.35   101.53   104.89   115.67   120.10
eigval :      127.35   140.17   143.42   154.39   164.05   176.15
eigval :      184.46   186.66   191.93   193.75   202.31   207.80
eigval :      214.87   224.80   232.86   233.14   235.75   243.94
eigval :      247.34   273.17   288.23   292.19   315.39   317.23
eigval :      319.86   320.38   338.86   347.30   350.89   356.25
eigval :      369.94   375.37   377.81   378.01   378.38   381.21
eigval :      385.19   387.14   388.97   391.83   392.04   399.49
eigval :      400.10   404.16   407.93   410.40   413.50   416.94
eigval :      424.55   439.74   446.19   455.59   459.04   467.36
eigval :      472.55   474.99   485.26   485.73   487.37   489.19
eigval :      494.39   499.14   503.23   507.94   517.35   527.18
eigval :      554.90   560.96   571.86   578.07   579.52   582.45
eigval :      584.46   585.20   587.65   588.35   590.63   593.12
eigval :      597.17   601.23   603.98   606.29   612.81   619.34
eigval :      631.41   644.40   645.38   647.75   651.19   653.32
eigval :      659.72   659.83   664.45   666.19   671.00   677.77
eigval :      685.71   687.56   690.92   691.83   696.45   699.35
eigval :      719.73   725.10   734.26   738.30   742.89   754.53
eigval :      755.22   756.53   756.98   760.51   760.80   764.70
eigval :      774.11   775.02   798.78   804.14   810.64   811.98
eigval :      816.14   818.79   840.71   844.19   853.52   857.00
eigval :      871.61   872.74   873.07   873.88   874.15   875.26
eigval :      875.86   877.74   889.74   890.56   891.25   893.01
eigval :      894.15   895.53   896.60   897.08   897.45   897.62
eigval :      908.80   909.62   910.12   910.29   911.67   912.51
eigval :      913.34   915.58   917.55   919.71   921.15   926.32
eigval :      926.97   927.26   927.69   928.15   928.18   928.49
eigval :      928.57   929.17   929.55   929.75   929.85   931.87
eigval :      933.26   937.00   941.60   943.20   946.72   986.61
eigval :      987.49   997.37  1004.75  1005.04  1018.75  1024.54
eigval :     1032.14  1082.47  1082.88  1083.49  1083.77  1083.89
eigval :     1084.50  1106.71  1108.34  1110.47  1116.84  1121.92
eigval :     1122.17  1123.64  1124.14  1124.53  1135.33  1139.09
eigval :     1140.94  1144.57  1154.44  1160.51  1177.05  1180.36
eigval :     1180.46  1180.65  1180.66  1181.30  1182.73  1183.87
eigval :     1184.59  1185.53  1187.19  1188.82  1190.07  1193.82
eigval :     1194.65  1195.64  1197.18  1200.24  1203.26  1208.40
eigval :     1218.30  1221.41  1224.53  1228.84  1230.37  1239.31
eigval :     1245.03  1257.68  1259.85  1263.19  1269.44  1270.78
eigval :     1277.66  1278.58  1279.07  1281.06  1281.95  1291.88
eigval :     1303.80  1308.28  1310.67  1311.64  1315.25  1318.21
eigval :     1318.72  1321.29  1321.81  1324.00  1324.54  1326.92
eigval :     1327.44  1328.53  1330.57  1344.60  1346.06  1350.34
eigval :     1361.00  1377.94  1378.57  1385.17  1385.91  1390.32
eigval :     1398.45  1407.94  1408.70  1415.44  1415.71  1418.17
eigval :     1421.45  1428.38  1435.62  1436.30  1442.38  1442.48
eigval :     1444.59  1455.20  1457.53  1465.41  1469.07  1472.07
eigval :     1472.85  1475.38  1476.32  1476.80  1488.84  1495.77
eigval :     1502.32  1513.41  1523.22  1525.31  1527.60  1528.31
eigval :     1531.30  1535.55  1540.00  1541.81  1551.87  1555.18
eigval :     1571.13  1575.38  1576.93  1577.94  1580.29  1580.97
eigval :     1583.73  1592.00  1594.46  1595.01  1597.02  1601.23
eigval :     1606.78  1620.94  3066.02  3067.37  3069.53  3070.56
eigval :     3072.00  3072.59  3074.21  3074.77  3075.26  3075.57
eigval :     3075.80  3076.36  3076.56  3076.82  3077.36  3077.54
eigval :     3077.56  3078.35  3078.56  3078.98  3079.08  3079.58
eigval :     3080.30  3080.68  3083.99  3084.97  3085.62  3086.41
eigval :     3087.00  3087.67  3087.81  3087.87  3088.39  3088.65
eigval :     3089.15  3089.24  3089.35  3089.73  3089.79  3090.33
eigval :     3090.82  3091.05  3092.72  3094.61  3095.92  3096.55
eigval :     3097.06  3097.58  3098.25  3098.86  3099.26  3101.22

   temp. (K)  partition function   enthalpy   heat capacity  entropy
                                   cal/mol     cal/K/mol   cal/K/mol   J/K/mol
 298.15  VIB  0.263E+33            38736.136    244.073    245.118
         ROT  0.554E+09              888.752      2.981     42.989
         INT  0.145E+42            39624.888    247.054    288.107
         TR   0.325E+29             1481.254      4.968     46.681
         TOT                       41106.1421   252.0217   334.7878  1400.7523

       T/K    H(0)-H(T)+PV         H(T)/Eh          T*S/Eh         G(T)/Eh
   ------------------------------------------------------------------------
    298.15    0.655068E-01    0.110073E+01    0.159068E+00    0.941661E+00
   ------------------------------------------------------------------------

         :::::::::::::::::::::::::::::::::::::::::::::::::::::
         ::                  THERMODYNAMIC                  ::
         :::::::::::::::::::::::::::::::::::::::::::::::::::::
         :: total free energy        -202.737398226611 Eh   ::
         ::.................................................::
         :: total energy             -203.679059099072 Eh   ::
         :: zero point energy           1.035222563422 Eh   ::
         :: G(RRHO) w/o ZPVE           -0.093561690961 Eh   ::
         :: G(RRHO) contrib.            0.941660872461 Eh   ::
         :::::::::::::::::::::::::::::::::::::::::::::::::::::

           -------------------------------------------------
          | TOTAL ENERGY             -203.679059099072 Eh   |
          | TOTAL ENTHALPY           -202.578329728595 Eh   |
          | TOTAL FREE ENERGY        -202.737398226611 Eh   |
          | GRADIENT NORM               0.000110476244 Eh/α |
           -------------------------------------------------

 * finished run on 2025/09/12 at 06:54:26.078
