   * xtb version 6.7.1 (edcfbbe) compiled by 'albert@albert-system' on 2024-07-22

   ID    Z sym.   atoms
    1    6 C      1-4, 6-43, 45-82
    2    7 N      5, 44
    3    1 H      83-134

          program call               : xtb data2507/gas/TPA–DAP–TPA/TPA–DAP–TPA.xyz --gfn 2 --ohess vtight --parallel 40 --molden --ceasefiles --namespace data2507/gas/TPA–DAP–TPA/TPA–DAP–TPA_gas_S0_preOpt
          :  Hamiltonian                  GFN2-xTB          :
 * total energy  :  -203.6909317 Eh     change       -0.6434703E-08 Eh
 * total energy  :  -203.7204769 Eh     change       -0.2954521E-01 Eh
 * total energy  :  -203.7322425 Eh     change       -0.1176558E-01 Eh
 * total energy  :  -203.7351862 Eh     change       -0.2943671E-02 Eh
 * total energy  :  -203.7365170 Eh     change       -0.1330841E-02 Eh
 * total energy  :  -203.7371910 Eh     change       -0.6740028E-03 Eh
 * total energy  :  -203.7376585 Eh     change       -0.4675029E-03 Eh
 * total energy  :  -203.7379843 Eh     change       -0.3258267E-03 Eh
 * total energy  :  -203.7381519 Eh     change       -0.1675294E-03 Eh
 * total energy  :  -203.7382473 Eh     change       -0.9544511E-04 Eh
 * total energy  :  -203.7394693 Eh     change       -0.1364743E-06 Eh
 * total energy  :  -203.7394694 Eh     change       -0.1074014E-06 Eh
 * total energy  :  -203.7394695 Eh     change       -0.1019599E-06 Eh
 * total energy  :  -203.7394697 Eh     change       -0.1155136E-06 Eh
 * total energy  :  -203.7394698 Eh     change       -0.1621618E-06 Eh
 * total energy  :  -203.7394701 Eh     change       -0.2646417E-06 Eh
 * total energy  :  -203.7394705 Eh     change       -0.3895640E-06 Eh
 * total energy  :  -203.7394708 Eh     change       -0.3184457E-06 Eh
 * total energy  :  -203.7394708 Eh     change       -0.1079454E-07 Eh
   *** GEOMETRY OPTIMIZATION CONVERGED AFTER 122 ITERATIONS ***

 final structure:
================
134
 xtb: 6.7.1 (edcfbbe)
C          -14.33617854833673        2.75414038858228       -2.86298881491137
C          -14.85754500960235        1.47586179332710       -2.74793115444852
C          -14.29844498799356        0.56775046374149       -1.87024827797270
C          -13.20654586582292        0.93221393942023       -1.08267484361611
N          -12.63922563542303        0.01781928341612       -0.18833803198038
C          -13.45553613908375       -0.87681523302430        0.51249182251433
C          -14.71170317609312       -0.47954919328956        0.97021177812722
C          -15.51468862662277       -1.36794584691635        1.65836938241438
C          -15.07949831461376       -2.65889063569466        1.90958687263492
C          -13.83095916301665       -3.05737541300356        1.46100572298819
C          -13.02418551009855       -2.17914212482503        0.76438417143855
C          -11.25466048437471       -0.00031295618627        0.00757042850122
C          -10.72013442625591       -0.24261687163252        1.27321141425401
C           -9.35383937573226       -0.26599873983500        1.46146212664410
C           -8.48181086695238       -0.03474411078998        0.40080305583431
C           -7.02056768498707       -0.05116592396374        0.61070035801610
C           -6.37631660468479       -1.25188279583296        0.94416569866811
C           -7.08331941706307       -2.47856096944591        1.04901315084899
C           -6.44456030647864       -3.63729137101546        1.36705757626414
C           -5.05299601367459       -3.64621283256154        1.58956736908564
C           -4.33458230661152       -2.49607160690137        1.48119140051880
C           -4.96326867756801       -1.26463525656557        1.15909371133798
C           -4.22730693710880       -0.08025520932224        1.02668012689953
C           -2.76872957590814       -0.08929147066309        1.27580440883860
C           -2.30465113933160       -0.10543854974949        2.58627435280916
C           -0.95321853946905       -0.09321368488751        2.86605300768184
C           -0.01207849851784       -0.06602269724862        1.83580287822803
C            1.39016361781504       -0.04073785357267        2.08801759528185
C            2.28693158748515       -0.01573560783669        1.07581508184446
C            1.86307777865588       -0.01857190916854       -0.28633858393206
C            2.77893039434083        0.00334174862504       -1.34987999924158
C            4.23711996698561        0.01046664496397       -1.09615670090419
C            4.95192778650589        1.21168221494466       -1.18319345343767
C            4.30367878549990        2.44075499818093       -1.47396092784048
C            5.00179072172326        3.60657085249769       -1.53842353111964
C            6.39114305975270        3.61591749946287       -1.30190791617133
C            7.04829723412352        2.45967842071638       -1.01374602553409
C            6.36275777413718        1.21784533022125       -0.95389503354436
C            7.02547010275084        0.01920651829627       -0.65158046093844
C            8.48394300882145        0.02448368582969       -0.41805187666215
C            9.36991808478341        0.28520335014266       -1.45975637282385
C           10.73266088240865        0.29455050318949       -1.24474889312144
C           11.24889001422828        0.03901937717380        0.02583394897091
N           12.62979355600307        0.04715027646977        0.24774640940062
C           13.49795409877671       -0.45414166285217       -0.72852084763493
C           14.73335070532945        0.15220958992642       -0.95552078893199
C           15.58924614563788       -0.34995321732704       -1.91616191019215
C           15.22802214819281       -1.45408305841585       -2.67078772681756
C           13.99994225998599       -2.05683928352017       -2.45323218618765
C           13.14077190250365       -1.56763739187496       -1.48884507942200
C           13.14200528565219        0.55529357258306        1.44680144130602
C           14.24880004426762       -0.03957759176681        2.05220315839742
C           14.75370692023267        0.46921096460815        3.23279008600390
C           14.16269759343483        1.56868657089954        3.83354489302684
C           13.06008852442914        2.16020879486174        3.23924961161418
C           12.55307962655948        1.66428516084834        2.05410791539510
C           10.36362232610221       -0.22452237256026        1.07127199678772
C            9.00202951000233       -0.22946874728686        0.84893199531556
C            6.30885308329926       -1.18377399688881       -0.56823924298232
C            6.94942584875616       -2.42109480477066       -0.29564511087798
C            6.24162054985141       -3.58084090076023       -0.21913801608147
C            4.84649027902257       -3.57920200149039       -0.41869387497804
C            4.19602943523791       -2.41829877609314       -0.70128867451996
C            4.89668704164555       -1.18670594894691       -0.78842819268751
C            2.31567906740627        0.01592368577166       -2.66041103797701
C            0.96419030952703       -0.00269509849389       -2.94040999349179
C            0.02286786433636       -0.03116036424404       -1.91037661399911
C           -1.37940706098995       -0.05815643633221       -2.16254936063330
C           -2.27628441913799       -0.08026377287479       -1.15035980723748
C           -1.85286289865192       -0.07409977837173        0.21199868631827
C           -0.46414459216480       -0.05974223005932        0.49332813380421
C            0.47449432649145       -0.03645810637382       -0.56775364221820
C           -4.86800597416224        1.11826482631735        0.68448689289323
C           -4.14647539098053        2.33371000885613        0.55196257794044
C           -4.77819931250286        3.49666285655755        0.23711721816862
C           -6.17487871598261        3.51780158508145        0.05115491275240
C           -6.90275338251421        2.37451127056048        0.17335044896714
C           -6.28226701864652        1.13459937569854        0.47862270515145
C           -9.01859950488560        0.21319429196505       -0.85983071156559
C          -10.38364070566694        0.22375961339555       -1.05887833996257
C          -12.68814164692975        2.22183040501679       -1.19967895244747
C          -13.24886203818953        3.11988322617738       -2.08656892105248
H          -14.77401748268557        3.45990838073323       -3.55241254409765
H          -15.70179680683342        1.17971141555038       -3.35315520406271
H          -14.70093382533134       -0.43149991150682       -1.78992301379453
H          -15.04953459148001        0.52961733609624        0.78473102543100
H          -16.48445815118065       -1.04637987065025        2.00894699994882
H          -15.70863174371743       -3.34909958939939        2.45080572235370
H          -13.48524323321925       -4.06368919799176        1.64715351189142
H          -12.05561189415151       -2.49622141967960        0.40617656391940
H          -11.38534326747631       -0.40867413009703        2.10792350075610
H           -8.95101413537627       -0.44750382334475        2.44754174292453
H           -8.14693979747426       -2.47767887558679        0.86254659261272
H           -6.99793595615428       -4.56196625329513        1.44321537729063
H           -4.56213357677140       -4.57633687907006        1.83608487795544
H           -3.26519316316194       -2.50228776399841        1.63355664224957
H           -3.02380751318527       -0.12122546737206        3.39320571367909
H           -0.61320769498326       -0.10110890983641        3.89181923705162
H            1.72120236580575       -0.03945801046245        3.11704035558216
H            3.34764396941036        0.00765991232550        1.27944674389367
H            3.23614291899039        2.43169723303648       -1.63888483841877
H            4.49651207924954        4.53489621697079       -1.76145787768839
H            6.92813692804606        4.55234508341889       -1.34424333298208
H            8.11029391742925        2.47174047411512       -0.81834194500166
H            8.98103021015245        0.48308987404825       -2.44830716837558
H           11.40869732183488        0.50386882941520       -2.06084278747867
H           15.01360445286880        1.01942787406771       -0.37555988607567
H           16.54231739422112        0.13043109830998       -2.08248106811476
H           15.89844358461318       -1.84169537148086       -3.42272420965974
H           13.71134740956780       -2.92125048173386       -3.03317002532300
H           12.18817549956415       -2.04643932347205       -1.31485373823717
H           14.70572685317322       -0.90317458015167        1.59136116313732
H           15.61034549541033       -0.00240297771749        3.69161592716354
H           14.55837086396267        1.96140535167045        4.75784840497895
H           12.59544687949449        3.02105317807656        3.69737997579576
H           11.69926769720879        2.13422188808813        1.58812694415268
H           10.75234417515206       -0.42820467748814        2.05832807132194
H            8.32557139172922       -0.43300106464332        1.66663164656704
H            8.02005480304885       -2.42662460934952       -0.15453216509118
H            6.74460814327847       -4.51390659087570       -0.01069526018555
H            4.30119460598692       -4.50939239388876       -0.35408286503781
H            3.12880865097614       -2.41579707897494       -0.86791371050542
H            3.03497371603883        0.03567786410788       -3.46711369217503
H            0.62438916420506        0.00304122257121       -3.96626282186023
H           -1.71046184696279       -0.06229247709448       -3.19156003357510
H           -3.33689800599165       -0.10422236983568       -1.35432448219149
H           -3.07814082734485        2.31803987773565        0.70987984365581
H           -4.21649990210308        4.41388799602336        0.13732282031563
H           -6.66306294200738        4.45281703572751       -0.18223311037091
H           -7.97468076815584        2.39628143496274        0.04493172157897
H           -8.35355027662333        0.38128239974625       -1.69473676868652
H          -10.78631993624827        0.40313933610652       -2.04505306920445
H          -11.84741845419188        2.51362409739984       -0.58727808772198
H          -12.83888945861107        4.11617000532817       -2.16517801432355

          :  Hamiltonian                  GFN2-xTB          :
         :: gradient norm              0.000059373306 Eh/a0 ::
         :: HOMO-LUMO gap              1.849780426552 eV    ::
         :: SCC energy              -207.700548414564 Eh    ::
         :: -> dispersion             -0.205090091392 Eh    ::
         :: repulsion energy           3.961077608337 Eh    ::

    * Orbital Energies and Occupations

         #    Occupation            Energy/Eh            Energy/eV
      -------------------------------------------------------------
         1        2.0000           -0.6640551             -18.0699
       ...           ...                  ...                  ...
       179        2.0000           -0.4029205             -10.9640
       180        2.0000           -0.4009069             -10.9092
       181        2.0000           -0.4000054             -10.8847
       182        2.0000           -0.3993161             -10.8659
       183        2.0000           -0.3968340             -10.7984
       184        2.0000           -0.3966740             -10.7940
       185        2.0000           -0.3949949             -10.7484
       186        2.0000           -0.3894488             -10.5974
       187        2.0000           -0.3623935              -9.8612
       188        2.0000           -0.3575883              -9.7305
       189        2.0000           -0.3558382              -9.6828
       190        2.0000           -0.3473260              -9.4512
       191        2.0000           -0.3469305              -9.4405 (HOMO)
       192                         -0.2789523              -7.5907 (LUMO)
       193                         -0.2768352              -7.5331
       194                         -0.2723814              -7.4119
       195                         -0.2404810              -6.5438
       196                         -0.2300932              -6.2612
       197                         -0.2299525              -6.2573
       198                         -0.2295875              -6.2474
       199                         -0.2293621              -6.2413
       200                         -0.2287089              -6.2235
       201                         -0.2286065              -6.2207
       202                         -0.2267262              -6.1695
       ...                                ...                  ...
       380                          0.7330492              19.9473
      -------------------------------------------------------------
                  HL-Gap            0.0679782 Eh            1.8498 eV

     #   Z          covCN         q      C6AA      α(0)
     1   6 C        2.919    -0.039    28.959     8.825
     2   6 C        2.920    -0.029    28.731     8.790
     3   6 C        2.922    -0.048    29.185     8.859
     4   6 C        2.924     0.065    26.539     8.448
     5   7 N        2.752    -0.076    22.723     7.080
     6   6 C        2.924     0.065    26.539     8.448
     7   6 C        2.922    -0.048    29.185     8.859
     8   6 C        2.920    -0.029    28.731     8.790
     9   6 C        2.919    -0.039    28.959     8.825
    10   6 C        2.920    -0.029    28.732     8.790
    11   6 C        2.922    -0.048    29.180     8.859
    12   6 C        2.924     0.063    26.587     8.456
    13   6 C        2.921    -0.049    29.214     8.864
    14   6 C        2.924    -0.033    28.813     8.803
    15   6 C        2.976     0.007    27.862     8.658
    16   6 C        2.976    -0.006    28.168     8.706
    17   6 C        2.983     0.006    27.892     8.663
    18   6 C        2.917    -0.035    28.861     8.810
    19   6 C        2.915    -0.030    28.759     8.794
    20   6 C        2.914    -0.030    28.754     8.793
    21   6 C        2.918    -0.034    28.839     8.806
    22   6 C        2.984     0.006    27.879     8.661
    23   6 C        2.978    -0.004    28.126     8.699
    24   6 C        2.977     0.008    27.839     8.655
    25   6 C        2.919    -0.034    28.841     8.807
    26   6 C        2.918    -0.038    28.952     8.824
    27   6 C        2.982     0.009    27.815     8.651
    28   6 C        2.913    -0.036    28.905     8.816
    29   6 C        2.913    -0.034    28.839     8.806
    30   6 C        2.985     0.007    27.861     8.658
    31   6 C        2.977     0.008    27.838     8.655
    32   6 C        2.979    -0.004    28.123     8.699
    33   6 C        2.985     0.006    27.879     8.661
    34   6 C        2.918    -0.034    28.837     8.806
    35   6 C        2.914    -0.030    28.752     8.793
    36   6 C        2.915    -0.030    28.757     8.794
    37   6 C        2.917    -0.035    28.862     8.810
    38   6 C        2.984     0.006    27.891     8.663
    39   6 C        2.977    -0.006    28.168     8.706
    40   6 C        2.976     0.007    27.862     8.658
    41   6 C        2.923    -0.033    28.815     8.803
    42   6 C        2.921    -0.049    29.214     8.864
    43   6 C        2.924     0.063    26.588     8.456
    44   7 N        2.752    -0.077    22.727     7.080
    45   6 C        2.924     0.065    26.539     8.448
    46   6 C        2.922    -0.048    29.187     8.860
    47   6 C        2.920    -0.029    28.732     8.790
    48   6 C        2.919    -0.039    28.960     8.825
    49   6 C        2.920    -0.029    28.733     8.790
    50   6 C        2.922    -0.048    29.184     8.859
    51   6 C        2.924     0.065    26.539     8.448
    52   6 C        2.922    -0.048    29.186     8.859
    53   6 C        2.920    -0.029    28.732     8.790
    54   6 C        2.919    -0.039    28.959     8.825
    55   6 C        2.920    -0.029    28.733     8.790
    56   6 C        2.922    -0.048    29.183     8.859
    57   6 C        2.921    -0.049    29.215     8.864
    58   6 C        2.924    -0.033    28.814     8.803
    59   6 C        2.984     0.005    27.895     8.664
    60   6 C        2.917    -0.035    28.863     8.810
    61   6 C        2.915    -0.030    28.756     8.793
    62   6 C        2.914    -0.030    28.751     8.793
    63   6 C        2.918    -0.033    28.827     8.804
    64   6 C        2.985     0.006    27.870     8.660
    65   6 C        2.919    -0.034    28.842     8.807
    66   6 C        2.919    -0.038    28.952     8.824
    67   6 C        2.982     0.009    27.815     8.651
    68   6 C        2.913    -0.036    28.906     8.816
    69   6 C        2.913    -0.034    28.838     8.806
    70   6 C        2.984     0.007    27.860     8.658
    71   6 C        2.996     0.002    27.972     8.676
    72   6 C        2.996     0.002    27.972     8.676
    73   6 C        2.984     0.006    27.869     8.660
    74   6 C        2.918    -0.033    28.829     8.805
    75   6 C        2.914    -0.030    28.752     8.793
    76   6 C        2.915    -0.030    28.758     8.794
    77   6 C        2.917    -0.035    28.864     8.810
    78   6 C        2.983     0.005    27.896     8.664
    79   6 C        2.923    -0.033    28.814     8.803
    80   6 C        2.921    -0.049    29.215     8.864
    81   6 C        2.922    -0.048    29.181     8.859
    82   6 C        2.920    -0.029    28.732     8.790
    83   1 H        0.926     0.030     2.590     2.516
    84   1 H        0.926     0.031     2.571     2.508
    85   1 H        0.926     0.031     2.567     2.506
    86   1 H        0.926     0.031     2.567     2.506
    87   1 H        0.926     0.031     2.571     2.508
    88   1 H        0.926     0.030     2.589     2.516
    89   1 H        0.926     0.031     2.571     2.508
    90   1 H        0.926     0.030     2.581     2.512
    91   1 H        0.926     0.032     2.558     2.501
    92   1 H        0.926     0.032     2.555     2.500
    93   1 H        0.926     0.031     2.578     2.511
    94   1 H        0.926     0.028     2.621     2.532
    95   1 H        0.926     0.028     2.618     2.530
    96   1 H        0.926     0.030     2.586     2.515
    97   1 H        0.926     0.029     2.606     2.525
    98   1 H        0.926     0.030     2.581     2.512
    99   1 H        0.926     0.029     2.598     2.521
   100   1 H        0.926     0.030     2.590     2.517
   101   1 H        0.926     0.030     2.588     2.516
   102   1 H        0.926     0.028     2.617     2.530
   103   1 H        0.926     0.028     2.620     2.531
   104   1 H        0.926     0.031     2.576     2.510
   105   1 H        0.926     0.032     2.557     2.501
   106   1 H        0.926     0.032     2.558     2.501
   107   1 H        0.926     0.031     2.568     2.506
   108   1 H        0.926     0.031     2.572     2.508
   109   1 H        0.926     0.030     2.591     2.517
   110   1 H        0.926     0.031     2.571     2.508
   111   1 H        0.926     0.031     2.577     2.510
   112   1 H        0.926     0.031     2.568     2.506
   113   1 H        0.926     0.031     2.572     2.508
   114   1 H        0.926     0.030     2.590     2.517
   115   1 H        0.926     0.031     2.571     2.508
   116   1 H        0.926     0.031     2.577     2.510
   117   1 H        0.926     0.032     2.558     2.501
   118   1 H        0.926     0.032     2.561     2.502
   119   1 H        0.926     0.031     2.576     2.510
   120   1 H        0.926     0.028     2.619     2.531
   121   1 H        0.926     0.028     2.617     2.530
   122   1 H        0.926     0.030     2.592     2.518
   123   1 H        0.926     0.029     2.608     2.525
   124   1 H        0.926     0.030     2.581     2.512
   125   1 H        0.926     0.029     2.598     2.521
   126   1 H        0.926     0.030     2.588     2.516
   127   1 H        0.926     0.030     2.591     2.517
   128   1 H        0.926     0.028     2.619     2.531
   129   1 H        0.926     0.028     2.621     2.532
   130   1 H        0.926     0.031     2.577     2.510
   131   1 H        0.926     0.032     2.557     2.501
   132   1 H        0.926     0.032     2.558     2.501
   133   1 H        0.926     0.030     2.581     2.512
   134   1 H        0.926     0.031     2.571     2.508

molecular dipole:
                 x           y           z       tot (Debye)
 q only:       -0.018       0.002       0.001
   full:       -0.019       0.003       0.003       0.049

 projected vibrational frequencies (cm⁻¹)
eigval :       -0.00    -0.00     0.00     0.00     0.00     0.00
eigval :        3.51     4.65     4.98     7.80     9.64    13.43
eigval :       14.65    17.86    20.36    31.15    33.22    39.75
eigval :       42.97    46.60    49.08    51.72    57.76    58.17
eigval :       66.36    69.49    71.64    72.14    78.53    78.82
eigval :       82.67    97.55    98.10   107.39   108.46   111.45
eigval :      112.84   138.63   145.58   147.91   156.11   174.18
eigval :      180.74   183.81   186.87   190.48   201.79   203.79
eigval :      212.12   212.61   231.04   232.92   233.64   238.11
eigval :      238.33   269.89   287.85   292.21   316.67   318.52
eigval :      320.01   326.18   334.72   346.86   350.64   358.38
eigval :      375.10   377.16   378.04   378.15   378.59   384.82
eigval :      387.12   387.90   390.31   391.88   396.80   399.86
eigval :      404.89   409.04   410.77   411.83   415.45   419.28
eigval :      428.41   445.99   446.41   458.61   458.75   461.41
eigval :      475.40   477.03   485.57   486.62   486.87   489.20
eigval :      494.91   501.20   502.52   507.24   517.68   528.76
eigval :      556.58   563.31   578.72   579.98   583.17   584.70
eigval :      585.08   585.55   588.19   588.97   593.20   595.36
eigval :      598.54   604.82   605.29   607.47   616.07   627.06
eigval :      638.56   646.30   652.34   652.54   653.71   654.48
eigval :      659.75   660.01   665.22   666.61   679.12   683.13
eigval :      687.79   691.98   692.48   692.79   695.61   701.12
eigval :      725.02   735.14   737.99   740.77   744.54   756.68
eigval :      756.72   757.97   760.73   760.97   774.09   774.20
eigval :      775.40   775.53   799.33   805.43   815.50   815.86
eigval :      816.52   822.22   844.08   850.76   871.88   872.43
eigval :      873.38   873.83   874.23   874.40   875.43   875.60
eigval :      877.85   877.88   890.26   890.67   891.38   891.43
eigval :      897.16   897.43   897.71   897.91   910.10   910.24
eigval :      913.32   914.52   915.64   915.79   916.14   917.50
eigval :      917.72   920.06   920.28   921.02   923.24   926.52
eigval :      926.82   927.34   927.35   928.06   928.10   928.32
eigval :      928.40   928.63   928.81   929.84   929.85   931.57
eigval :      931.62   932.55   932.81   943.07   943.68   987.28
eigval :      987.70   995.98  1004.95  1005.04  1017.68  1026.89
eigval :     1031.95  1080.58  1081.00  1081.35  1081.99  1083.25
eigval :     1083.32  1084.30  1084.37  1109.70  1110.23  1121.96
eigval :     1122.07  1124.31  1124.42  1135.26  1135.31  1138.97
eigval :     1139.09  1154.28  1156.97  1165.05  1180.63  1180.73
eigval :     1180.78  1180.79  1180.94  1181.09  1181.67  1183.88
eigval :     1184.98  1187.44  1187.68  1193.83  1194.07  1195.83
eigval :     1195.86  1195.98  1200.93  1208.28  1208.33  1221.45
eigval :     1223.47  1227.55  1227.77  1228.23  1228.59  1247.79
eigval :     1256.43  1259.68  1262.55  1262.87  1268.05  1270.70
eigval :     1270.98  1278.71  1278.78  1282.03  1282.12  1304.17
eigval :     1309.44  1310.78  1310.82  1317.39  1319.46  1321.43
eigval :     1321.67  1323.88  1323.99  1327.52  1327.61  1332.54
eigval :     1333.07  1350.44  1350.45  1355.17  1371.36  1379.61
eigval :     1382.66  1385.56  1385.97  1388.08  1407.50  1407.96
eigval :     1409.42  1417.01  1420.26  1424.58  1429.69  1429.80
eigval :     1436.45  1436.49  1443.14  1443.34  1446.71  1447.14
eigval :     1452.14  1472.57  1472.62  1476.93  1477.30  1477.32
eigval :     1477.68  1496.08  1496.65  1499.89  1503.54  1526.74
eigval :     1526.80  1528.88  1529.95  1533.70  1542.76  1543.17
eigval :     1555.78  1556.26  1563.78  1565.00  1577.23  1577.27
eigval :     1581.27  1581.30  1595.47  1595.49  1595.57  1596.37
eigval :     1601.88  1602.26  1604.92  1607.29  1608.89  1608.91
eigval :     1623.05  1623.12  3067.88  3067.97  3070.87  3070.96
eigval :     3072.66  3072.67  3072.88  3072.99  3075.19  3075.23
eigval :     3075.44  3075.56  3075.70  3075.81  3076.43  3076.44
eigval :     3076.77  3076.82  3077.53  3077.64  3078.78  3078.93
eigval :     3079.22  3079.71  3081.57  3082.05  3085.55  3085.59
eigval :     3085.70  3086.30  3086.40  3086.89  3087.86  3087.99
eigval :     3088.44  3088.59  3089.11  3089.24  3089.28  3089.32
eigval :     3089.37  3089.86  3090.06  3090.16  3093.00  3093.31
eigval :     3094.01  3094.41  3097.08  3097.09  3097.68  3097.70

   temp. (K)  partition function   enthalpy   heat capacity  entropy
                                   cal/mol     cal/K/mol   cal/K/mol   J/K/mol
 298.15  VIB  0.262E+34            38793.600    242.911    247.517
         ROT  0.550E+09              888.752      2.981     42.975
         INT  0.144E+43            39682.352    245.892    290.492
         TR   0.325E+29             1481.254      4.968     46.681
         TOT                       41163.6063   250.8601   337.1729  1410.7314

       T/K    H(0)-H(T)+PV         H(T)/Eh          T*S/Eh         G(T)/Eh
   ------------------------------------------------------------------------
    298.15    0.655984E-01    0.110333E+01    0.160202E+00    0.943130E+00
   ------------------------------------------------------------------------

         :::::::::::::::::::::::::::::::::::::::::::::::::::::
         ::                  THERMODYNAMIC                  ::
         :::::::::::::::::::::::::::::::::::::::::::::::::::::
         :: total free energy        -202.796340312423 Eh   ::
         ::.................................................::
         :: total energy             -203.739470806223 Eh   ::
         :: zero point energy           1.037733838419 Eh   ::
         :: G(RRHO) w/o ZPVE           -0.094603344619 Eh   ::
         :: G(RRHO) contrib.            0.943130493800 Eh   ::
         :::::::::::::::::::::::::::::::::::::::::::::::::::::

           -------------------------------------------------
          | TOTAL ENERGY             -203.739470806223 Eh   |
          | TOTAL ENTHALPY           -202.636138585638 Eh   |
          | TOTAL FREE ENERGY        -202.796340312423 Eh   |
          | GRADIENT NORM               0.000059365587 Eh/α |
          | HOMO-LUMO GAP               1.849780592590 eV   |
           -------------------------------------------------

 * finished run on 2025/09/12 at 05:53:53.494
