   * xtb version 6.7.1 (edcfbbe) compiled by 'albert@albert-system' on 2024-07-22

   ID    Z sym.   atoms
    1    6 C      1-4, 6-43, 45-82
    2    7 N      5, 44
    3    1 H      83-134

          program call               : xtb data2507/gas/TPA–DAP–TPA/TPA–DAP–TPA_gas_S0_crest.xyz --gfn 2 --ohess vtight --parallel 40 --molden --ceasefiles --namespace data2507/gas/TPA–DAP–TPA/TPA–DAP–TPA_gas_S0_finalOpt
          :  Hamiltonian                  GFN2-xTB          :
 * total energy  :  -203.7395488 Eh     change       -0.8206001E-08 Eh
 * total energy  :  -203.7395508 Eh     change       -0.1996487E-05 Eh
 * total energy  :  -203.7395538 Eh     change       -0.2953119E-05 Eh
 * total energy  :  -203.7395569 Eh     change       -0.3153654E-05 Eh
 * total energy  :  -203.7395586 Eh     change       -0.1667607E-05 Eh
 * total energy  :  -203.7395605 Eh     change       -0.1888148E-05 Eh
 * total energy  :  -203.7395639 Eh     change       -0.3465526E-05 Eh
 * total energy  :  -203.7395695 Eh     change       -0.5518493E-05 Eh
 * total energy  :  -203.7395749 Eh     change       -0.5409093E-05 Eh
 * total energy  :  -203.7395794 Eh     change       -0.4562549E-05 Eh
 * total energy  :  -203.7396193 Eh     change       -0.4050293E-06 Eh
 * total energy  :  -203.7396197 Eh     change       -0.3217765E-06 Eh
 * total energy  :  -203.7396198 Eh     change       -0.1794317E-06 Eh
 * total energy  :  -203.7396200 Eh     change       -0.1751072E-06 Eh
 * total energy  :  -203.7396202 Eh     change       -0.2315405E-06 Eh
 * total energy  :  -203.7396204 Eh     change       -0.1934040E-06 Eh
 * total energy  :  -203.7396206 Eh     change       -0.1827101E-06 Eh
 * total energy  :  -203.7396207 Eh     change       -0.1281412E-06 Eh
 * total energy  :  -203.7396208 Eh     change       -0.8274330E-07 Eh
   *** GEOMETRY OPTIMIZATION CONVERGED AFTER 63 ITERATIONS ***

 final structure:
================
134
 xtb: 6.7.1 (edcfbbe)
C          -14.33598333154781        3.06698259311632       -2.61613456816477
C          -14.85834635114678        1.78394453984430       -2.61851727512224
C          -14.29920925922513        0.79854867680235       -1.82862640704920
C          -13.20633798692196        1.08819114704978       -1.01184092185304
N          -12.63885372623532        0.09510424046012       -0.20605306538913
C          -13.45428459500606       -0.86203849636511        0.40790353794230
C          -14.71113478535109       -0.51112618820717        0.90029124648799
C          -15.51280246188850       -1.46108607026170        1.50240640808035
C          -15.07560330000241       -2.76912744711301        1.63244994133808
C          -13.82639177751466       -3.12213815199441        1.14901327674054
C          -13.02101028894935       -2.18155365682034        0.53739787222879
C          -11.25427027853322        0.05900631401703       -0.01226505960547
C          -10.72040501283690       -0.29954337068875        1.22576897091181
C           -9.35421203581656       -0.34323495416610        1.41089290317576
C           -8.48157556632366       -0.01750204475595        0.37581600996439
C           -7.02040675889822       -0.06047268325039        0.58232187544696
C           -6.38298184991329       -1.29060337942211        0.80287029117960
C           -7.09649380745154       -2.51795511573345        0.79297390478355
C           -6.46403057771178       -3.70463310263814        1.00187428025754
C           -5.07278552317846       -3.74167941574328        1.22350917786146
C           -4.34830606119133       -2.59025076139282        1.22332120555635
C           -4.97026477250188       -1.33101048623860        1.01621353657933
C           -4.22791927635622       -0.14347501273469        0.99504095307968
C           -2.76988043090745       -0.18490729880974        1.24520397735927
C           -2.30960837432104       -0.30729984649001        2.55133220395913
C           -0.95885715769645       -0.33632956033095        2.83326510697797
C           -0.01476166586697       -0.24450210128300        1.80948973462832
C            1.38709087639081       -0.27021769347069        2.06400459015232
C            2.28669292425382       -0.17915666602375        1.05813746686490
C            1.86614196123782       -0.05277935379593       -0.29914742142400
C            2.78497866130251        0.04554393150886       -1.35564001565542
C            4.24230522432131        0.04091346110964       -1.09560205008783
C            4.88220023029630        1.22122480430618       -0.69588152165339
C            4.16161775888339        2.43168739476377       -0.52035234578060
C            4.79262278101519        3.57860548454447       -0.15024586758033
C            6.18717254349491        3.58731120772532        0.05276174156066
C            6.91331271652775        2.44727098297232       -0.10537524741514
C            6.29318930567822        1.22284362591037       -0.46834127874122
C            7.02795360201839        0.03896342042756       -0.63329545027425
C            8.48365890100269        0.03656514244985       -0.38824373422338
C            9.38144704720820       -0.16892570066171       -1.43259632921691
C           10.74232043092360       -0.16900803874126       -1.20699059321166
C           11.24494936328419        0.02326326816596        0.08012052920273
N           12.62376217465563        0.01344506520568        0.31410276216470
C           13.44453849885954       -0.87455648763512       -0.38986616114551
C           14.72056825209536       -0.48721461385029       -0.79851486168445
C           15.52776514616835       -1.36948070756949       -1.48963233179662
C           15.07742381624582       -2.64400824944309       -1.79264215921108
C           13.80918066076943       -3.03235719060520       -1.39315544540100
C           12.99781605807716       -2.16048367104147       -0.69391414322491
C           13.17934187175402        0.88921248468555        1.25321726657756
C           14.24297304415931        0.48251245553437        2.05860641420207
C           14.79027475234201        1.35300074888562        2.98071964504549
C           14.28468893281681        2.63486884624087        3.12301929809205
C           13.22518890608989        3.04234624146710        2.32912112749995
C           12.67673143536815        2.18227712708812        1.39802711206246
C           10.34809611866998        0.22434956047211        1.12954470520732
C            8.98902423516457        0.23717797217797        0.89371568620604
C            6.38407925490195       -1.14402266237679       -1.02631991711413
C            7.08577385015141       -2.37011081061061       -1.16752386902845
C            6.44647294854934       -3.51082955120861       -1.54432587408182
C            5.05958021175440       -3.50188637339030       -1.79455235692496
C            4.34563144830813       -2.35272160431479       -1.65234505594087
C            4.97496034411597       -1.14028621091293       -1.26593903446517
C            2.32576365072232        0.15108090549403       -2.66327085867518
C            0.97481705648961        0.16874881671256       -2.94640396292168
C            0.03035296993525        0.07967033082020       -1.92273338786029
C           -1.37157820952301        0.09325134889147       -2.17823067894075
C           -2.27129358148254        0.00719433367748       -1.17198326102948
C           -1.85128937217333       -0.09888236870376        0.18731192364070
C           -0.46326169249113       -0.12577357461545        0.47105808575058
C            0.47825978309969       -0.03312528249491       -0.58359130737806
C           -4.86134743721836        1.08481191559416        0.76381796956368
C           -4.13224107944303        2.30273925288112        0.74240916999806
C           -4.75677805514397        3.49333587962488        0.53491238773688
C           -6.15326010077211        3.53967879457710        0.35167068256625
C           -6.88815065701114        2.39446615452454        0.36886750516915
C           -6.27532962605105        1.12814017984862        0.55973489239681
C           -9.01770400209676        0.34791346381151       -0.85616145040068
C          -10.38272919700871        0.37977631198436       -1.05323753957358
C          -12.68696423244410        2.38273766196675       -1.01033438885104
C          -13.24763762368346        3.35891632947293       -1.81045444500486
H          -14.77383966261228        3.83347857520927       -3.23732504006419
H          -15.70347341599162        1.54534357731526       -3.24748071990231
H          -14.70243597022443       -0.20355624670764       -1.84030698946542
H          -15.05060971367001        0.51037992642614        0.80961753470150
H          -16.48317688759126       -1.17513169251941        1.88103700068138
H          -15.70368432533847       -3.50774409164110        2.10686554907476
H          -13.47903565053636       -4.14084359241313        1.24076853870255
H          -12.05192123806480       -2.46238818980191        0.15141719542762
H          -11.38604983560204       -0.54066412830386        2.04161383100812
H           -8.95188748707887       -0.61606118767747        2.37591316290243
H           -8.15993546117084       -2.49420505503016        0.60702038126838
H           -7.02229771594961       -4.62944356667401        0.99115637724612
H           -4.58707370464316       -4.69330542492460        1.38264823449535
H           -3.27917118950030       -2.61608520178435        1.37549853094960
H           -3.03108114669376       -0.37569980667434        3.35342686884302
H           -0.62169483008416       -0.42915477747933        3.85579315035406
H            1.71544457545541       -0.36633192159973        3.08939090574686
H            3.34722690459067       -0.20209432036698        1.26289237549818
H            3.09496871865264        2.42415278315842       -0.69064915012968
H            4.23252109605181        4.49280226005050       -0.01870131489911
H            6.67516071980245        4.51054563076560        0.32947514809449
H            7.98349727770223        2.46019663237129        0.03806768191466
H            9.00365446885815       -0.31205221198501       -2.43477522546737
H           11.42814228975656       -0.31580712354515       -2.02854193341092
H           15.07063272526104        0.50945487664726       -0.57258735476861
H           16.51313911914718       -1.05575316741929       -1.80167035835918
H           15.71008763928755       -3.32939837861365       -2.33585649935819
H           13.45132369232934       -4.02602799317074       -1.61986171896904
H           12.01360467779660       -2.47010587151408       -0.37384038619715
H           14.63273884415301       -0.51984916849208        1.95713016237581
H           15.61261049016005        1.02431142522304        3.59918078305290
H           14.71318221793770        3.31109990167738        3.84704824691115
H           12.82767484780051        4.04177121705226        2.42899634902084
H           11.85789328897953        2.50667913673929        0.77251855333108
H           10.72593764653000        0.36611790460363        2.13154007065146
H            8.30343124497104        0.38562244730180        1.71562167801743
H            8.14568122661046       -2.38405315760337       -0.96159188267218
H            6.99602656166342       -4.43518956017776       -1.64734034068128
H            4.56879747842209       -4.41775553852706       -2.08973787475150
H            3.27960377265684       -2.34467249708728       -1.82692413807762
H            3.04744655936071        0.22330494754766       -3.46482290081515
H            0.63794868324456        0.25349741937503       -3.96973823398058
H           -1.69998453233010        0.17305905038290       -3.20500308363772
H           -3.33169854502419        0.01543083700881       -1.37841545617190
H           -3.06401631969207        2.26562784146472        0.89777340530249
H           -4.18964413805150        4.41250669679461        0.51894924896856
H           -6.63564382896890        4.49500126968025        0.20429591890370
H           -7.95980690749935        2.43434509146520        0.24247880087538
H           -8.35219138868731        0.59092634815148       -1.67203312607023
H          -10.78495732677204        0.65039419457714       -2.01855744550128
H          -11.84543979885878        2.61641903970806       -0.37455287250742
H          -12.83672614880834        4.35783205086808       -1.79768259752784

          :  Hamiltonian                  GFN2-xTB          :
         :: gradient norm              0.000028637085 Eh/a0 ::
         :: HOMO-LUMO gap              1.862227387203 eV    ::
         :: SCC energy              -207.700856089575 Eh    ::
         :: -> dispersion             -0.205251819543 Eh    ::
         :: repulsion energy           3.961235255542 Eh    ::

    * Orbital Energies and Occupations

         #    Occupation            Energy/Eh            Energy/eV
      -------------------------------------------------------------
         1        2.0000           -0.6640498             -18.0697
       ...           ...                  ...                  ...
       179        2.0000           -0.4028342             -10.9617
       180        2.0000           -0.4005919             -10.9007
       181        2.0000           -0.3999698             -10.8837
       182        2.0000           -0.3992118             -10.8631
       183        2.0000           -0.3967204             -10.7953
       184        2.0000           -0.3966968             -10.7947
       185        2.0000           -0.3948695             -10.7449
       186        2.0000           -0.3894613             -10.5978
       187        2.0000           -0.3622832              -9.8582
       188        2.0000           -0.3575157              -9.7285
       189        2.0000           -0.3565428              -9.7020
       190        2.0000           -0.3469995              -9.4423
       191        2.0000           -0.3469265              -9.4404 (HOMO)
       192                         -0.2784909              -7.5781 (LUMO)
       193                         -0.2770783              -7.5397
       194                         -0.2725743              -7.4171
       195                         -0.2404596              -6.5432
       196                         -0.2301011              -6.2614
       197                         -0.2300903              -6.2611
       198                         -0.2295576              -6.2466
       199                         -0.2295531              -6.2465
       200                         -0.2286707              -6.2224
       201                         -0.2285858              -6.2201
       202                         -0.2267184              -6.1693
       ...                                ...                  ...
       380                          0.7330144              19.9463
      -------------------------------------------------------------
                  HL-Gap            0.0684356 Eh            1.8622 eV

     #   Z          covCN         q      C6AA      α(0)
     1   6 C        2.919    -0.039    28.960     8.825
     2   6 C        2.920    -0.029    28.731     8.790
     3   6 C        2.922    -0.048    29.186     8.859
     4   6 C        2.924     0.065    26.539     8.448
     5   7 N        2.752    -0.076    22.722     7.080
     6   6 C        2.924     0.065    26.539     8.448
     7   6 C        2.922    -0.048    29.185     8.859
     8   6 C        2.920    -0.029    28.731     8.790
     9   6 C        2.919    -0.039    28.959     8.825
    10   6 C        2.919    -0.029    28.732     8.790
    11   6 C        2.922    -0.048    29.180     8.859
    12   6 C        2.924     0.063    26.587     8.456
    13   6 C        2.921    -0.049    29.213     8.863
    14   6 C        2.924    -0.033    28.813     8.803
    15   6 C        2.976     0.007    27.862     8.658
    16   6 C        2.976    -0.006    28.169     8.706
    17   6 C        2.984     0.006    27.892     8.663
    18   6 C        2.917    -0.035    28.861     8.810
    19   6 C        2.915    -0.030    28.758     8.794
    20   6 C        2.914    -0.030    28.753     8.793
    21   6 C        2.918    -0.034    28.838     8.806
    22   6 C        2.985     0.006    27.879     8.661
    23   6 C        2.979    -0.004    28.125     8.699
    24   6 C        2.977     0.008    27.839     8.655
    25   6 C        2.919    -0.034    28.841     8.807
    26   6 C        2.919    -0.038    28.951     8.823
    27   6 C        2.982     0.009    27.815     8.651
    28   6 C        2.913    -0.036    28.905     8.816
    29   6 C        2.913    -0.034    28.838     8.806
    30   6 C        2.985     0.007    27.862     8.658
    31   6 C        2.977     0.008    27.837     8.654
    32   6 C        2.979    -0.004    28.124     8.699
    33   6 C        2.985     0.006    27.871     8.660
    34   6 C        2.918    -0.033    28.827     8.805
    35   6 C        2.914    -0.030    28.752     8.793
    36   6 C        2.915    -0.030    28.758     8.794
    37   6 C        2.917    -0.035    28.862     8.810
    38   6 C        2.983     0.005    27.895     8.664
    39   6 C        2.976    -0.006    28.170     8.706
    40   6 C        2.976     0.007    27.862     8.658
    41   6 C        2.923    -0.033    28.813     8.803
    42   6 C        2.921    -0.049    29.213     8.863
    43   6 C        2.924     0.063    26.587     8.456
    44   7 N        2.752    -0.076    22.722     7.080
    45   6 C        2.924     0.065    26.539     8.448
    46   6 C        2.922    -0.048    29.185     8.859
    47   6 C        2.920    -0.029    28.731     8.790
    48   6 C        2.919    -0.039    28.959     8.825
    49   6 C        2.919    -0.029    28.732     8.790
    50   6 C        2.922    -0.048    29.181     8.859
    51   6 C        2.924     0.065    26.539     8.448
    52   6 C        2.922    -0.048    29.186     8.859
    53   6 C        2.920    -0.029    28.731     8.790
    54   6 C        2.919    -0.039    28.960     8.825
    55   6 C        2.920    -0.029    28.732     8.790
    56   6 C        2.922    -0.048    29.182     8.859
    57   6 C        2.921    -0.049    29.214     8.864
    58   6 C        2.924    -0.033    28.813     8.803
    59   6 C        2.983     0.006    27.892     8.663
    60   6 C        2.917    -0.035    28.862     8.810
    61   6 C        2.915    -0.030    28.758     8.794
    62   6 C        2.914    -0.030    28.753     8.793
    63   6 C        2.918    -0.034    28.836     8.806
    64   6 C        2.985     0.006    27.878     8.661
    65   6 C        2.919    -0.034    28.843     8.807
    66   6 C        2.919    -0.038    28.951     8.823
    67   6 C        2.982     0.009    27.816     8.651
    68   6 C        2.913    -0.036    28.906     8.816
    69   6 C        2.913    -0.034    28.838     8.806
    70   6 C        2.984     0.007    27.861     8.658
    71   6 C        2.996     0.002    27.972     8.676
    72   6 C        2.996     0.002    27.971     8.676
    73   6 C        2.984     0.006    27.870     8.660
    74   6 C        2.918    -0.033    28.828     8.805
    75   6 C        2.914    -0.030    28.752     8.793
    76   6 C        2.915    -0.030    28.758     8.794
    77   6 C        2.917    -0.035    28.864     8.810
    78   6 C        2.983     0.005    27.895     8.664
    79   6 C        2.923    -0.033    28.814     8.803
    80   6 C        2.921    -0.049    29.215     8.864
    81   6 C        2.922    -0.048    29.182     8.859
    82   6 C        2.920    -0.029    28.733     8.790
    83   1 H        0.926     0.030     2.590     2.517
    84   1 H        0.926     0.031     2.572     2.508
    85   1 H        0.926     0.031     2.567     2.506
    86   1 H        0.926     0.031     2.567     2.505
    87   1 H        0.926     0.031     2.571     2.507
    88   1 H        0.926     0.030     2.589     2.516
    89   1 H        0.926     0.031     2.571     2.508
    90   1 H        0.926     0.030     2.581     2.512
    91   1 H        0.926     0.032     2.558     2.501
    92   1 H        0.926     0.032     2.555     2.500
    93   1 H        0.926     0.031     2.579     2.511
    94   1 H        0.926     0.028     2.621     2.532
    95   1 H        0.926     0.028     2.617     2.530
    96   1 H        0.926     0.030     2.587     2.515
    97   1 H        0.926     0.029     2.607     2.525
    98   1 H        0.926     0.030     2.581     2.512
    99   1 H        0.926     0.029     2.598     2.521
   100   1 H        0.926     0.030     2.591     2.517
   101   1 H        0.926     0.029     2.594     2.519
   102   1 H        0.926     0.028     2.618     2.530
   103   1 H        0.926     0.028     2.621     2.532
   104   1 H        0.926     0.031     2.577     2.510
   105   1 H        0.926     0.032     2.553     2.499
   106   1 H        0.926     0.032     2.558     2.501
   107   1 H        0.926     0.031     2.567     2.505
   108   1 H        0.926     0.031     2.571     2.508
   109   1 H        0.926     0.030     2.590     2.516
   110   1 H        0.926     0.031     2.572     2.508
   111   1 H        0.926     0.030     2.582     2.513
   112   1 H        0.926     0.031     2.567     2.506
   113   1 H        0.926     0.031     2.572     2.508
   114   1 H        0.926     0.030     2.590     2.517
   115   1 H        0.926     0.031     2.572     2.508
   116   1 H        0.926     0.030     2.581     2.512
   117   1 H        0.926     0.032     2.557     2.501
   118   1 H        0.926     0.032     2.557     2.501
   119   1 H        0.926     0.031     2.577     2.510
   120   1 H        0.926     0.028     2.621     2.532
   121   1 H        0.926     0.028     2.617     2.530
   122   1 H        0.926     0.030     2.589     2.516
   123   1 H        0.926     0.028     2.608     2.526
   124   1 H        0.926     0.030     2.581     2.512
   125   1 H        0.926     0.029     2.598     2.521
   126   1 H        0.926     0.030     2.588     2.516
   127   1 H        0.926     0.030     2.592     2.518
   128   1 H        0.926     0.028     2.619     2.531
   129   1 H        0.926     0.028     2.621     2.532
   130   1 H        0.926     0.031     2.577     2.510
   131   1 H        0.926     0.032     2.557     2.501
   132   1 H        0.926     0.032     2.557     2.501
   133   1 H        0.926     0.030     2.581     2.512
   134   1 H        0.926     0.031     2.572     2.508

molecular dipole:
                 x           y           z       tot (Debye)
 q only:       -0.000       0.000       0.003
   full:       -0.001       0.000       0.006       0.016

 projected vibrational frequencies (cm⁻¹)
eigval :       -0.00    -0.00    -0.00     0.00     0.00     0.00
eigval :        2.82     4.68     4.81     7.16     9.78    13.85
eigval :       14.38    17.01    19.70    32.03    33.64    39.58
eigval :       42.61    46.55    48.58    51.34    57.30    58.33
eigval :       67.29    70.22    72.04    72.18    78.28    78.59
eigval :       78.78    97.34    97.64   107.70   108.43   111.55
eigval :      112.70   139.23   144.03   149.48   156.32   174.17
eigval :      182.73   184.13   186.62   188.61   199.35   204.50
eigval :      212.17   212.86   232.83   232.96   235.65   238.14
eigval :      239.40   269.97   287.63   291.85   315.79   317.16
eigval :      320.10   320.29   340.38   349.00   351.89   360.94
eigval :      375.01   378.11   378.19   378.40   378.92   386.55
eigval :      387.26   387.38   390.48   390.85   396.06   398.54
eigval :      405.58   406.81   410.83   411.57   414.24   417.34
eigval :      430.12   446.00   446.48   458.70   458.79   461.84
eigval :      475.08   476.96   485.52   485.95   488.71   488.92
eigval :      495.09   499.60   503.09   508.72   516.93   528.97
eigval :      556.44   563.31   579.29   580.12   582.88   584.67
eigval :      585.00   585.60   587.89   588.97   592.78   596.35
eigval :      596.71   605.25   605.51   607.05   615.25   629.03
eigval :      636.54   647.91   652.50   652.99   653.43   653.77
eigval :      659.74   659.88   665.19   666.58   679.19   683.12
eigval :      688.06   692.00   692.73   692.91   695.60   701.15
eigval :      725.02   735.12   737.99   740.83   744.56   756.65
eigval :      756.67   757.97   760.72   760.97   774.10   774.11
eigval :      775.36   775.40   799.21   805.43   815.58   815.88
eigval :      816.58   822.17   843.99   850.71   871.88   871.89
eigval :      873.32   873.36   874.36   874.39   875.44   875.46
eigval :      877.87   877.93   890.26   890.67   891.32   891.36
eigval :      897.12   897.55   897.78   897.84   910.25   910.26
eigval :      913.23   914.34   915.50   915.60   916.24   917.39
eigval :      917.46   920.28   920.39   920.97   923.21   926.48
eigval :      926.51   927.33   927.35   928.05   928.09   928.32
eigval :      928.33   928.61   928.63   929.89   929.90   931.64
eigval :      931.82   932.57   932.81   943.21   943.76   987.28
eigval :      987.70   995.93  1005.04  1005.04  1017.65  1026.85
eigval :     1031.91  1080.77  1080.92  1081.47  1081.82  1083.27
eigval :     1083.28  1084.32  1084.32  1109.66  1110.18  1121.99
eigval :     1121.99  1124.34  1124.36  1135.27  1135.32  1139.07
eigval :     1139.09  1154.26  1156.96  1164.93  1180.54  1180.71
eigval :     1180.75  1180.78  1181.00  1181.19  1181.56  1183.82
eigval :     1184.85  1187.64  1187.71  1194.04  1194.09  1195.79
eigval :     1195.85  1195.86  1200.85  1208.26  1208.38  1221.53
eigval :     1223.52  1227.56  1227.79  1228.17  1228.48  1247.80
eigval :     1256.42  1259.66  1262.59  1262.93  1268.06  1270.95
eigval :     1271.02  1278.72  1278.73  1282.03  1282.06  1304.05
eigval :     1309.46  1310.82  1310.88  1317.39  1319.46  1321.76
eigval :     1321.84  1324.02  1324.03  1327.58  1327.66  1332.52
eigval :     1333.01  1350.41  1350.45  1355.14  1371.38  1379.58
eigval :     1382.68  1385.52  1385.94  1388.12  1407.97  1407.99
eigval :     1409.57  1417.04  1420.24  1424.61  1429.73  1429.75
eigval :     1436.44  1436.46  1443.12  1443.26  1446.78  1447.01
eigval :     1452.08  1472.63  1472.66  1476.96  1477.33  1477.35
eigval :     1477.74  1495.99  1496.51  1500.07  1503.77  1526.68
eigval :     1526.76  1529.05  1530.03  1533.62  1542.85  1543.01
eigval :     1555.79  1555.81  1563.86  1565.10  1577.22  1577.23
eigval :     1581.26  1581.27  1595.46  1595.48  1595.49  1595.64
eigval :     1601.88  1601.88  1604.98  1607.34  1608.88  1608.91
eigval :     1623.06  1623.10  3067.87  3067.93  3070.88  3070.95
eigval :     3072.66  3072.69  3072.81  3072.93  3075.19  3075.20
eigval :     3075.44  3075.45  3075.81  3075.82  3076.43  3076.44
eigval :     3076.83  3076.84  3077.61  3077.64  3078.77  3078.92
eigval :     3079.13  3079.52  3081.61  3082.05  3085.44  3085.56
eigval :     3085.58  3086.30  3086.33  3086.66  3087.99  3088.01
eigval :     3088.38  3088.57  3089.07  3089.26  3089.28  3089.33
eigval :     3089.37  3089.67  3090.02  3090.10  3093.18  3093.30
eigval :     3094.18  3094.32  3097.09  3097.10  3097.66  3097.72

   temp. (K)  partition function   enthalpy   heat capacity  entropy
                                   cal/mol     cal/K/mol   cal/K/mol   J/K/mol
 298.15  VIB  0.386E+34            38796.941    242.882    247.902
         ROT  0.550E+09              888.752      2.981     42.977
         INT  0.213E+43            39685.693    245.863    290.879
         TR   0.325E+29             1481.254      4.968     46.681
         TOT                       41166.9471   250.8314   337.5602  1412.3517

       T/K    H(0)-H(T)+PV         H(T)/Eh          T*S/Eh         G(T)/Eh
   ------------------------------------------------------------------------
    298.15    0.656037E-01    0.110333E+01    0.160386E+00    0.942944E+00
   ------------------------------------------------------------------------

         :::::::::::::::::::::::::::::::::::::::::::::::::::::
         ::                  THERMODYNAMIC                  ::
         :::::::::::::::::::::::::::::::::::::::::::::::::::::
         :: total free energy        -202.796676419347 Eh   ::
         ::.................................................::
         :: total energy             -203.739620834012 Eh   ::
         :: zero point energy           1.037726431332 Eh   ::
         :: G(RRHO) w/o ZPVE           -0.094782016667 Eh   ::
         :: G(RRHO) contrib.            0.942944414665 Eh   ::
         :::::::::::::::::::::::::::::::::::::::::::::::::::::

           -------------------------------------------------
          | TOTAL ENERGY             -203.739620834012 Eh   |
          | TOTAL ENTHALPY           -202.636290696693 Eh   |
          | TOTAL FREE ENERGY        -202.796676419347 Eh   |
          | GRADIENT NORM               0.000028592037 Eh/α |
          | HOMO-LUMO GAP               1.862226213034 eV   |
           -------------------------------------------------

 * finished run on 2025/09/12 at 06:20:19.856
