   * xtb version 6.7.1 (edcfbbe) compiled by 'albert@albert-system' on 2024-07-22

   ID    Z sym.   atoms
    1    6 C      1-4, 6-43, 45-82
    2    7 N      5, 44
    3    1 H      83-134

          program call               : xtb data2507/gas/TPA–DAP–TPA/TPA–DAP–TPA_gas_S0_finalOpt.xtbopt.xyz --gfn 2 --spinpol --tblite --uhf 2 --ohess vtight --parallel 40 --molden --ceasefiles --namespace data2507/gas/TPA–DAP–TPA/TPA–DAP–TPA_gas_T1_preOpt
 * total energy  :  -203.6693674 Eh     change       -0.8085294E-08 Eh
 * total energy  :  -203.6735792 Eh     change       -0.4211851E-02 Eh
 * total energy  :  -203.6753520 Eh     change       -0.1772740E-02 Eh
 * total energy  :  -203.6762055 Eh     change       -0.8535460E-03 Eh
 * total energy  :  -203.6763971 Eh     change       -0.1915948E-03 Eh
 * total energy  :  -203.6767604 Eh     change       -0.3632689E-03 Eh
 * total energy  :  -203.6769444 Eh     change       -0.1839959E-03 Eh
 * total energy  :  -203.6772040 Eh     change       -0.2596328E-03 Eh
 * total energy  :  -203.6774594 Eh     change       -0.2553505E-03 Eh
 * total energy  :  -203.6776153 Eh     change       -0.1559631E-03 Eh
 * total energy  :  -203.6788197 Eh     change       -0.1673266E-05 Eh
 * total energy  :  -203.6788215 Eh     change       -0.1811397E-05 Eh
 * total energy  :  -203.6788234 Eh     change       -0.1945069E-05 Eh
 * total energy  :  -203.6788250 Eh     change       -0.1559948E-05 Eh
 * total energy  :  -203.6788254 Eh     change       -0.4023000E-06 Eh
 * total energy  :  -203.6788262 Eh     change       -0.8372693E-06 Eh
 * total energy  :  -203.6788264 Eh     change       -0.1759713E-06 Eh
 * total energy  :  -203.6788268 Eh     change       -0.4105971E-06 Eh
 * total energy  :  -203.6788269 Eh     change       -0.8789587E-07 Eh
   *** GEOMETRY OPTIMIZATION CONVERGED AFTER 72 ITERATIONS ***

 final structure:
================
134
 xtb: 6.7.1 (edcfbbe)
C          -14.24286476968152        3.11594547244070       -2.70746491857030
C          -14.80285760556301        1.84901136003305       -2.67948921977167
C          -14.27869714886959        0.87006214140057       -1.85827020391985
C          -13.18286570477374        1.15117334997760       -1.04233534530147
N          -12.65087281427778        0.16387986128945       -0.20488526346181
C          -13.50574796409973       -0.74160276566493        0.43426099781013
C          -14.74448599086695       -0.32181308460349        0.91894749579237
C          -15.58649361893076       -1.22010933323366        1.54473006597920
C          -15.20801123935725       -2.54329590603769        1.70426280415020
C          -13.97741078602116       -2.96450750977719        1.22718468070801
C          -13.13128441865982       -2.07591758139184        0.59328105915724
C          -11.27265647414327        0.08015226629578       -0.01017159482075
C          -10.74885628965624       -0.29904860908126        1.22903725573500
C           -9.38888134677145       -0.39458634556382        1.41427197901553
C           -8.49157671814636       -0.09682053723854        0.38113803354648
C           -7.05183476116278       -0.19358782277150        0.57803359032554
C           -6.47443712316703       -1.41771527597826        1.03667846194391
C           -7.25006028565816       -2.56872581085567        1.22189936007154
C           -6.68496241799537       -3.77287487460464        1.61719666739299
C           -5.31735813326966       -3.86814617690436        1.78254671999306
C           -4.51705914267688       -2.75681848980678        1.55564831309778
C           -5.06361966768466       -1.51484355962009        1.21460924019313
C           -4.22515348058970       -0.39013816350265        0.92681558974362
C           -2.79418010250090       -0.49056559609127        1.14178502235661
C           -2.32193933585827       -0.83592064545462        2.41726910781157
C           -0.98209831206489       -0.86012284885538        2.70885695302314
C           -0.02322674147849       -0.57824117509043        1.72262301854815
C            1.36664955519675       -0.59085788417749        1.99709412185214
C            2.28095207903146       -0.33526186382600        1.02532636900659
C            1.87343616789109       -0.05519903441111       -0.30751784588046
C            2.80449951830887        0.19462664866851       -1.33183509117056
C            4.25876058353106        0.17362294614818       -1.05438672715084
C            4.90765654019277        1.34281716395793       -0.63921915571981
C            4.19406584032118        2.55435352296988       -0.44445490455520
C            4.83296575115930        3.69266867968292       -0.06168681022705
C            6.22840245024648        3.69011235254195        0.13639126747297
C            6.94702925146894        2.54710881300493       -0.03474039556660
C            6.31828561620876        1.33059163120569       -0.40929345139768
C            7.04274379141408        0.14171574636567       -0.58309608112404
C            8.49965660830826        0.12507389398423       -0.34593093925197
C            9.38754787008122       -0.08369213729951       -1.39822380308605
C           10.75003054761633       -0.09743927050303       -1.18342455025382
C           11.26419113154963        0.08377000242737        0.10068440756186
N           12.64500296038413        0.05996897871013        0.32357477111432
C           13.45119219045823       -0.83286602876642       -0.39081221562928
C           14.72759555550770       -0.45629335036794       -0.80851646226829
C           15.52026209330168       -1.34338973926903       -1.51016041666402
C           15.05488243305826       -2.61210263711408       -1.81490672536643
C           13.78615128771168       -2.98967134502762       -1.40664984176352
C           12.98924899227978       -2.11297390092339       -0.69691196586281
C           13.21635946558241        0.92731220610262        1.26072977895741
C           14.28457152615582        0.50895766401720        2.05413123634499
C           14.84730970765462        1.37111206329386        2.97473846528031
C           14.35290159677057        2.65613816611458        3.12757029595160
C           13.28898044783214        3.07520540097089        2.34567425945987
C           12.72508091826263        2.22356596267201        1.41608957523339
C           10.37752220364833        0.28773605466058        1.15809861390741
C            9.01670486180445        0.31444110623046        0.93301520047046
C            6.38810851308513       -1.03331080791077       -0.98265199086713
C            7.07718639584624       -2.26604005549621       -1.12777471689232
C            6.42751795262227       -3.39708430217783       -1.51615247482532
C            5.04301171064386       -3.37077715640512       -1.77827033794361
C            4.34080686418626       -2.21480021115053       -1.63285757518685
C            4.98035953790058       -1.01380056364024       -1.22836320348194
C            2.36120176532575        0.45679100522426       -2.62255441813505
C            1.01530155672750        0.47013305625270       -2.92512945309030
C            0.05804970546891        0.22365405958112       -1.93466399451443
C           -1.33388785014639        0.19971129018165       -2.21425887123926
C           -2.24636318722138       -0.02788576814305       -1.23517425401339
C           -1.85033281164654       -0.23992522983376        0.11245450190506
C           -0.46524215203587       -0.28123869043396        0.40908442351109
C            0.48845186616950       -0.03427657107032       -0.61005626174255
C           -4.80944232075125        0.84263440106257        0.48671584330873
C           -4.03711355680095        1.99914868466608        0.33456416153862
C           -4.60369833194758        3.21014772371935       -0.03449562329421
C           -5.97050942243533        3.30184494033253       -0.21397549732952
C           -6.76790776307520        2.18422269103386       -0.01775144670486
C           -6.21991740440707        0.93832143017240        0.31242428448457
C           -9.02635979426092        0.29632284077327       -0.85216134725342
C          -10.38557613597359        0.37341605420697       -1.04991566242458
C          -12.62540972912093        2.42957266541424       -1.07090661092362
C          -13.15241387816329        3.39923609828105       -1.90119893405342
H          -14.65364098949631        3.87727570677617       -3.35286538796896
H          -15.64983601024091        1.61803603486665       -3.30852974354536
H          -14.71004113437526       -0.12021379358011       -1.84564946816759
H          -15.03686121767069        0.71179211266271        0.80476987148871
H          -16.54192699047946       -0.88211056584358        1.91799609027475
H          -15.86772951981374       -3.24143914409129        2.19648093973060
H          -13.67714114953289       -3.99563777833506        1.34144788758804
H          -12.17781498825294       -2.40901564513979        0.21025952323259
H          -11.42271539167768       -0.50466561177437        2.04809140237931
H           -9.00101346178005       -0.65974995938509        2.38699927924882
H           -8.31199758913829       -2.52737321845896        1.03482981241025
H           -7.31701361222143       -4.63527743202402        1.77009946815812
H           -4.86256183347300       -4.80603348910191        2.06485639453223
H           -3.44547246481170       -2.86162901192803        1.62860936893909
H           -3.04479412027904       -1.02335447332175        3.19897996065978
H           -0.64986335090534       -1.08250929271559        3.71300032844333
H            1.68666270931931       -0.81346037771113        3.00542272401089
H            3.33832781268064       -0.34739487256919        1.24668015419829
H            3.12635110201779        2.55211307611267       -0.60890947920627
H            4.27899890629138        4.60830031277436        0.08515683450074
H            6.72298160420671        4.60712588419475        0.42219218335545
H            8.01738266658444        2.55152805912247        0.10844086125219
H            9.00046719144770       -0.21885423731352       -2.39794387253325
H           11.42809460344264       -0.24640777936535       -2.01102533218956
H           15.08926373415236        0.53597964121537       -0.58152768164568
H           16.50601567452140       -1.03793055787977       -1.82915401344578
H           15.67620659310563       -3.30126978201502       -2.36637810951612
H           13.41656826714410       -3.97868946156359       -1.63482852663111
H           12.00468687466456       -2.41430482586374       -0.37013158558785
H           14.66550851850801       -0.49595633196008        1.94471695908924
H           15.67296258468588        1.03336535686668        3.58383990594439
H           14.79336716438975        3.32579500058635        3.85052418748984
H           12.90001389354735        4.07711626114837        2.45384209106042
H           11.90290554518024        2.55708603467870        0.79985134674708
H           10.76452370018129        0.42061414306415        2.15783893138691
H            8.33897897053252        0.46482311751751        1.76105178413941
H            8.13564833556749       -2.29324787012252       -0.91544224625540
H            6.96749213712181       -4.32690478456138       -1.62126774808877
H            4.54492763935685       -4.27851944788304       -2.08606660987413
H            3.27683149427084       -2.19161949521757       -1.81841372747029
H            3.09208019933221        0.64744156121757       -3.39599666273633
H            0.68842871802435        0.66867672540607       -3.93573626379898
H           -1.65401863323770        0.36087455182386       -3.23397539674643
H           -3.29962519653014       -0.05548656168603       -1.47194566092801
H           -2.97437048909959        1.95355231206654        0.51550851266866
H           -3.97394801074182        4.07802058868880       -0.16173241221195
H           -6.42587919758534        4.24285935613340       -0.48546718399593
H           -7.83907165847790        2.28490319432621       -0.10217758025741
H           -8.35590055156442        0.49807409869125       -1.67482771220990
H          -10.77721596874464        0.64803998626659       -2.01859448790581
H          -11.78329149042574        2.65591117695846       -0.43343973630482
H          -12.71355951050951        4.38601528959062       -1.91210666663381

 projected vibrational frequencies (cm⁻¹)
eigval :       -0.00    -0.00    -0.00     0.00     0.00     0.00
eigval :       -7.27     4.19     4.89     9.25    10.68    12.71
eigval :       15.42    19.70    27.96    31.08    33.49    40.63
eigval :       43.87    45.69    49.59    53.54    57.97    60.27
eigval :       68.66    70.37    72.14    73.63    78.10    78.44
eigval :       84.74    97.40    99.36   106.31   112.01   117.11
eigval :      124.70   140.09   141.17   154.90   160.89   175.44
eigval :      183.56   186.91   191.73   193.07   198.87   207.70
eigval :      212.33   224.25   232.89   233.19   236.84   244.01
eigval :      246.32   271.55   288.24   292.15   314.73   317.30
eigval :      319.69   320.12   338.12   347.21   350.06   356.62
eigval :      369.40   376.30   377.94   378.04   378.33   380.90
eigval :      384.09   387.19   389.02   391.90   392.23   398.34
eigval :      400.63   404.14   407.53   410.23   411.63   416.11
eigval :      423.69   438.39   444.88   456.00   458.47   468.56
eigval :      472.60   474.62   485.27   485.79   488.57   489.05
eigval :      495.08   497.06   503.76   509.03   516.18   526.47
eigval :      554.36   560.76   571.05   577.95   579.73   582.38
eigval :      584.72   585.18   587.39   588.34   590.75   592.57
eigval :      596.85   601.11   603.99   606.13   613.07   619.11
eigval :      631.37   643.69   645.62   648.67   651.77   653.83
eigval :      659.75   659.90   664.43   666.26   670.48   678.16
eigval :      685.43   687.21   690.81   692.19   696.48   699.11
eigval :      718.73   724.96   734.28   738.60   743.31   753.63
eigval :      755.10   756.54   757.02   760.53   760.81   763.85
eigval :      774.02   775.20   797.76   804.40   812.46   813.03
eigval :      816.00   818.77   840.39   843.77   852.15   855.36
eigval :      871.83   872.22   873.22   873.99   874.22   875.33
eigval :      875.78   877.84   889.66   890.58   891.26   892.55
eigval :      893.34   894.88   895.51   897.06   897.37   897.50
eigval :      908.05   908.76   910.07   910.16   910.29   912.52
eigval :      912.93   915.43   917.22   920.26   920.45   926.40
eigval :      926.83   927.26   927.93   928.11   928.24   928.52
eigval :      928.56   928.69   929.63   929.64   929.83   931.89
eigval :      932.61   936.87   941.66   943.13   946.67   986.63
eigval :      987.56   996.97  1004.79  1005.08  1018.25  1024.43
eigval :     1031.93  1080.33  1081.19  1082.82  1083.58  1083.81
eigval :     1084.47  1106.56  1107.68  1110.50  1115.48  1121.79
eigval :     1122.14  1122.43  1124.03  1124.51  1135.49  1139.09
eigval :     1141.18  1144.21  1155.07  1163.04  1180.29  1180.33
eigval :     1180.44  1180.62  1180.86  1181.83  1183.17  1183.53
eigval :     1184.52  1185.99  1187.34  1189.18  1193.46  1194.56
eigval :     1194.64  1195.66  1197.37  1200.34  1205.26  1208.34
eigval :     1218.45  1221.36  1225.51  1227.40  1230.49  1239.07
eigval :     1245.50  1256.92  1259.75  1262.73  1269.34  1270.82
eigval :     1277.59  1278.66  1279.71  1281.77  1282.00  1287.90
eigval :     1304.20  1308.51  1310.79  1311.26  1315.28  1317.64
eigval :     1317.91  1321.87  1322.55  1323.98  1324.57  1326.95
eigval :     1327.57  1329.31  1334.82  1344.42  1349.42  1350.14
eigval :     1362.19  1376.80  1379.72  1384.06  1385.46  1390.59
eigval :     1399.08  1407.97  1410.32  1415.73  1416.08  1420.39
eigval :     1422.82  1429.59  1435.35  1436.15  1442.18  1443.07
eigval :     1446.81  1457.56  1459.74  1467.74  1469.27  1472.30
eigval :     1472.73  1475.54  1476.95  1479.68  1491.44  1496.67
eigval :     1506.56  1509.02  1526.31  1528.22  1529.86  1531.17
eigval :     1533.72  1537.78  1541.74  1545.25  1553.57  1555.69
eigval :     1573.64  1575.36  1576.99  1578.35  1580.28  1581.03
eigval :     1587.34  1591.76  1594.91  1595.03  1596.90  1601.45
eigval :     1608.50  1622.83  3065.63  3067.80  3068.82  3070.67
eigval :     3071.90  3072.00  3074.10  3074.57  3075.12  3075.42
eigval :     3075.69  3076.24  3076.44  3076.71  3077.23  3077.32
eigval :     3077.45  3077.94  3078.21  3078.23  3078.51  3079.00
eigval :     3079.33  3080.98  3083.89  3084.21  3084.76  3085.53
eigval :     3086.28  3086.89  3087.34  3087.67  3087.74  3087.84
eigval :     3088.25  3088.98  3089.09  3089.16  3089.47  3089.71
eigval :     3090.20  3090.87  3091.91  3093.32  3095.61  3096.03
eigval :     3096.98  3097.58  3098.04  3098.73  3099.15  3100.74

   temp. (K)  partition function   enthalpy   heat capacity  entropy
                                   cal/mol     cal/K/mol   cal/K/mol   J/K/mol
 298.15  VIB  0.516E+33            38794.630    243.969    245.966
         ROT  0.553E+09              888.752      2.981     42.986
         INT  0.285E+42            39683.382    246.950    288.952
         TR   0.325E+29             1481.254      4.968     46.681
         TOT                       41164.6361   251.9178   335.6325  1404.2862

       T/K    H(0)-H(T)+PV         H(T)/Eh          T*S/Eh         G(T)/Eh
   ------------------------------------------------------------------------
    298.15    0.656000E-01    0.110078E+01    0.159470E+00    0.941307E+00
   ------------------------------------------------------------------------

         :::::::::::::::::::::::::::::::::::::::::::::::::::::
         ::                  THERMODYNAMIC                  ::
         :::::::::::::::::::::::::::::::::::::::::::::::::::::
         :: total free energy        -202.737520150069 Eh   ::
         ::.................................................::
         :: total energy             -203.678826944183 Eh   ::
         :: zero point energy           1.035176582215 Eh   ::
         :: G(RRHO) w/o ZPVE           -0.093869788100 Eh   ::
         :: G(RRHO) contrib.            0.941306794114 Eh   ::
         :::::::::::::::::::::::::::::::::::::::::::::::::::::

           -------------------------------------------------
          | TOTAL ENERGY             -203.678826944183 Eh   |
          | TOTAL ENTHALPY           -202.578050338688 Eh   |
          | TOTAL FREE ENERGY        -202.737520150069 Eh   |
          | GRADIENT NORM               0.000113049880 Eh/α |
           -------------------------------------------------

 * finished run on 2025/09/12 at 06:20:56.382
