   * xtb version 6.7.1 (edcfbbe) compiled by 'albert@albert-system' on 2024-07-22

   ID    Z sym.   atoms
    1    6 C      1-8, 10, 12-18, 21-24, 26-39
    2   16 S      9, 11
    3   15 P      19
    4    8 O      20
    5    7 N      25
    6    1 H      40-71

          program call               : xtb data2507/gas/3ai/3ai_gas_S0_crest.xyz --gfn 2 --ohess vtight --parallel 40 --molden --ceasefiles --namespace data2507/gas/3ai/3ai_gas_S0_finalOpt
          :  Hamiltonian                  GFN2-xTB          :
 * total energy  :  -105.2306256 Eh     change       -0.3125379E-08 Eh
 * total energy  :  -105.2306268 Eh     change       -0.1153448E-05 Eh
 * total energy  :  -105.2306284 Eh     change       -0.1616403E-05 Eh
 * total energy  :  -105.2306321 Eh     change       -0.3669996E-05 Eh
 * total energy  :  -105.2306350 Eh     change       -0.2950912E-05 Eh
 * total energy  :  -105.2306387 Eh     change       -0.3733792E-05 Eh
 * total energy  :  -105.2306446 Eh     change       -0.5816849E-05 Eh
 * total energy  :  -105.2306498 Eh     change       -0.5263786E-05 Eh
 * total energy  :  -105.2306529 Eh     change       -0.3069005E-05 Eh
 * total energy  :  -105.2306553 Eh     change       -0.2386204E-05 Eh
 * total energy  :  -105.2306876 Eh     change       -0.2699370E-06 Eh
 * total energy  :  -105.2306878 Eh     change       -0.2308366E-06 Eh
 * total energy  :  -105.2306880 Eh     change       -0.2015910E-06 Eh
 * total energy  :  -105.2306882 Eh     change       -0.2318869E-06 Eh
 * total energy  :  -105.2306885 Eh     change       -0.3018303E-06 Eh
 * total energy  :  -105.2306889 Eh     change       -0.3903476E-06 Eh
 * total energy  :  -105.2306893 Eh     change       -0.3870101E-06 Eh
 * total energy  :  -105.2306896 Eh     change       -0.2998564E-06 Eh
 * total energy  :  -105.2306896 Eh     change       -0.2408854E-08 Eh
   *** GEOMETRY OPTIMIZATION CONVERGED AFTER 44 ITERATIONS ***

 final structure:
================
71
 xtb: 6.7.1 (edcfbbe)
C           -8.48706993730050        3.07413622103985       -0.30957285715811
C           -7.24610237029735        2.51777864043879       -0.99573283638636
C           -6.19801097304432        3.60330576950358       -1.22492619139337
C           -4.96972364503229        3.08226271602150       -1.98584716007986
C           -4.24778880631601        2.02931511489618       -1.21829577242820
C           -3.43336302087183        2.18982310702861       -0.13460504225154
C           -2.96277975463486        0.96807576272226        0.37355369192236
C           -3.42185026457211       -0.12447539811920       -0.34289539150700
S           -4.44675629475473        0.34930226088909       -1.63754946201482
C           -2.96865831608634       -1.38827404120560        0.13457670461345
S           -3.15846923019234       -3.00130548102221       -0.42807052313720
C           -2.14464218714047       -3.59800371406467        0.85976151821284
C           -1.77926562867316       -5.03979783477057        0.90761551498126
C           -0.65517614718754       -5.35938956908994       -0.09093111912237
C            0.64487016256326       -4.63162667414172        0.24249767911649
C            1.74785198307645       -4.95854325662580       -0.75649123584914
C           -1.70861841087281       -2.59131297016922        1.67076057214879
C           -2.18300193154071       -1.33069772213624        1.27176838463846
P           -1.86194599238306        0.40672596897843        1.70837214100487
O           -2.10667827529827        0.87489591458000        3.07382491300853
C           -0.16013000116309        0.63863195716714        1.11894607568481
C            0.78212411725294        1.11700833017325        2.01746131551568
C            2.11001556084376        1.20748170597749        1.64851560049707
C            2.50235446829822        0.82088963096113        0.36822483129115
N            3.84658775233384        0.87534499882561       -0.00738771329947
C            4.55225116178749       -0.14790294600592       -0.61473662170511
C            4.14309569426190       -1.43285828131888       -0.94104117320608
C            5.07011538092246       -2.27734081386795       -1.52202086565577
C            6.37794925213756       -1.86488095041339       -1.76553117015521
C            6.79849558860860       -0.59708264448441       -1.41660893435091
C            5.88458854105124        0.26976331358420       -0.83230892567707
C            5.97885159225774        1.61406661363239       -0.33430308951524
C            7.00962019909987        2.54317687250807       -0.28751031129937
C            6.75324361231200        3.78849330182591        0.25037673336758
C            5.48449602294774        4.11708175279054        0.72192841241230
C            4.44296639596332        3.20940663706770        0.68554589746787
C            4.70184087472555        1.94748902423989        0.17094839185453
C            1.54643269437623        0.36291088169471       -0.54031517350994
C            0.22436417206489        0.26538735105672       -0.16333042234182
H           -9.22071005027612        2.28745012763681       -0.15140728281915
H           -8.94386983866840        3.85294526683245       -0.91672713376415
H           -8.22819651332592        3.50107432279711        0.65683704379104
H           -7.52661364185098        2.07701501600843       -1.95550112653167
H           -6.81944107790921        1.72504244692070       -0.37780081566966
H           -5.87782181151985        4.00647184991539       -0.26202819169011
H           -6.64197633222224        4.41859195766698       -1.80025471965172
H           -5.28765467011704        2.67669038919000       -2.94838137398243
H           -4.28905266099686        3.91716536775978       -2.17257844825698
H           -3.18409171501628        3.14861547356795        0.28438904498207
H           -1.44967963191711       -5.28952524333626        1.91832701353821
H           -2.65144547633148       -5.65148333225270        0.66674043319006
H           -0.47762962608961       -6.43668628939207       -0.08480756033649
H           -0.98244923565066       -5.07920419439666       -1.09500369510129
H            0.46800510850478       -3.55330485534602        0.24674040691132
H            0.96892516608258       -4.91647588047266        1.24622762254049
H            1.94283768670297       -6.02874020728508       -0.77413894758988
H            2.66899447390816       -4.44726826914122       -0.48649548973076
H            1.46078053341206       -4.64689024084920       -1.75865842930835
H           -1.07714316014476       -2.74947477554400        2.52706242532222
H            0.45663341408737        1.39836074099460        3.00858666741592
H            2.85281476588304        1.54864317344744        2.35386170338361
H            3.13799325959936       -1.77091186667999       -0.73818959862808
H            4.77432428156067       -3.28082159843141       -1.79120881538415
H            7.07154814881004       -2.55360908174245       -2.22425507814518
H            7.81694020607233       -0.28291654703362       -1.58768601485359
H            7.98788023930520        2.29349224660154       -0.66955248726063
H            7.54137799651017        4.52490308107692        0.29920475973943
H            5.30899746829934        5.10477157017037        1.12187697388467
H            3.45892133222931        3.48219024570320        1.03566238199459
H            1.85104296311529        0.09465305212806       -1.54085596636910
H           -0.51575735147172       -0.09644446447680       -0.86284893401162

          :  Hamiltonian                  GFN2-xTB          :
         :: gradient norm              0.000034640780 Eh/a0 ::
         :: HOMO-LUMO gap              2.231177875324 eV    ::
         :: SCC energy              -106.946484776433 Eh    ::
         :: -> dispersion             -0.095183500604 Eh    ::
         :: repulsion energy           1.715795170889 Eh    ::

    * Orbital Energies and Occupations

         #    Occupation            Energy/Eh            Energy/eV
      -------------------------------------------------------------
         1        2.0000           -0.7406035             -20.1528
       ...           ...                  ...                  ...
        86        2.0000           -0.4265251             -11.6063
        87        2.0000           -0.4251732             -11.5696
        88        2.0000           -0.4218092             -11.4780
        89        2.0000           -0.4212490             -11.4628
        90        2.0000           -0.4184227             -11.3859
        91        2.0000           -0.4154311             -11.3045
        92        2.0000           -0.4112513             -11.1907
        93        2.0000           -0.4086110             -11.1189
        94        2.0000           -0.4062876             -11.0556
        95        2.0000           -0.4050131             -11.0210
        96        2.0000           -0.3820897             -10.3972
        97        2.0000           -0.3704393             -10.0802
        98        2.0000           -0.3670508              -9.9880 (HOMO)
        99                         -0.2850566              -7.7568 (LUMO)
       100                         -0.2611925              -7.1074
       101                         -0.2469585              -6.7201
       102                         -0.2437453              -6.6326
       103                         -0.2264545              -6.1621
       104                         -0.2252595              -6.1296
       105                         -0.2187829              -5.9534
       106                         -0.2092540              -5.6941
       107                         -0.2056563              -5.5962
       108                         -0.1970193              -5.3612
       109                         -0.1893015              -5.1512
       ...                                ...                  ...
       203                          1.1970582              32.5736
      -------------------------------------------------------------
                  HL-Gap            0.0819943 Eh            2.2312 eV

     #   Z          covCN         q      C6AA      α(0)
     1   6 C        3.752    -0.103    22.529     6.769
     2   6 C        3.801    -0.052    21.508     6.603
     3   6 C        3.804    -0.056    21.583     6.614
     4   6 C        3.826    -0.059    21.615     6.616
     5   6 C        2.994     0.023    27.483     8.600
     6   6 C        3.094    -0.048    29.078     8.838
     7   6 C        3.128    -0.023    28.371     8.721
     8   6 C        3.240     0.019    26.680     8.375
     9  16 S        2.297    -0.025   142.082    20.062
    10   6 C        3.240     0.019    26.681     8.376
    11  16 S        2.296    -0.026   142.147    20.066
    12   6 C        2.995     0.023    27.473     8.598
    13   6 C        3.827    -0.059    21.615     6.616
    14   6 C        3.804    -0.056    21.586     6.614
    15   6 C        3.800    -0.051    21.495     6.601
    16   6 C        3.752    -0.101    22.498     6.764
    17   6 C        3.094    -0.049    29.097     8.841
    18   6 C        3.128    -0.026    28.440     8.732
    19  15 P        4.218     0.104   155.707    22.415
    20   8 O        0.808    -0.332    20.394     6.054
    21   6 C        2.921     0.006    27.877     8.658
    22   6 C        3.017    -0.020    28.475     8.753
    23   6 C        2.921    -0.042    29.039     8.837
    24   6 C        2.913     0.070    26.434     8.431
    25   7 N        2.802    -0.042    22.053     6.975
    26   6 C        3.073     0.046    26.888     8.502
    27   6 C        2.910    -0.051    29.266     8.871
    28   6 C        2.924    -0.033    28.827     8.805
    29   6 C        2.920    -0.040    28.995     8.830
    30   6 C        2.913    -0.032    28.803     8.801
    31   6 C        3.067    -0.016    28.330     8.728
    32   6 C        3.068    -0.016    28.335     8.728
    33   6 C        2.913    -0.032    28.803     8.800
    34   6 C        2.920    -0.040    28.987     8.829
    35   6 C        2.924    -0.032    28.808     8.802
    36   6 C        2.910    -0.050    29.251     8.868
    37   6 C        3.072     0.046    26.884     8.502
    38   6 C        2.923    -0.042    29.037     8.837
    39   6 C        2.984    -0.024    28.597     8.772
    40   1 H        0.925     0.037     2.496     2.471
    41   1 H        0.925     0.034     2.531     2.488
    42   1 H        0.925     0.036     2.505     2.475
    43   1 H        0.924     0.032     2.555     2.499
    44   1 H        0.924     0.032     2.552     2.498
    45   1 H        0.924     0.038     2.474     2.459
    46   1 H        0.924     0.038     2.476     2.461
    47   1 H        0.924     0.048     2.347     2.396
    48   1 H        0.924     0.046     2.365     2.405
    49   1 H        0.926     0.047     2.355     2.400
    50   1 H        0.924     0.047     2.354     2.399
    51   1 H        0.924     0.048     2.339     2.392
    52   1 H        0.924     0.039     2.468     2.457
    53   1 H        0.924     0.039     2.458     2.452
    54   1 H        0.924     0.028     2.621     2.532
    55   1 H        0.924     0.031     2.577     2.510
    56   1 H        0.925     0.035     2.519     2.482
    57   1 H        0.925     0.036     2.500     2.472
    58   1 H        0.925     0.034     2.526     2.485
    59   1 H        0.926     0.045     2.379     2.412
    60   1 H        0.926     0.068     2.104     2.268
    61   1 H        0.926     0.051     2.312     2.378
    62   1 H        0.926     0.028     2.614     2.529
    63   1 H        0.926     0.030     2.589     2.516
    64   1 H        0.926     0.030     2.591     2.517
    65   1 H        0.926     0.033     2.549     2.497
    66   1 H        0.926     0.033     2.550     2.497
    67   1 H        0.926     0.030     2.585     2.514
    68   1 H        0.926     0.031     2.567     2.506
    69   1 H        0.926     0.029     2.606     2.524
    70   1 H        0.926     0.048     2.342     2.393
    71   1 H        0.926     0.042     2.418     2.432

molecular dipole:
                 x           y           z       tot (Debye)
 q only:        0.247      -0.422      -1.360
   full:        0.371      -0.319      -1.229       3.363

 projected vibrational frequencies (cm⁻¹)
eigval :       -0.00     0.00     0.00     0.00     0.00     0.00
eigval :        9.72    14.07    15.48    16.84    27.32    32.63
eigval :       37.15    44.79    50.88    62.98    71.48    74.23
eigval :       79.09   103.21   106.04   113.32   121.40   133.65
eigval :      140.12   145.63   157.60   177.82   192.70   200.76
eigval :      220.58   233.60   237.60   241.20   244.63   256.67
eigval :      272.18   277.92   290.93   298.82   307.89   315.62
eigval :      337.12   364.61   377.00   384.69   396.41   400.03
eigval :      409.86   416.66   427.78   434.60   442.43   456.46
eigval :      475.53   500.76   517.19   519.97   524.95   534.25
eigval :      541.29   554.58   575.81   580.38   588.83   591.72
eigval :      593.02   612.28   623.95   661.50   673.78   674.44
eigval :      679.77   693.58   708.64   745.42   759.64   770.36
eigval :      781.69   784.30   787.13   812.33   824.66   825.75
eigval :      857.12   859.86   863.38   867.19   867.34   874.67
eigval :      881.85   897.82   903.31   903.79   906.26   912.24
eigval :      919.45   921.55   927.74   931.20   933.13   951.65
eigval :      952.67   960.60  1010.01  1012.15  1022.34  1027.07
eigval :     1068.01  1071.36  1075.17  1079.50  1092.13  1094.71
eigval :     1111.08  1114.61  1117.00  1122.68  1123.35  1124.74
eigval :     1129.12  1153.40  1157.68  1169.35  1175.91  1179.24
eigval :     1181.52  1201.06  1211.26  1217.25  1235.27  1236.11
eigval :     1237.60  1245.46  1255.94  1279.50  1282.80  1283.36
eigval :     1299.80  1300.82  1303.59  1304.52  1309.00  1316.76
eigval :     1322.90  1323.72  1356.80  1360.89  1364.77  1367.41
eigval :     1368.40  1376.75  1390.85  1398.61  1416.99  1417.20
eigval :     1421.34  1423.48  1426.93  1427.83  1463.35  1465.06
eigval :     1475.66  1479.73  1486.35  1487.60  1487.92  1495.96
eigval :     1499.96  1504.11  1505.07  1506.00  1507.16  1523.67
eigval :     1531.88  1561.87  1576.05  1582.45  1589.49  1599.21
eigval :     1614.43  2959.24  2961.55  2964.36  2970.66  2974.18
eigval :     2974.22  2978.33  2982.58  2984.60  2986.79  2987.14
eigval :     2991.36  3029.62  3030.53  3032.90  3035.32  3038.37
eigval :     3041.48  3072.81  3076.07  3078.42  3081.06  3082.68
eigval :     3083.95  3089.03  3091.12  3094.00  3094.92  3096.37
eigval :     3098.19  3127.97  3128.54

   temp. (K)  partition function   enthalpy   heat capacity  entropy
                                   cal/mol     cal/K/mol   cal/K/mol   J/K/mol
 298.15  VIB  0.394E+18            21295.114    127.056    135.162
         ROT  0.631E+08              888.752      2.981     38.672
         INT  0.248E+26            22183.866    130.037    173.834
         TR   0.130E+29             1481.254      4.968     44.863
         TOT                       23665.1204   135.0054   218.6970   915.0281

       T/K    H(0)-H(T)+PV         H(T)/Eh          T*S/Eh         G(T)/Eh
   ------------------------------------------------------------------------
    298.15    0.377128E-01    0.598240E+00    0.103910E+00    0.494330E+00
   ------------------------------------------------------------------------

         :::::::::::::::::::::::::::::::::::::::::::::::::::::
         ::                  THERMODYNAMIC                  ::
         :::::::::::::::::::::::::::::::::::::::::::::::::::::
         :: total free energy        -104.736359615976 Eh   ::
         ::.................................................::
         :: total energy             -105.230689605544 Eh   ::
         :: zero point energy           0.560527208835 Eh   ::
         :: G(RRHO) w/o ZPVE           -0.066197219267 Eh   ::
         :: G(RRHO) contrib.            0.494329989568 Eh   ::
         :::::::::::::::::::::::::::::::::::::::::::::::::::::

           -------------------------------------------------
          | TOTAL ENERGY             -105.230689605544 Eh   |
          | TOTAL ENTHALPY           -104.632449626879 Eh   |
          | TOTAL FREE ENERGY        -104.736359615976 Eh   |
          | GRADIENT NORM               0.000034644499 Eh/α |
          | HOMO-LUMO GAP               2.231177341147 eV   |
           -------------------------------------------------

 * finished run on 2025/09/09 at 16:04:43.727
