   * xtb version 6.7.1 (edcfbbe) compiled by 'albert@albert-system' on 2024-07-22

   ID    Z sym.   atoms
    1    6 C      1-8, 10, 12-18, 21-24, 26-39
    2   16 S      9, 11
    3   15 P      19
    4    8 O      20
    5    7 N      25
    6    1 H      40-71

          program call               : xtb data2507/gas/3ai/3ai.xyz --gfn 2 --ohess vtight --parallel 40 --molden --ceasefiles --namespace data2507/gas/3ai/3ai_gas_S0_preOpt
          :  Hamiltonian                  GFN2-xTB          :
 * total energy  :  -105.2016870 Eh     change       -0.3511047E-08 Eh
 * total energy  :  -105.2190440 Eh     change       -0.1735693E-01 Eh
 * total energy  :  -105.2254683 Eh     change       -0.6424292E-02 Eh
 * total energy  :  -105.2265957 Eh     change       -0.1127385E-02 Eh
 * total energy  :  -105.2271626 Eh     change       -0.5669198E-03 Eh
 * total energy  :  -105.2274087 Eh     change       -0.2461016E-03 Eh
 * total energy  :  -105.2275725 Eh     change       -0.1638036E-03 Eh
 * total energy  :  -105.2276725 Eh     change       -0.9997149E-04 Eh
 * total energy  :  -105.2277361 Eh     change       -0.6364550E-04 Eh
 * total energy  :  -105.2277831 Eh     change       -0.4697996E-04 Eh
 * total energy  :  -105.2282754 Eh     change       -0.3730953E-06 Eh
 * total energy  :  -105.2282756 Eh     change       -0.2862217E-06 Eh
 * total energy  :  -105.2282759 Eh     change       -0.2292997E-06 Eh
 * total energy  :  -105.2282761 Eh     change       -0.2129649E-06 Eh
 * total energy  :  -105.2282763 Eh     change       -0.1854151E-06 Eh
 * total energy  :  -105.2282764 Eh     change       -0.1728458E-06 Eh
 * total energy  :  -105.2282766 Eh     change       -0.1568381E-06 Eh
 * total energy  :  -105.2282767 Eh     change       -0.1048006E-06 Eh
 * total energy  :  -105.2282768 Eh     change       -0.6604724E-07 Eh
   *** GEOMETRY OPTIMIZATION CONVERGED AFTER 67 ITERATIONS ***

 final structure:
================
71
 xtb: 6.7.1 (edcfbbe)
C           -4.98654133364401        6.84399419868530       -1.83522891375003
C           -4.79023702002202        6.56708639810660       -0.34928414013546
C           -4.46984223648644        5.10426940016794       -0.04717664378467
C           -3.10053046022410        4.66748870515739       -0.58620574430116
C           -2.79389622171433        3.26807446505125       -0.18422317162522
C           -1.96326333956322        2.83302545867160        0.80661970379246
C           -1.96899263243582        1.43447654502255        0.94289898368242
C           -2.80867912047572        0.81066751900353        0.03778579761646
S           -3.60895812069144        1.94408878469057       -0.97581386169454
C           -2.84805797053749       -0.61022353092619        0.13658336102610
S           -3.71212036444836       -1.82746623761768       -0.71445782375046
C           -2.96807181605745       -3.07190935503093        0.25604498950650
C           -3.35220538094297       -4.49464946904708        0.05037431845455
C           -4.74111124457140       -4.77695837174631        0.63992335382469
C           -5.14171740175732       -6.24800461416195        0.54362209787368
C           -5.35763106946405       -6.71869318489831       -0.88993332667913
C           -2.11194466755502       -2.55007494967754        1.18112067032561
C           -2.04121272411235       -1.14788588727316        1.12306739174108
P           -1.13356563280485        0.18421126994383        1.96871171686478
O           -1.24282266099626        0.28856838373656        3.42564672737795
C            0.56959445009067        0.09009936465206        1.35162913972277
C            1.59710281224114        0.10716844111392        2.28359446744506
C            2.91146264116054        0.02812675382689        1.86842519914191
C            3.20588804341959       -0.05948298294177        0.50871717237644
N            4.53344868470889       -0.13536067311905        0.08035937284232
C            5.56460181966800        0.69174756076692        0.48830556500995
C            5.53565613478798        1.78964149569246        1.33578875906934
C            6.71962625264294        2.46889063711094        1.55219798272761
C            7.90620093401288        2.07803972548023        0.93634587971102
C            7.93526392438302        1.00315318000551        0.07057771773465
C            6.75786043190471        0.30497001021945       -0.16242831365772
C            6.42488502280005       -0.81633572977354       -0.99643164179481
C            7.16722682416725       -1.62693529368076       -1.84479738679396
C            6.52856507665260       -2.66356836126051       -2.49550937739556
C            5.17189931141056       -2.90640116153453       -2.29489326563309
C            4.41257318582710       -2.11327394739401       -1.45554655008923
C            5.04276381260491       -1.05301279595784       -0.82058251812437
C            2.16849990795431       -0.07055121288673       -0.42540676719901
C            0.85725020738382       -0.00116169276599       -0.00464878501525
H           -5.30634604238507        7.87231640646037       -1.98669027515347
H           -5.74734443226686        6.18466287947317       -2.24749687971828
H           -4.06313291851659        6.69462301835780       -2.38889525410240
H           -5.70596926514397        6.83387379581043        0.18307925451452
H           -3.98812783545444        7.20016707032072        0.03694496907865
H           -5.24226214085424        4.46481555195984       -0.48076566688534
H           -4.48000543644970        4.95284021751699        1.03489949756255
H           -3.09799127301405        4.74330145378356       -1.67509057010476
H           -2.32577733094632        5.32728454226684       -0.18964498555520
H           -1.37291613554745        3.49165165787962        1.41872141172209
H           -3.35832999178837       -4.72048850257393       -1.01750998390976
H           -2.61312151942401       -5.13457108467376        0.53731790686731
H           -4.73876853951920       -4.47581843463289        1.69026741928522
H           -5.47929580410903       -4.16313154891429        0.11855160022458
H           -4.37410557712711       -6.86364648745542        1.01807802376818
H           -6.06890357559350       -6.38752887843896        1.10397248230945
H           -6.08247224577020       -6.08283608131376       -1.39370853418111
H           -5.73377018481574       -7.73904474211479       -0.89769010505797
H           -4.42918505113217       -6.69887911841566       -1.45483989753152
H           -1.55649043709299       -3.14887846023571        1.88107439062667
H            1.34405089109843        0.17371285973896        3.33190814212935
H            3.71484573537736        0.01494325737445        2.58960137601979
H            4.61844371545507        2.11429060207063        1.80341875923726
H            6.72330655916846        3.32444811324849        2.21123272485878
H            8.81110160935305        2.63293333900368        1.13412179682599
H            8.85039640970212        0.71036012983206       -0.42144710497272
H            8.22270752437935       -1.44924448222605       -1.98487180206374
H            7.08653406203820       -3.30435462860147       -3.16181068049794
H            4.70277317166803       -3.73583010859811       -2.80326655474060
H            3.36656874199998       -2.32456671769944       -1.29184749147292
H            2.40312462921909       -0.11561746185397       -1.47842054674703
H            0.05149562818991       -0.00762400276109       -0.72496655880822

          :  Hamiltonian                  GFN2-xTB          :
         :: gradient norm              0.000023641849 Eh/a0 ::
         :: HOMO-LUMO gap              2.235997881829 eV    ::
         :: SCC energy              -106.944653868414 Eh    ::
         :: -> dispersion             -0.091900594054 Eh    ::
         :: repulsion energy           1.716377102511 Eh    ::

    * Orbital Energies and Occupations

         #    Occupation            Energy/Eh            Energy/eV
      -------------------------------------------------------------
         1        2.0000           -0.7395348             -20.1238
       ...           ...                  ...                  ...
        86        2.0000           -0.4259344             -11.5903
        87        2.0000           -0.4246379             -11.5550
        88        2.0000           -0.4212546             -11.4629
        89        2.0000           -0.4206434             -11.4463
        90        2.0000           -0.4169142             -11.3448
        91        2.0000           -0.4143368             -11.2747
        92        2.0000           -0.4108212             -11.1790
        93        2.0000           -0.4080188             -11.1028
        94        2.0000           -0.4054208             -11.0321
        95        2.0000           -0.4044630             -11.0060
        96        2.0000           -0.3814979             -10.3811
        97        2.0000           -0.3696127             -10.0577
        98        2.0000           -0.3664988              -9.9729 (HOMO)
        99                         -0.2843274              -7.7369 (LUMO)
       100                         -0.2608855              -7.0991
       101                         -0.2464100              -6.7052
       102                         -0.2431687              -6.6170
       103                         -0.2254731              -6.1354
       104                         -0.2246829              -6.1139
       105                         -0.2179604              -5.9310
       106                         -0.2081853              -5.6650
       107                         -0.2047863              -5.5725
       108                         -0.1964143              -5.3447
       109                         -0.1886984              -5.1347
       ...                                ...                  ...
       203                          1.1928138              32.4581
      -------------------------------------------------------------
                  HL-Gap            0.0821714 Eh            2.2360 eV

     #   Z          covCN         q      C6AA      α(0)
     1   6 C        3.751    -0.103    22.537     6.770
     2   6 C        3.800    -0.053    21.534     6.607
     3   6 C        3.804    -0.055    21.554     6.610
     4   6 C        3.827    -0.059    21.610     6.615
     5   6 C        2.995     0.021    27.530     8.607
     6   6 C        3.093    -0.049    29.107     8.843
     7   6 C        3.128    -0.023    28.387     8.724
     8   6 C        3.239     0.019    26.675     8.375
     9  16 S        2.297    -0.027   142.181    20.069
    10   6 C        3.239     0.019    26.677     8.376
    11  16 S        2.297    -0.027   142.185    20.069
    12   6 C        2.995     0.021    27.531     8.607
    13   6 C        3.827    -0.059    21.610     6.615
    14   6 C        3.804    -0.055    21.555     6.610
    15   6 C        3.800    -0.053    21.534     6.607
    16   6 C        3.751    -0.103    22.537     6.770
    17   6 C        3.093    -0.049    29.110     8.843
    18   6 C        3.128    -0.024    28.389     8.724
    19  15 P        4.218     0.099   155.899    22.429
    20   8 O        0.808    -0.333    20.415     6.057
    21   6 C        2.921     0.008    27.847     8.654
    22   6 C        3.021    -0.020    28.471     8.753
    23   6 C        2.922    -0.042    29.038     8.837
    24   6 C        2.913     0.070    26.430     8.430
    25   7 N        2.802    -0.042    22.055     6.975
    26   6 C        3.073     0.046    26.885     8.502
    27   6 C        2.910    -0.050    29.251     8.868
    28   6 C        2.924    -0.032    28.810     8.802
    29   6 C        2.920    -0.040    28.988     8.829
    30   6 C        2.913    -0.032    28.804     8.801
    31   6 C        3.067    -0.016    28.333     8.728
    32   6 C        3.067    -0.016    28.331     8.728
    33   6 C        2.913    -0.032    28.803     8.801
    34   6 C        2.920    -0.040    28.992     8.830
    35   6 C        2.924    -0.033    28.818     8.803
    36   6 C        2.910    -0.051    29.254     8.869
    37   6 C        3.072     0.046    26.885     8.502
    38   6 C        2.922    -0.042    29.037     8.837
    39   6 C        2.982    -0.024    28.585     8.770
    40   1 H        0.925     0.035     2.518     2.481
    41   1 H        0.925     0.037     2.492     2.468
    42   1 H        0.925     0.035     2.521     2.483
    43   1 H        0.924     0.035     2.523     2.484
    44   1 H        0.924     0.032     2.553     2.499
    45   1 H        0.924     0.040     2.449     2.447
    46   1 H        0.924     0.034     2.526     2.485
    47   1 H        0.924     0.052     2.297     2.370
    48   1 H        0.924     0.046     2.370     2.407
    49   1 H        0.926     0.046     2.376     2.410
    50   1 H        0.924     0.052     2.297     2.370
    51   1 H        0.924     0.046     2.370     2.407
    52   1 H        0.924     0.034     2.526     2.485
    53   1 H        0.924     0.040     2.449     2.447
    54   1 H        0.924     0.032     2.553     2.499
    55   1 H        0.924     0.035     2.523     2.484
    56   1 H        0.925     0.037     2.491     2.468
    57   1 H        0.925     0.035     2.518     2.481
    58   1 H        0.925     0.035     2.522     2.483
    59   1 H        0.926     0.046     2.376     2.410
    60   1 H        0.926     0.069     2.095     2.263
    61   1 H        0.926     0.051     2.310     2.377
    62   1 H        0.926     0.029     2.607     2.525
    63   1 H        0.926     0.031     2.568     2.506
    64   1 H        0.926     0.030     2.586     2.515
    65   1 H        0.926     0.033     2.550     2.497
    66   1 H        0.926     0.033     2.549     2.497
    67   1 H        0.926     0.030     2.590     2.517
    68   1 H        0.926     0.030     2.583     2.513
    69   1 H        0.926     0.027     2.630     2.536
    70   1 H        0.926     0.048     2.345     2.395
    71   1 H        0.926     0.043     2.407     2.426

molecular dipole:
                 x           y           z       tot (Debye)
 q only:       -0.127      -0.079      -1.403
   full:        0.080      -0.075      -1.253       3.198

 projected vibrational frequencies (cm⁻¹)
eigval :       -0.00    -0.00    -0.00    -0.00     0.00     0.00
eigval :        8.86     9.59    13.36    20.52    20.59    27.67
eigval :       31.97    32.47    38.82    45.75    65.59    78.21
eigval :       98.82   104.09   104.51   106.15   112.60   129.39
eigval :      135.99   144.48   151.85   160.19   177.59   193.07
eigval :      219.22   226.99   230.96   242.39   256.36   268.62
eigval :      271.93   276.74   283.17   297.00   309.51   320.83
eigval :      337.98   376.56   381.99   383.50   396.19   403.59
eigval :      407.36   415.90   425.72   428.71   441.15   448.64
eigval :      476.18   507.55   517.24   520.12   521.11   534.08
eigval :      536.78   541.16   579.96   583.97   584.09   592.81
eigval :      604.03   612.16   641.31   663.04   673.66   679.20
eigval :      688.11   693.40   708.56   745.92   759.86   770.10
eigval :      781.42   781.61   781.72   812.16   820.74   821.71
eigval :      822.88   823.24   867.29   870.78   872.29   874.43
eigval :      881.87   897.86   903.03   903.74   919.06   921.41
eigval :      927.17   928.64   928.75   931.27   933.23   951.69
eigval :      960.31   960.31  1003.61  1003.96  1010.20  1012.15
eigval :     1071.12  1073.52  1074.16  1074.70  1105.11  1109.62
eigval :     1114.50  1114.70  1117.21  1125.17  1128.32  1128.89
eigval :     1129.11  1153.10  1167.49  1169.89  1175.67  1178.76
eigval :     1181.15  1200.52  1203.05  1203.42  1235.92  1245.25
eigval :     1250.93  1250.99  1255.42  1270.20  1271.38  1276.38
eigval :     1288.95  1289.02  1299.91  1300.58  1314.14  1323.75
eigval :     1350.37  1350.59  1353.88  1354.73  1356.90  1360.80
eigval :     1364.47  1376.64  1389.65  1398.55  1416.91  1416.95
eigval :     1424.01  1424.10  1426.93  1427.89  1464.56  1464.85
eigval :     1475.58  1479.51  1487.01  1487.06  1487.69  1493.01
eigval :     1493.04  1504.33  1504.36  1510.65  1510.67  1528.28
eigval :     1534.73  1562.00  1576.06  1582.21  1589.56  1599.29
eigval :     1614.53  2964.72  2964.73  2968.42  2968.45  2977.48
eigval :     2977.55  2980.78  2980.91  2985.01  2985.18  2987.75
eigval :     2987.84  3033.59  3033.70  3036.78  3036.89  3045.06
eigval :     3045.13  3072.03  3077.33  3078.26  3081.13  3082.59
eigval :     3083.84  3089.41  3091.22  3093.61  3094.76  3096.63
eigval :     3098.17  3127.55  3127.97

   temp. (K)  partition function   enthalpy   heat capacity  entropy
                                   cal/mol     cal/K/mol   cal/K/mol   J/K/mol
 298.15  VIB  0.278E+19            21427.405    126.151    136.562
         ROT  0.810E+08              888.752      2.981     39.168
         INT  0.225E+27            22316.158    129.132    175.730
         TR   0.130E+29             1481.254      4.968     44.863
         TOT                       23797.4116   134.1000   220.5933   922.9622

       T/K    H(0)-H(T)+PV         H(T)/Eh          T*S/Eh         G(T)/Eh
   ------------------------------------------------------------------------
    298.15    0.379236E-01    0.598296E+00    0.104811E+00    0.493485E+00
   ------------------------------------------------------------------------

         :::::::::::::::::::::::::::::::::::::::::::::::::::::
         ::                  THERMODYNAMIC                  ::
         :::::::::::::::::::::::::::::::::::::::::::::::::::::
         :: total free energy        -104.734792074073 Eh   ::
         ::.................................................::
         :: total energy             -105.228276765900 Eh   ::
         :: zero point energy           0.560372077319 Eh   ::
         :: G(RRHO) w/o ZPVE           -0.066887385492 Eh   ::
         :: G(RRHO) contrib.            0.493484691827 Eh   ::
         :::::::::::::::::::::::::::::::::::::::::::::::::::::

           -------------------------------------------------
          | TOTAL ENERGY             -105.228276765900 Eh   |
          | TOTAL ENTHALPY           -104.629981099219 Eh   |
          | TOTAL FREE ENERGY        -104.734792074073 Eh   |
          | GRADIENT NORM               0.000023641722 Eh/α |
          | HOMO-LUMO GAP               2.235997463024 eV   |
           -------------------------------------------------

 * finished run on 2025/09/09 at 15:39:30.681
