   * xtb version 6.7.1 (edcfbbe) compiled by 'albert@albert-system' on 2024-07-22

   ID    Z sym.   atoms
    1    6 C      1-8, 10, 12-18, 21-24, 26-39
    2   16 S      9, 11
    3   15 P      19
    4    8 O      20
    5    7 N      25
    6    1 H      40-71

          program call               : xtb data2507/gas/3ai/3ai_gas_T1_crest.xyz --gfn 2 --spinpol --tblite --uhf 2 --ohess vtight --parallel 40 --molden --ceasefiles --namespace data2507/gas/3ai/3ai_gas_T1_finalOpt
 * total energy  :  -105.1620126 Eh     change       -0.1257045E-07 Eh
 * total energy  :  -105.1620273 Eh     change       -0.1468020E-04 Eh
 * total energy  :  -105.1620332 Eh     change       -0.5936754E-05 Eh
 * total energy  :  -105.1620349 Eh     change       -0.1719151E-05 Eh
 * total energy  :  -105.1620370 Eh     change       -0.2062734E-05 Eh
 * total energy  :  -105.1620392 Eh     change       -0.2253009E-05 Eh
 * total energy  :  -105.1620419 Eh     change       -0.2667889E-05 Eh
 * total energy  :  -105.1620444 Eh     change       -0.2538108E-05 Eh
 * total energy  :  -105.1620466 Eh     change       -0.2107245E-05 Eh
 * total energy  :  -105.1620488 Eh     change       -0.2221122E-05 Eh
 * total energy  :  -105.1621489 Eh     change       -0.6225670E-06 Eh
 * total energy  :  -105.1621491 Eh     change       -0.2240662E-06 Eh
 * total energy  :  -105.1621498 Eh     change       -0.6446664E-06 Eh
 * total energy  :  -105.1621501 Eh     change       -0.3535706E-06 Eh
 * total energy  :  -105.1621504 Eh     change       -0.2516940E-06 Eh
 * total energy  :  -105.1621510 Eh     change       -0.6292349E-06 Eh
 * total energy  :  -105.1621513 Eh     change       -0.2839148E-06 Eh
 * total energy  :  -105.1621514 Eh     change       -0.1342499E-06 Eh
 * total energy  :  -105.1621515 Eh     change       -0.5467737E-07 Eh
   *** GEOMETRY OPTIMIZATION CONVERGED AFTER 53 ITERATIONS ***

 final structure:
================
71
 xtb: 6.7.1 (edcfbbe)
C            1.61780002505885        4.95611585063067       -0.88890235799208
C            0.51712127954017        4.62702565918241        0.11180985592440
C           -0.77948947023739        5.36419968688511       -0.21360311741546
C           -1.90195709111327        5.04513164577336        0.79146717840943
C           -2.26916521263308        3.61007034191251        0.74494771327157
C           -1.81574302534193        2.59563457969572        1.57482838835052
C           -2.20898362054382        1.33824612812796        1.17854609112470
C           -3.02147640638898        1.36699653499330       -0.02325149568084
S           -3.24808649509258        3.00265843501355       -0.58467201537641
C           -3.42309636071441        0.14409818169563       -0.45788385895796
S           -4.44895523488474       -0.41575929559880       -1.75161254369727
C           -4.26382313379757       -2.07641311639335       -1.19943464924616
C           -4.98351067700433       -3.16524748748468       -1.90230131864261
C           -6.50687404029843       -3.03872013503797       -1.74051348079462
C           -6.94127789656830       -3.16991371713072       -0.28340991115030
C           -8.45219060886308       -3.04463981528405       -0.13717575708800
C           -3.44305572725923       -2.17552416801290       -0.08691690500352
C           -2.94708644706852       -0.96654621094411        0.34644651549218
P           -1.85759556101098       -0.36868370190307        1.65607406470853
O           -2.09150342340135       -0.80864047634492        3.03496694496130
C           -0.14066585638617       -0.61056538428751        1.10062871958611
C            0.26601885633661       -0.20905135864640       -0.16674850205893
C            1.59253548708576       -0.30589868602954       -0.52797683737510
C            2.53127584581022       -0.79478365881921        0.38213086232499
N            3.88064554568187       -0.85085195202177        0.02524088152418
C            4.60560293853953        0.18363087928252       -0.53816586507759
C            4.21235628280385        1.48084050656229       -0.83418208245269
C            5.15702141647756        2.33480931698294       -1.37123459003884
C            6.46635069687993        1.91929506744458       -1.60090476168260
C            6.87047941543324        0.63809020048989       -1.28222035315210
C            5.93874632308702       -0.23842301468124       -0.74251605548005
C            6.01268552361878       -1.59791914251704       -0.28331356402570
C            7.03422814176096       -2.53739723588756       -0.24561861438508
C            6.75679912982914       -3.79615042503720        0.24928362512932
C            5.47671269202444       -4.12721626554608        0.68720998247960
C            4.44396534120223       -3.20923891479155        0.65928667905176
C            4.72356012449824       -1.93487951381641        0.18785709504083
C            2.11805583829158       -1.21005694999868        1.64709042979387
C            0.78635284268911       -1.11735502792696        1.99999982646840
H            1.32471171789794        4.65481992827541       -1.89237273791473
H            2.53684869405133        4.43684262525952       -0.62739453058236
H            1.81949788217325        6.02515387044508       -0.89794280201016
H            0.84641720177809        4.90242407928574        1.11661277750179
H            0.33473823523372        3.54942430681011        0.10828006193985
H           -1.11505332587010        5.08858378907284       -1.21585004542997
H           -0.59760417957739        6.44061985693215       -0.20353307890696
H           -1.56864152169049        5.29826239956549        1.80026432401164
H           -2.77305493780907        5.65751934186248        0.54564143251660
H           -1.20600830367300        2.79077051356743        2.44036809104403
H           -4.74566189605686       -3.13066320446671       -2.97001725782054
H           -4.65010343417588       -4.12609473346851       -1.50443824316649
H           -6.82444465102440       -2.06893432214332       -2.13007154869707
H           -6.98942228270153       -3.81565833203862       -2.33691900459403
H           -6.61662196965642       -4.13808025590749        0.10522092870824
H           -6.45284521572482       -2.39499199799346        0.31174830181672
H           -8.74341242777264       -3.14066556186886        0.90586063470486
H           -8.95762562544770       -3.82083402627098       -0.70811237969290
H           -8.79083419156355       -2.07688501387885       -0.50055247011386
H           -3.22217108559595       -3.11892194873738        0.38217595239355
H           -0.46174819343765        0.17555329519074       -0.86728145364178
H            1.91373040111894       -0.01423610862377       -1.51681096406474
H            3.20558675282225        1.81981020455387       -0.64119926494187
H            4.87459868290185        3.34837816802224       -1.61590122596443
H            7.17424801461207        2.61596513763805       -2.02438705875033
H            7.88981699795372        0.32118438104436       -1.44247734424035
H            8.02166490199084       -2.28551723571701       -0.60168654405951
H            7.53745921987567       -4.54094823768869        0.29003682702758
H            5.28522235379066       -5.12493113433686        1.05346896407237
H            3.45109871339321       -3.48284713124055        0.98284423612049
H            2.84893422385413       -1.57421992600977        2.35355078633509
H            0.44497098919408       -1.41823716567968        2.97977914473823

 projected vibrational frequencies (cm⁻¹)
eigval :       -0.00    -0.00    -0.00    -0.00     0.00     0.00
eigval :        7.85    11.26    13.73    15.52    24.06    30.18
eigval :       34.95    44.31    47.80    60.88    71.63    73.09
eigval :       77.32    93.50   102.93   109.88   122.26   130.01
eigval :      141.04   148.23   154.40   170.31   182.73   210.62
eigval :      215.48   229.03   233.48   235.35   241.49   247.58
eigval :      271.92   275.15   278.60   295.49   300.79   311.46
eigval :      320.43   344.82   375.15   383.81   391.85   397.95
eigval :      403.47   409.99   418.46   422.51   428.64   440.68
eigval :      469.81   481.68   498.67   511.88   518.73   532.16
eigval :      534.48   541.04   545.09   561.15   568.31   580.35
eigval :      592.41   599.62   612.05   636.81   653.39   658.44
eigval :      673.81   679.34   708.68   743.02   759.06   770.14
eigval :      781.33   784.20   784.60   811.28   826.71   829.54
eigval :      832.10   837.05   859.18   861.57   867.22   874.35
eigval :      881.78   897.83   899.67   902.58   903.08   903.54
eigval :      903.96   919.33   921.46   927.47   930.81   932.66
eigval :      955.25   956.40  1009.34  1012.21  1016.23  1017.35
eigval :     1054.58  1060.89  1071.22  1075.18  1082.31  1089.65
eigval :     1097.47  1099.95  1114.04  1116.98  1119.01  1122.19
eigval :     1128.54  1152.91  1159.33  1162.81  1175.76  1179.09
eigval :     1181.50  1182.83  1198.03  1200.80  1217.09  1231.43
eigval :     1232.41  1234.80  1236.11  1245.42  1255.48  1270.94
eigval :     1279.66  1281.47  1299.62  1300.06  1300.37  1302.80
eigval :     1304.13  1304.96  1324.11  1356.49  1360.20  1364.15
eigval :     1364.35  1364.83  1388.42  1398.25  1413.30  1416.42
eigval :     1416.48  1426.08  1427.14  1435.99  1449.51  1458.91
eigval :     1460.86  1475.02  1479.09  1486.48  1486.78  1487.90
eigval :     1497.08  1498.97  1503.10  1503.61  1505.50  1506.33
eigval :     1545.36  1560.52  1575.49  1580.67  1589.20  1598.12
eigval :     1613.18  2940.95  2960.60  2963.59  2963.60  2972.65
eigval :     2973.97  2976.88  2980.11  2982.37  2983.65  2988.19
eigval :     2988.80  3030.13  3030.67  3033.58  3035.36  3039.16
eigval :     3042.49  3071.53  3076.07  3078.91  3082.61  3083.08
eigval :     3084.44  3089.02  3091.50  3092.78  3094.00  3096.35
eigval :     3098.48  3117.87  3118.76

   temp. (K)  partition function   enthalpy   heat capacity  entropy
                                   cal/mol     cal/K/mol   cal/K/mol   J/K/mol
 298.15  VIB  0.172E+19            21613.532    128.207    137.852
         ROT  0.635E+08              888.752      2.981     38.685
         INT  0.109E+27            22502.284    131.188    176.537
         TR   0.130E+29             1481.254      4.968     44.863
         TOT                       23983.5383   136.1559   221.4003   926.3387

       T/K    H(0)-H(T)+PV         H(T)/Eh          T*S/Eh         G(T)/Eh
   ------------------------------------------------------------------------
    298.15    0.382202E-01    0.595970E+00    0.105194E+00    0.490776E+00
   ------------------------------------------------------------------------

         :::::::::::::::::::::::::::::::::::::::::::::::::::::
         ::                  THERMODYNAMIC                  ::
         :::::::::::::::::::::::::::::::::::::::::::::::::::::
         :: total free energy        -104.671375504306 Eh   ::
         ::.................................................::
         :: total energy             -105.162151523320 Eh   ::
         :: zero point energy           0.557750232678 Eh   ::
         :: G(RRHO) w/o ZPVE           -0.066974213665 Eh   ::
         :: G(RRHO) contrib.            0.490776019014 Eh   ::
         :::::::::::::::::::::::::::::::::::::::::::::::::::::

           -------------------------------------------------
          | TOTAL ENERGY             -105.162151523320 Eh   |
          | TOTAL ENTHALPY           -104.566181089488 Eh   |
          | TOTAL FREE ENERGY        -104.671375504306 Eh   |
          | GRADIENT NORM               0.000126154714 Eh/α |
           -------------------------------------------------

 * finished run on 2025/09/09 at 16:47:09.994
