   * xtb version 6.7.1 (edcfbbe) compiled by 'albert@albert-system' on 2024-07-22

   ID    Z sym.   atoms
    1    6 C      1-8, 10, 12-18, 21-24, 26-39
    2   16 S      9, 11
    3   15 P      19
    4    8 O      20
    5    7 N      25
    6    1 H      40-71

          program call               : xtb data2507/gas/3ai/3ai_gas_S0_finalOpt.xtbopt.xyz --gfn 2 --spinpol --tblite --uhf 2 --ohess vtight --parallel 40 --molden --ceasefiles --namespace data2507/gas/3ai/3ai_gas_T1_preOpt
 * total energy  :  -105.1499270 Eh     change       -0.3983413E-07 Eh
 * total energy  :  -105.1594292 Eh     change       -0.9502202E-02 Eh
 * total energy  :  -105.1614602 Eh     change       -0.2030943E-02 Eh
 * total energy  :  -105.1615677 Eh     change       -0.1074986E-03 Eh
 * total energy  :  -105.1616213 Eh     change       -0.5359085E-04 Eh
 * total energy  :  -105.1616418 Eh     change       -0.2059465E-04 Eh
 * total energy  :  -105.1616599 Eh     change       -0.1801164E-04 Eh
 * total energy  :  -105.1616722 Eh     change       -0.1235481E-04 Eh
 * total energy  :  -105.1616810 Eh     change       -0.8772735E-05 Eh
 * total energy  :  -105.1616899 Eh     change       -0.8879733E-05 Eh
 * total energy  :  -105.1617090 Eh     change       -0.4586806E-06 Eh
 * total energy  :  -105.1617092 Eh     change       -0.2370195E-06 Eh
 * total energy  :  -105.1617096 Eh     change       -0.4465692E-06 Eh
 * total energy  :  -105.1617099 Eh     change       -0.2519782E-06 Eh
 * total energy  :  -105.1617103 Eh     change       -0.3961290E-06 Eh
 * total energy  :  -105.1617109 Eh     change       -0.5897726E-06 Eh
 * total energy  :  -105.1617113 Eh     change       -0.4634113E-06 Eh
 * total energy  :  -105.1617116 Eh     change       -0.2900704E-06 Eh
 * total energy  :  -105.1617117 Eh     change       -0.9455258E-07 Eh
   *** GEOMETRY OPTIMIZATION CONVERGED AFTER 29 ITERATIONS ***

 final structure:
================
71
 xtb: 6.7.1 (edcfbbe)
C           -8.49222793981961        3.02301236815468       -0.25939953877782
C           -7.25735448321037        2.49379279549906       -0.97721192328919
C           -6.21323065784944        3.58907895486737       -1.17425043567379
C           -4.99195393431279        3.09414315797667       -1.96869799007426
C           -4.26704281012418        2.01687987302899       -1.25106549174638
C           -3.45621754398708        2.15190007451437       -0.13324768315572
C           -2.94840551438237        0.96012324822754        0.33004889552819
C           -3.40298756524053       -0.17480733445383       -0.45319574807952
S           -4.42483398430045        0.34505342320698       -1.76807447354021
C           -2.98653083375148       -1.38216545297669        0.00989976043618
S           -3.18555670202221       -3.03268590686932       -0.51759931378028
C           -2.20815194191497       -3.59717103444137        0.83200771282407
C           -1.82344224016539       -5.02605443868023        0.91393250891558
C           -0.68277080167949       -5.35228503082743       -0.06820563611615
C            0.60255991667253       -4.59871836720224        0.26427569165753
C            1.72016649420719       -4.93170584642414       -0.71626301955811
C           -1.77479189493977       -2.55856812691667        1.64248798628416
C           -2.18312148736486       -1.31586919420562        1.21641167732355
P           -1.85287746202378        0.40569587596141        1.65417985337742
O           -2.08940995906223        0.87309385286429        3.02349459541386
C           -0.13958429287975        0.65089037793312        1.08880586801536
C            0.79866068578866        1.13029377586143        1.99164239033678
C            2.12878442706576        1.21730994712852        1.63120902098164
C            2.52900060773382        0.82525899378842        0.35469771037269
N            3.87574786904951        0.87780334175656       -0.01212672417967
C            4.58520145400021       -0.14767221147207       -0.61074224363411
C            4.17812068992846       -1.43425384355208       -0.93333946137483
C            5.10875119973657       -2.28155835106734       -1.50438414219825
C            6.41794033148864       -1.86992445761325       -1.74186453282237
C            6.83626812235516       -0.60018840649070       -1.39664330379429
C            5.91881455709903        0.26929878772641       -0.82218122416500
C            6.00951833081657        1.61612273001386       -0.32985901211238
C            7.03911049184763        2.54629324870307       -0.28164167747032
C            6.77846819461260        3.79409804753371        0.24882186423617
C            5.50680885569505        4.12396382476513        0.71149040647222
C            4.46623769987282        3.21523078440816        0.67341018938568
C            4.72928569648435        1.95104831158732        0.16639400992285
C            1.57910668831743        0.36386731460969       -0.55823568239819
C            0.25462413967861        0.27044304236963       -0.18900032887584
H           -9.22392278859699        2.23020899523554       -0.12509547847520
H           -8.95479097087204        3.82381487273925       -0.83270247037959
H           -8.22538704288856        3.41318133061104        0.72032044028784
H           -7.54604018500719        2.08927064356094       -1.95022948696135
H           -6.82313362651598        1.67868206226006       -0.39468443632933
H           -5.88320938789788        3.95563105190615       -0.20013468506987
H           -6.66123564006052        4.42541243450188       -1.71507579829507
H           -5.32119907376972        2.72672184296478       -2.94252064496695
H           -4.31446497004823        3.93852067502108       -2.12742993930659
H           -3.24744960876363        3.10918404889347        0.31294723959831
H           -1.50138379769922       -5.25387755540557        1.93239796968984
H           -2.68338518770175       -5.65428291612635        0.66891592029843
H           -0.49196528481136       -6.42674069892542       -0.03654803801237
H           -1.00504153904788       -5.09708082950145       -1.08017129074578
H            0.41053037363156       -3.52299828473659        0.24300547329159
H            0.92040410655313       -4.85706758294853        1.27725000849022
H            1.92918668138531       -5.99937227914496       -0.70972972833183
H            2.63179032683601       -4.40302594982609       -0.44741686062552
H            1.43944117140749       -4.64441064380513       -1.72738732717748
H           -1.16868111707497       -2.72623315539993        2.51630973159404
H            0.46688262227105        1.41612835378288        2.97920071793695
H            2.86802121861182        1.55954167598087        2.33992055279448
H            3.17158557638143       -1.77082821111702       -0.73524404441287
H            4.81476080315363       -3.28645531825358       -1.77020151565201
H            7.11450645436096       -2.56067941631138       -2.19294436722411
H            7.85569359377695       -0.28681150437666       -1.56320690836239
H            8.01979096412087        2.29583676348898       -0.65688038300230
H            7.56571636878067        4.53138083988270        0.29853139969566
H            5.32817796809844        5.11343758670922        1.10554640139253
H            3.47984867703531        3.48864923539705        1.01629691694046
H            1.89014052543374        0.09078897060199       -1.55556836580283
H           -0.48135202908184       -0.09404614275559       -0.89165389480035

 projected vibrational frequencies (cm⁻¹)
eigval :       -0.00    -0.00    -0.00     0.00     0.00     0.00
eigval :        8.63    13.91    14.17    16.94    25.20    30.49
eigval :       35.53    44.76    48.68    62.10    67.51    72.96
eigval :       77.39   100.64   103.23   105.13   119.17   131.85
eigval :      136.65   144.06   155.02   171.05   186.23   197.82
eigval :      214.23   230.85   234.61   237.24   241.96   252.88
eigval :      272.01   275.06   276.73   294.86   301.81   310.52
eigval :      320.18   345.31   375.13   383.70   386.31   398.06
eigval :      404.31   408.93   418.98   423.41   428.90   440.79
eigval :      469.74   480.21   499.61   509.64   518.60   527.05
eigval :      534.54   541.10   544.95   560.61   561.98   580.33
eigval :      592.42   602.33   612.11   643.93   658.32   667.09
eigval :      673.84   679.43   708.69   742.98   759.00   770.34
eigval :      781.55   782.21   784.51   811.26   828.79   831.53
eigval :      832.57   837.89   854.35   861.67   867.29   874.56
eigval :      881.88   897.72   898.76   902.85   903.67   903.97
eigval :      908.98   919.48   921.52   927.77   930.76   932.90
eigval :      949.70   956.68  1009.35  1012.06  1016.35  1021.59
eigval :     1054.60  1065.76  1071.21  1075.11  1081.48  1088.37
eigval :     1097.53  1100.22  1114.01  1116.73  1117.47  1122.11
eigval :     1128.60  1142.99  1152.87  1159.76  1175.76  1179.00
eigval :     1181.35  1188.29  1200.74  1205.07  1216.67  1231.74
eigval :     1232.64  1234.39  1235.98  1245.31  1255.53  1271.44
eigval :     1280.41  1281.47  1299.37  1299.87  1300.16  1301.63
eigval :     1304.89  1314.04  1324.04  1356.32  1360.02  1363.52
eigval :     1363.95  1364.49  1385.79  1397.96  1408.62  1416.20
eigval :     1416.54  1425.96  1426.69  1437.31  1452.62  1460.09
eigval :     1460.86  1474.68  1479.00  1485.47  1486.41  1487.48
eigval :     1495.24  1499.01  1503.35  1504.18  1505.18  1506.38
eigval :     1545.40  1560.21  1575.26  1580.64  1589.01  1597.93
eigval :     1613.01  2945.29  2960.53  2963.87  2965.35  2972.28
eigval :     2975.27  2976.38  2981.94  2982.14  2987.16  2987.76
eigval :     2991.81  3029.98  3030.20  3033.06  3035.24  3038.30
eigval :     3042.14  3071.95  3076.40  3078.83  3082.46  3083.06
eigval :     3084.45  3089.20  3091.51  3092.92  3093.95  3096.25
eigval :     3098.48  3117.56  3117.88

   temp. (K)  partition function   enthalpy   heat capacity  entropy
                                   cal/mol     cal/K/mol   cal/K/mol   J/K/mol
 298.15  VIB  0.110E+19            21615.482    128.252    137.567
         ROT  0.633E+08              888.752      2.981     38.678
         INT  0.699E+26            22504.234    131.233    176.246
         TR   0.130E+29             1481.254      4.968     44.863
         TOT                       23985.4878   136.2014   221.1089   925.1198

       T/K    H(0)-H(T)+PV         H(T)/Eh          T*S/Eh         G(T)/Eh
   ------------------------------------------------------------------------
    298.15    0.382233E-01    0.596000E+00    0.105056E+00    0.490944E+00
   ------------------------------------------------------------------------

         :::::::::::::::::::::::::::::::::::::::::::::::::::::
         ::                  THERMODYNAMIC                  ::
         :::::::::::::::::::::::::::::::::::::::::::::::::::::
         :: total free energy        -104.670767250373 Eh   ::
         ::.................................................::
         :: total energy             -105.161711706379 Eh   ::
         :: zero point energy           0.557777135744 Eh   ::
         :: G(RRHO) w/o ZPVE           -0.066832679738 Eh   ::
         :: G(RRHO) contrib.            0.490944456006 Eh   ::
         :::::::::::::::::::::::::::::::::::::::::::::::::::::

           -------------------------------------------------
          | TOTAL ENERGY             -105.161711706379 Eh   |
          | TOTAL ENTHALPY           -104.565711262751 Eh   |
          | TOTAL FREE ENERGY        -104.670767250373 Eh   |
          | GRADIENT NORM               0.000141358621 Eh/α |
           -------------------------------------------------

 * finished run on 2025/09/09 at 16:04:59.606
