   * xtb version 6.7.1 (edcfbbe) compiled by 'albert@albert-system' on 2024-07-22

   ID    Z sym.   atoms
    1    8 O      1
    2    6 C      2-6, 8-38, 40-66
    3    7 N      7, 39
    4    1 H      67-106

          program call               : xtb data2507/toluene/SFAC-BP-SFAC/SFAC-BP-SFAC_toluene_S0_crest.xyz --gfn 2 --gbsa toluene --ohess vtight --parallel 40 --molden --ceasefiles --namespace data2507/toluene/SFAC-BP-SFAC/SFAC-BP-SFAC_toluene_S0_finalOpt
      * Solvation model:               GBSA
        Solvent                        toluene
        Solvent mass                       9.2140E+01 g/mol
          :  Hamiltonian                  GFN2-xTB          :
 * total energy  :  -165.3496089 Eh     change       -0.1614353E-08 Eh
 * total energy  :  -165.3496957 Eh     change       -0.8679197E-04 Eh
 * total energy  :  -165.3497233 Eh     change       -0.2758546E-04 Eh
 * total energy  :  -165.3497374 Eh     change       -0.1404465E-04 Eh
 * total energy  :  -165.3497486 Eh     change       -0.1122742E-04 Eh
 * total energy  :  -165.3497618 Eh     change       -0.1320699E-04 Eh
 * total energy  :  -165.3497663 Eh     change       -0.4523655E-05 Eh
 * total energy  :  -165.3497757 Eh     change       -0.9338139E-05 Eh
 * total energy  :  -165.3497810 Eh     change       -0.5339625E-05 Eh
 * total energy  :  -165.3497865 Eh     change       -0.5557909E-05 Eh
 * total energy  :  -165.3500204 Eh     change       -0.3995211E-06 Eh
 * total energy  :  -165.3500207 Eh     change       -0.3439021E-06 Eh
 * total energy  :  -165.3500210 Eh     change       -0.3030981E-06 Eh
 * total energy  :  -165.3500214 Eh     change       -0.3435020E-06 Eh
 * total energy  :  -165.3500218 Eh     change       -0.4125900E-06 Eh
 * total energy  :  -165.3500223 Eh     change       -0.5432509E-06 Eh
 * total energy  :  -165.3500225 Eh     change       -0.1740736E-06 Eh
 * total energy  :  -165.3500229 Eh     change       -0.3681288E-06 Eh
 * total energy  :  -165.3500230 Eh     change       -0.7208678E-07 Eh
   *** GEOMETRY OPTIMIZATION CONVERGED AFTER 96 ITERATIONS ***

 final structure:
================
106
 xtb: 6.7.1 (edcfbbe)
O            0.00970990799116        4.81050745880875       -0.21660061352033
C            0.00123493821028        3.59092980989369       -0.14072862550347
C           -1.26994562758480        2.83071200340612       -0.08884636019168
C           -1.39633913904887        1.56391073919207       -0.65951705881012
C           -2.60872175348939        0.90400051929482       -0.62501901660811
C           -3.71174856396759        1.49341113354018       -0.01246492005639
N           -4.95025225139311        0.80621574098411        0.03028573408665
C           -5.07975571588467       -0.30108789125215        0.86080098146665
C           -4.02142667926331       -0.69526249464435        1.68485639062390
C           -4.13540835443946       -1.79554924243897        2.51024045352907
C           -5.31252123269748       -2.52354750167861        2.54379657557261
C           -6.37338088313297       -2.12297783638311        1.75336893433980
C           -6.27656545784618       -1.02005759525489        0.91710779406986
C           -7.48363869056932       -0.62637512743816        0.10086829696643
C           -8.70306494303542       -0.46936923634397        0.98966073149577
C           -8.89882748522022        0.42500198755267        2.01903755779002
C          -10.10531554927769        0.39263397859542        2.70641400339873
C          -11.09224068845322       -0.51985279581530        2.36482654518873
C          -10.89953623020157       -1.42207109527088        1.33019026835245
C           -9.69776888558340       -1.39453194224475        0.64149345436198
C           -9.21042457074270       -2.20158368714827       -0.46778851904575
C           -9.80153591673393       -3.24032429887200       -1.16845503880604
C           -9.08853423351519       -3.83789600753545       -2.19609593860348
C           -7.81016908481574       -3.40809045594961       -2.51902333859968
C           -7.21311835259647       -2.36660618907982       -1.82050688072687
C           -7.91789558906497       -1.77010882961074       -0.79816275003665
C           -7.24938433056490        0.62137084317159       -0.71648558161377
C           -8.29249187117250        1.11163766958323       -1.48887851585124
C           -8.13237782738079        2.22377333863611       -2.29393433949097
C           -6.89699319003407        2.84677626728492       -2.34315341565829
C           -5.84826434420525        2.37409864138287       -1.58046919973094
C           -6.01139380241885        1.26930389210167       -0.73942927976424
C           -3.59291054245924        2.76196319934854        0.55046140104115
C           -2.38536353348877        3.42706982484601        0.50014537477025
C            1.26108849574523        2.81204924770602       -0.09757788765487
C            1.37165782581374        1.62579112601282        0.62843076446173
C            2.57290468689419        0.94620621615977        0.67104547061541
C            3.68016413709355        1.43335830113997       -0.01933853428063
N            4.90870480396679        0.72869650301372        0.00986544208716
C            5.01367664386124       -0.48705255926978       -0.65705268454236
C            3.91873255784675       -1.01641386927991       -1.34644165989930
C            4.00963332634035       -2.22691888275599       -2.00323683628342
C            5.19840805108328       -2.93619639296549       -1.99794683601905
C            6.29491167456385       -2.40425439543932       -1.34575543368550
C            6.22238730701767       -1.18830083489518       -0.68128970108472
C            7.47513644730283       -0.64485127787638       -0.03767630829946
C            8.56951232506615       -0.47583847279457       -1.07653718042662
C            8.57390395590450        0.34015333177731       -2.18641010202100
C            9.69359093771936        0.33746668888674       -3.00819359599930
C           10.78402029668711       -0.46894545680457       -2.71861643415837
C           10.78371929622598       -1.29212455205879       -1.60336128577776
C            9.66942340064714       -1.29330410342148       -0.78019943561990
C            9.37900499079421       -2.03525337288176        0.43817423948868
C           10.13054283217110       -2.96226958539738        1.14180896303105
C            9.59135299932539       -3.51843361694812        2.29138134128320
C            8.32669310927840       -3.15695244699463        2.73115603851412
C            7.56923469293589       -2.22745224087309        2.03002141313431
C            8.10116017310540       -1.67168877320557        0.88714290743684
C            7.23474872762246        0.65395978733713        0.69339480563460
C            8.29021111618644        1.23114812898462        1.38487776948771
C            8.13095103201680        2.40923482175099        2.09014463354986
C            6.88504240723488        3.01224950051574        2.12159091593686
C            5.82367238848035        2.45224975117409        1.43992824492543
C            5.98504198179184        1.27886030739483        0.69706757819326
C            3.57802717672083        2.62468824804910       -0.73423416490594
C            2.38228869663656        3.31176433691194       -0.76095118946583
H           -0.55318106858037        1.10958979180460       -1.15707992162949
H           -2.71165081895196       -0.07356388249516       -1.07212273270510
H           -3.10293725606495       -0.12929946649762        1.68346703596345
H           -3.30036415694856       -2.08048493970701        3.13326654388547
H           -5.40760936960555       -3.38701951735692        3.18435590988865
H           -7.30376311988704       -2.67189892673710        1.78220276850701
H           -8.13061171631514        1.13606258941317        2.28746368681466
H          -10.27671270278312        1.08627722675544        3.51683581541549
H          -12.02335797486319       -0.52717357832289        2.91321541461783
H          -11.67145086969271       -2.13074874186550        1.06822725227628
H          -10.79701204913918       -3.57873191391438       -0.92109155847303
H           -9.53398086243956       -4.64958122232009       -2.75334728588388
H           -7.27253569265512       -3.88854135980027       -3.32366132377511
H           -6.21762385078123       -2.03191153676121       -2.07483373596223
H           -9.24543399577136        0.60314423188961       -1.45692178995592
H           -8.95749542239811        2.59083558966720       -2.88497594077024
H           -6.74346722953831        3.70479324899793       -2.98104006275876
H           -4.88889254260859        2.86391965946633       -1.64360013779530
H           -4.45197711243139        3.21861114870317        1.01895705889603
H           -2.28059237549868        4.41318412905058        0.92814734686375
H            0.52524495770798        1.25290731875667        1.18478074876944
H            2.66387959616324        0.03317427993977        1.24049737662430
H            2.98901498456489       -0.47021631372850       -1.37552819105216
H            3.14636159883756       -2.61345888504703       -2.52468954058554
H            5.27545651912395       -3.88535594175254       -2.50590829055923
H            7.23532793105054       -2.93642899242469       -1.35221716084318
H            7.72511350322709        0.96868689586577       -2.41484936997070
H            9.71519062266827        0.97077439734194       -3.88326197844411
H           11.64501037575828       -0.45485701945347       -3.37152656280981
H           11.63547383565787       -1.91855903709724       -1.38249735515288
H           11.11611723844559       -3.24676939381844        0.80355805931004
H           10.16398448690581       -4.24258118946635        2.85308529488954
H            7.92624040613791       -3.60312232942398        3.62998763503741
H            6.58488258582211       -1.94569223697238        2.37552435275599
H            9.25292772914562        0.74068353925778        1.36659762302117
H            8.96605726155305        2.84468391338371        2.61729238999047
H            6.73333034550852        3.92251315419117        2.68285656438806
H            4.85633073742842        2.92808776392623        1.48796377048910
H            4.44149086747723        3.00516397893216       -1.25924108468002
H            2.29054733540718        4.23825588143481       -1.30843829216206

          :  Hamiltonian                  GFN2-xTB          :
         :: gradient norm              0.000071847303 Eh/a0 ::
         :: HOMO-LUMO gap              1.445758580859 eV    ::
         :: SCC energy              -168.447996145718 Eh    ::
         :: -> dispersion             -0.165315371477 Eh    ::
         :: -> Gsolv                  -0.067589252394 Eh    ::
         :: repulsion energy           3.097973189741 Eh    ::

    * Orbital Energies and Occupations

         #    Occupation            Energy/Eh            Energy/eV
      -------------------------------------------------------------
         1        2.0000           -0.7147689             -19.4499
       ...           ...                  ...                  ...
       142        2.0000           -0.4081664             -11.1068
       143        2.0000           -0.4080839             -11.1045
       144        2.0000           -0.4007458             -10.9048
       145        2.0000           -0.3983205             -10.8389
       146        2.0000           -0.3982690             -10.8375
       147        2.0000           -0.3960926             -10.7782
       148        2.0000           -0.3960313             -10.7766
       149        2.0000           -0.3937486             -10.7144
       150        2.0000           -0.3937057             -10.7133
       151        2.0000           -0.3795398             -10.3278
       152        2.0000           -0.3795078             -10.3269
       153        2.0000           -0.3517441              -9.5714
       154        2.0000           -0.3514795              -9.5642 (HOMO)
       155                         -0.2983489              -8.1185 (LUMO)
       156                         -0.2520535              -6.8587
       157                         -0.2520159              -6.8577
       158                         -0.2502967              -6.8109
       159                         -0.2458803              -6.6907
       160                         -0.2430007              -6.6124
       161                         -0.2326801              -6.3315
       162                         -0.2326095              -6.3296
       163                         -0.2252314              -6.1289
       164                         -0.2251870              -6.1276
       165                         -0.2247471              -6.1157
       ...                                ...                  ...
       304                          0.7279321              19.8080
      -------------------------------------------------------------
                  HL-Gap            0.0531306 Eh            1.4458 eV

     #   Z          covCN         q      C6AA      α(0)
     1   8 O        0.858    -0.415    21.988     6.287
     2   6 C        2.829     0.228    23.217     7.896
     3   6 C        2.972    -0.014    28.359     8.735
     4   6 C        2.920    -0.025    28.621     8.773
     5   6 C        2.920    -0.036    28.900     8.816
     6   6 C        2.926     0.076    26.311     8.412
     7   7 N        2.752    -0.066    22.526     7.049
     8   6 C        2.924     0.058    26.691     8.472
     9   6 C        2.924    -0.058    29.453     8.900
    10   6 C        2.920    -0.033    28.823     8.804
    11   6 C        2.917    -0.043    29.069     8.841
    12   6 C        2.926    -0.035    28.879     8.813
    13   6 C        2.983    -0.007    28.191     8.709
    14   6 C        3.949     0.012    20.301     6.402
    15   6 C        3.057     0.002    27.932     8.667
    16   6 C        2.914    -0.034    28.834     8.805
    17   6 C        2.922    -0.033    28.816     8.803
    18   6 C        2.921    -0.033    28.833     8.806
    19   6 C        2.914    -0.035    28.879     8.812
    20   6 C        3.034     0.000    27.989     8.678
    21   6 C        3.034     0.000    27.988     8.677
    22   6 C        2.914    -0.035    28.876     8.812
    23   6 C        2.921    -0.033    28.833     8.806
    24   6 C        2.922    -0.033    28.818     8.803
    25   6 C        2.914    -0.034    28.841     8.806
    26   6 C        3.057     0.002    27.932     8.667
    27   6 C        2.983    -0.007    28.193     8.710
    28   6 C        2.926    -0.036    28.884     8.814
    29   6 C        2.917    -0.043    29.069     8.841
    30   6 C        2.920    -0.033    28.821     8.804
    31   6 C        2.924    -0.058    29.448     8.899
    32   6 C        2.924     0.059    26.688     8.472
    33   6 C        2.919    -0.036    28.885     8.813
    34   6 C        2.924    -0.016    28.406     8.740
    35   6 C        2.972    -0.014    28.362     8.736
    36   6 C        2.920    -0.025    28.624     8.774
    37   6 C        2.920    -0.036    28.907     8.817
    38   6 C        2.926     0.075    26.314     8.412
    39   7 N        2.752    -0.066    22.520     7.048
    40   6 C        2.923     0.058    26.692     8.472
    41   6 C        2.924    -0.059    29.460     8.901
    42   6 C        2.920    -0.033    28.824     8.804
    43   6 C        2.917    -0.043    29.069     8.841
    44   6 C        2.926    -0.035    28.880     8.813
    45   6 C        2.983    -0.007    28.191     8.709
    46   6 C        3.949     0.012    20.301     6.402
    47   6 C        3.058     0.002    27.932     8.667
    48   6 C        2.914    -0.034    28.841     8.806
    49   6 C        2.922    -0.033    28.818     8.803
    50   6 C        2.921    -0.033    28.833     8.806
    51   6 C        2.914    -0.035    28.876     8.812
    52   6 C        3.033     0.000    27.988     8.678
    53   6 C        3.034     0.000    27.989     8.678
    54   6 C        2.914    -0.035    28.880     8.812
    55   6 C        2.921    -0.033    28.833     8.805
    56   6 C        2.922    -0.033    28.816     8.803
    57   6 C        2.914    -0.033    28.834     8.805
    58   6 C        3.057     0.002    27.932     8.667
    59   6 C        2.983    -0.007    28.189     8.709
    60   6 C        2.926    -0.035    28.883     8.814
    61   6 C        2.917    -0.043    29.064     8.841
    62   6 C        2.920    -0.033    28.820     8.804
    63   6 C        2.924    -0.058    29.438     8.898
    64   6 C        2.925     0.058    26.690     8.472
    65   6 C        2.919    -0.036    28.885     8.813
    66   6 C        2.923    -0.016    28.406     8.740
    67   1 H        0.926     0.054     2.272     2.357
    68   1 H        0.926     0.055     2.253     2.347
    69   1 H        0.926     0.031     2.579     2.511
    70   1 H        0.926     0.033     2.541     2.493
    71   1 H        0.926     0.030     2.591     2.517
    72   1 H        0.926     0.027     2.624     2.533
    73   1 H        0.926     0.026     2.650     2.546
    74   1 H        0.926     0.032     2.563     2.503
    75   1 H        0.926     0.032     2.560     2.502
    76   1 H        0.926     0.032     2.553     2.499
    77   1 H        0.926     0.032     2.552     2.498
    78   1 H        0.926     0.032     2.559     2.501
    79   1 H        0.926     0.032     2.559     2.502
    80   1 H        0.926     0.026     2.646     2.544
    81   1 H        0.926     0.028     2.620     2.531
    82   1 H        0.926     0.029     2.594     2.519
    83   1 H        0.926     0.032     2.557     2.501
    84   1 H        0.926     0.030     2.584     2.514
    85   1 H        0.926     0.053     2.277     2.360
    86   1 H        0.926     0.055     2.261     2.352
    87   1 H        0.926     0.054     2.274     2.358
    88   1 H        0.926     0.056     2.246     2.344
    89   1 H        0.926     0.031     2.567     2.505
    90   1 H        0.926     0.033     2.541     2.493
    91   1 H        0.926     0.030     2.592     2.518
    92   1 H        0.926     0.027     2.623     2.533
    93   1 H        0.926     0.025     2.653     2.547
    94   1 H        0.926     0.032     2.561     2.503
    95   1 H        0.926     0.032     2.559     2.501
    96   1 H        0.926     0.033     2.550     2.497
    97   1 H        0.926     0.032     2.554     2.499
    98   1 H        0.926     0.032     2.560     2.502
    99   1 H        0.926     0.032     2.560     2.502
   100   1 H        0.926     0.026     2.643     2.542
   101   1 H        0.926     0.028     2.618     2.530
   102   1 H        0.926     0.030     2.591     2.517
   103   1 H        0.926     0.032     2.555     2.500
   104   1 H        0.926     0.030     2.588     2.516
   105   1 H        0.926     0.053     2.285     2.364
   106   1 H        0.926     0.055     2.263     2.353

molecular dipole:
                 x           y           z       tot (Debye)
 q only:        0.009      -1.136       0.081
   full:        0.009      -1.178       0.079       3.001

 projected vibrational frequencies (cm⁻¹)
eigval :       -0.00    -0.00    -0.00     0.00     0.00     0.00
eigval :        4.65     5.04     7.99    10.60    11.69    28.87
eigval :       32.63    35.73    42.56    43.84    45.16    49.89
eigval :       52.70    53.01    69.77    71.30    79.01    86.10
eigval :       87.54   112.69   114.23   115.99   117.23   139.30
eigval :      141.44   141.98   153.08   154.30   164.82   184.30
eigval :      190.48   202.57   236.88   239.08   239.31   241.96
eigval :      246.36   247.44   262.24   267.59   284.65   293.12
eigval :      294.87   296.34   326.32   348.25   371.51   378.72
eigval :      384.95   387.05   389.15   390.78   395.86   397.34
eigval :      402.14   402.78   412.90   413.80   425.71   427.15
eigval :      435.85   436.43   441.50   448.73   462.30   463.42
eigval :      463.94   467.05   497.99   499.90   502.09   502.86
eigval :      506.16   507.84   513.11   513.42   540.20   541.50
eigval :      556.30   587.36   587.41   587.56   594.86   600.77
eigval :      602.24   602.75   603.27   605.06   608.45   610.08
eigval :      619.54   635.83   659.11   659.14   674.02   674.74
eigval :      676.74   684.47   685.32   685.63   690.54   695.26
eigval :      708.21   724.63   730.42   730.93   737.15   751.89
eigval :      753.84   761.60   768.81   769.22   771.57   771.86
eigval :      777.11   777.20   786.06   786.80   821.62   826.87
eigval :      866.61   867.23   867.71   868.29   871.05   875.78
eigval :      876.56   876.84   877.95   878.59   890.34   891.55
eigval :      891.57   898.57   898.70   908.60   909.38   909.71
eigval :      910.05   910.71   910.76   913.87   914.22   918.06
eigval :      919.40   919.69   919.80   920.42   921.02   922.07
eigval :      922.64   925.78   927.70   928.62   929.06   929.28
eigval :      930.96   934.05   948.52   948.60   956.26  1005.03
eigval :     1005.06  1013.01  1027.17  1072.94  1073.17  1077.67
eigval :     1078.19  1086.95  1087.26  1108.18  1108.22  1109.92
eigval :     1109.97  1124.33  1125.35  1128.27  1129.21  1139.81
eigval :     1140.41  1140.80  1142.08  1172.31  1175.39  1175.59
eigval :     1176.92  1177.16  1177.49  1180.70  1182.28  1183.61
eigval :     1183.94  1184.76  1187.34  1188.11  1201.39  1202.60
eigval :     1203.46  1209.33  1230.10  1232.46  1235.91  1235.98
eigval :     1243.07  1245.07  1256.85  1257.81  1258.81  1259.54
eigval :     1261.74  1267.66  1268.20  1273.36  1274.15  1283.07
eigval :     1283.19  1309.44  1312.64  1314.26  1314.87  1324.67
eigval :     1324.73  1324.87  1325.00  1330.96  1331.52  1332.35
eigval :     1332.75  1365.36  1365.37  1398.88  1400.54  1427.70
eigval :     1427.96  1428.32  1428.63  1433.77  1434.34  1435.73
eigval :     1436.51  1459.62  1460.08  1469.35  1469.91  1470.24
eigval :     1471.02  1477.91  1478.32  1491.85  1492.28  1553.87
eigval :     1555.30  1572.44  1572.73  1576.29  1577.11  1584.71
eigval :     1584.74  1586.64  1587.00  1587.62  1587.93  1595.00
eigval :     1595.05  1599.33  1599.41  1601.87  1601.89  1603.28
eigval :     1603.53  1650.30  3067.77  3068.10  3068.50  3068.64
eigval :     3071.53  3071.66  3072.25  3072.26  3075.28  3075.49
eigval :     3075.67  3076.17  3077.84  3077.85  3078.23  3078.43
eigval :     3078.64  3078.86  3079.77  3079.85  3084.99  3085.41
eigval :     3086.39  3086.77  3087.00  3087.48  3088.96  3089.07
eigval :     3091.56  3092.15  3092.57  3092.81  3095.14  3095.74
eigval :     3097.35  3098.60  3100.41  3100.63  3102.15  3104.01

   temp. (K)  partition function   enthalpy   heat capacity  entropy
                                   cal/mol     cal/K/mol   cal/K/mol   J/K/mol
 298.15  VIB  0.112E+26            30275.065    192.258    190.954
         ROT  0.259E+09              888.752      2.981     41.480
         INT  0.289E+34            31163.817    195.238    232.434
         TR   0.236E+29             1481.254      4.968     46.044
         TOT                       32645.0710   200.2066   278.4785  1165.1542

       T/K    H(0)-H(T)+PV         H(T)/Eh          T*S/Eh         G(T)/Eh
   ------------------------------------------------------------------------
    298.15    0.520232E-01    0.865192E+00    0.132314E+00    0.732878E+00
   ------------------------------------------------------------------------

         :::::::::::::::::::::::::::::::::::::::::::::::::::::
         ::                  THERMODYNAMIC                  ::
         :::::::::::::::::::::::::::::::::::::::::::::::::::::
         :: total free energy        -164.617144797724 Eh   ::
         ::.................................................::
         :: total energy             -165.350022955056 Eh   ::
         :: zero point energy           0.813169068389 Eh   ::
         :: G(RRHO) w/o ZPVE           -0.080290911057 Eh   ::
         :: G(RRHO) contrib.            0.732878157332 Eh   ::
         :::::::::::::::::::::::::::::::::::::::::::::::::::::

           -------------------------------------------------
          | TOTAL ENERGY             -165.350022955056 Eh   |
          | TOTAL ENTHALPY           -164.484830654564 Eh   |
          | TOTAL FREE ENERGY        -164.617144797724 Eh   |
          | GRADIENT NORM               0.000071892276 Eh/α |
          | HOMO-LUMO GAP               1.445756591745 eV   |
           -------------------------------------------------

 * finished run on 2025/07/18 at 21:11:04.326
