   * xtb version 6.7.1 (edcfbbe) compiled by 'albert@albert-system' on 2024-07-22

   ID    Z sym.   atoms
    1    8 O      1
    2    6 C      2-6, 8-38, 40-66
    3    7 N      7, 39
    4    1 H      67-106

          program call               : xtb data2507/toluene/SFAC-BP-SFAC/SFAC-BP-SFAC_toluene_T1_crest.xyz --gfn 2 --uhf 2 --gbsa toluene --ohess vtight --parallel 40 --molden --ceasefiles --namespace data2507/toluene/SFAC-BP-SFAC/SFAC-BP-SFAC_toluene_T1_finalOpt
      * Solvation model:               GBSA
        Solvent                        toluene
        Solvent mass                       9.2140E+01 g/mol
          :  Hamiltonian                  GFN2-xTB          :
 * total energy  :  -165.2768173 Eh     change       -0.2386969E-08 Eh
 * total energy  :  -165.2769600 Eh     change       -0.1426834E-03 Eh
 * total energy  :  -165.2770025 Eh     change       -0.4244927E-04 Eh
 * total energy  :  -165.2770175 Eh     change       -0.1503151E-04 Eh
 * total energy  :  -165.2770271 Eh     change       -0.9579059E-05 Eh
 * total energy  :  -165.2770358 Eh     change       -0.8734229E-05 Eh
 * total energy  :  -165.2770380 Eh     change       -0.2232274E-05 Eh
 * total energy  :  -165.2770404 Eh     change       -0.2329737E-05 Eh
 * total energy  :  -165.2770415 Eh     change       -0.1147614E-05 Eh
 * total energy  :  -165.2770429 Eh     change       -0.1381612E-05 Eh
 * total energy  :  -165.2771021 Eh     change       -0.2022634E-06 Eh
 * total energy  :  -165.2771023 Eh     change       -0.1907340E-06 Eh
 * total energy  :  -165.2771025 Eh     change       -0.1921373E-06 Eh
 * total energy  :  -165.2771027 Eh     change       -0.1994528E-06 Eh
 * total energy  :  -165.2771030 Eh     change       -0.2465027E-06 Eh
 * total energy  :  -165.2771033 Eh     change       -0.3538035E-06 Eh
 * total energy  :  -165.2771038 Eh     change       -0.4627587E-06 Eh
 * total energy  :  -165.2771043 Eh     change       -0.5206620E-06 Eh
 * total energy  :  -165.2771043 Eh     change       -0.8980408E-09 Eh
   *** GEOMETRY OPTIMIZATION CONVERGED AFTER 68 ITERATIONS ***

 final structure:
================
106
 xtb: 6.7.1 (edcfbbe)
O           -0.01420936363866        4.59403759208269        0.22900835223947
C           -0.01271667501204        3.31962116997100        0.17685432515470
C           -1.27176672435834        2.60052578886167        0.15622925257507
C           -1.43333182239520        1.32800840095734       -0.42576226794204
C           -2.66446614982996        0.71756094646820       -0.45965256720748
C           -3.78483683312913        1.35678201085174        0.07423910862128
N           -5.05479031095136        0.71089378387469        0.04385383962682
C           -5.33847151093638       -0.25074436302659        0.99209876682173
C           -4.39453377941357       -0.56302975495894        1.98088806149136
C           -4.66138334438170       -1.52406815949700        2.93069951967246
C           -5.87600666321258       -2.19628076924634        2.92314823591586
C           -6.81853021619035       -1.88585754553031        1.96064328731240
C           -6.57075342848519       -0.92056164882877        0.99544870548141
C           -7.63965300553213       -0.61333821905624       -0.01933515041354
C           -8.94748656294332       -0.26267972363317        0.67211820294703
C           -9.20661778731755        0.79826648663699        1.51116267127977
C          -10.48502126691055        0.92666992813876        2.03962096745750
C          -11.47700570685151        0.00873673203600        1.72889188874551
C          -11.21902506178544       -1.06001389967112        0.88461903541160
C           -9.94576316609145       -1.19455286429066        0.35531301287017
C           -9.38046644020943       -2.19310124948471       -0.54044690421532
C           -9.94433719476198       -3.31147677528954       -1.13280492104429
C           -9.15227605032292       -4.09723544521335       -1.95544861480844
C           -7.82330961419463       -3.77426753618928       -2.18466418799289
C           -7.25163048425156       -2.65473884901152       -1.59319604315225
C           -8.03592830927969       -1.87323958998203       -0.77422083091866
C           -7.23485689226170        0.47034507398182       -0.98276931453543
C           -8.13391972211561        0.86899637318101       -1.96119879609814
C           -7.80281742879227        1.84155649645893       -2.88627600216187
C           -6.54322882718920        2.42365937459324       -2.84322903025639
C           -5.63606734436723        2.04439553879092       -1.87872783350062
C           -5.96886954538734        1.07194888551526       -0.92475584355067
C           -3.65473001864033        2.63777671426508        0.61637991087996
C           -2.42698523049412        3.24865967821836        0.64416395317191
C            1.24919731747469        2.60553732897375        0.13591153704873
C            1.41863702107740        1.29406556453560        0.62099371040844
C            2.65081994577425        0.68516227252487        0.59651950902454
C            3.76446302328514        1.36428698628858        0.09867890712135
N            5.03580270635421        0.72195624939742        0.06375543704127
C            5.30033895372803       -0.18484922926604       -0.94272649109394
C            4.33104437584252       -0.45504217403258       -1.91934936567586
C            4.57718291507215       -1.36511495541926       -2.92345011887866
C            5.79668242770405       -2.02558672395718       -2.98504977671453
C            6.76546800073574       -1.75271265812769       -2.03742968143392
C            6.53846088277234       -0.83955921908275       -1.01788333631676
C            7.63967458084269       -0.56361517719555       -0.02905733062110
C            8.90304946618191       -0.12399287868804       -0.75272333134894
C            9.08951747231345        0.99619454138218       -1.53187998486345
C           10.33772519337803        1.20233215898449       -2.10596158618277
C           11.37187644600729        0.30204915789580       -1.89832109073069
C           11.18712980240034       -0.82592634072302       -1.11403510289507
C            9.94414911372113       -1.03830619607303       -0.54015155586493
C            9.45295409410361       -2.10995387419743        0.31378818750475
C           10.08032704656119       -3.24113689837210        0.81015334733703
C            9.35373369660725       -4.10266831524238        1.61718335275061
C            8.02680483050989       -3.84191403023177        1.92414104006051
C            7.39141461009611       -2.71026723622583        1.42845114363063
C            8.11068126746145       -1.85298952507687        0.62568505552043
C            7.24521848485002        0.44523913069036        1.01636731170245
C            8.16524826398874        0.79165865501077        1.99519681714501
C            7.84757248252682        1.69787316188057        2.98969793703301
C            6.58048952930702        2.26446570814568        3.01704736527048
C            5.65258865165743        1.93638629013610        2.05347106918005
C            5.97123029391233        1.03228050817043        1.02989139709680
C            3.62686634174198        2.68241552329687       -0.34351363752364
C            2.39833514776723        3.29152944855716       -0.31235168616120
H           -0.58912119864183        0.84149602463037       -0.89015262111726
H           -2.77860386198035       -0.25670763709644       -0.91383118149341
H           -3.45290313376837       -0.03706688172714        1.99533227530608
H           -3.91982781663615       -1.74897057904150        3.68234786328455
H           -6.08737411826014       -2.95065634060273        3.66508425247209
H           -7.76967167342923       -2.39733762574791        1.95235536637597
H           -8.43544036766212        1.51467867984789        1.75518819105614
H          -10.70774717926092        1.75126763020626        2.70080781422829
H          -12.46414372106346        0.12904309242982        2.15126645720675
H          -11.99496250067293       -1.77209137168695        0.64614908327837
H          -10.97875848424894       -3.56713605831887       -0.95796764385613
H           -9.57523151245669       -4.97357437889864       -2.42491693107389
H           -7.22476326291476       -4.39994620470053       -2.83044457518751
H           -6.21615386195423       -2.40460609039535       -1.77364739178981
H           -9.10750514439593        0.40263125008713       -1.99412185740450
H           -8.51651585174930        2.13932383191429       -3.63869382124528
H           -6.26634760186995        3.17605136960633       -3.56619429572001
H           -4.65687848303986        2.49634532570840       -1.85298312219490
H           -4.52684131403409        3.13775427113281        1.01313975634444
H           -2.30867797095679        4.24170259483944        1.05358828144572
H            0.57971994257263        0.77372130430145        1.05754955106857
H            2.77107450237009       -0.31967126595401        0.97642565101361
H            3.38550464433833        0.06253985595584       -1.88096807165809
H            3.81554153695387       -1.55861969522935       -3.66371400776584
H            5.99189200054591       -2.74060002185748       -3.76921815090293
H            7.72164952784680       -2.25263857793309       -2.08408044931408
H            8.28572826493646        1.69957614637983       -1.69505642514128
H           10.50351528230141        2.07469501416935       -2.72100637030434
H           12.33444577850056        0.48312790541884       -2.35439783768375
H           11.99594838041595       -1.52341856348213       -0.95504487860409
H           11.11348507962331       -3.44838818985218        0.57450064897711
H            9.82685519073894       -4.98950311116966        2.01338066196171
H            7.47990221594562       -4.52635732716992        2.55589000181455
H            6.35764117293216       -2.50924076515450        1.66962182340460
H            9.14491439539704        0.33752636298203        1.97217357843706
H            8.57749967273902        1.95594423901694        3.74120115708157
H            6.31399134378990        2.96435001874564        3.79461064797488
H            4.66764511204406        2.37541431911383        2.08307730988364
H            4.49389740230172        3.21266037887555       -0.71099903036858
H            2.27483977276841        4.31247263844132       -0.64423708201433

          :  Hamiltonian                  GFN2-xTB          :
         :: gradient norm              0.000076543799 Eh/a0 ::
         :: HOMO-LUMO gap              0.495599910165 eV    ::
         :: SCC energy              -168.360780602367 Eh    ::
         :: -> dispersion             -0.164789327342 Eh    ::
         :: -> Gsolv                  -0.078577212219 Eh    ::
         :: repulsion energy           3.083676277308 Eh    ::

    * Orbital Energies and Occupations

         #    Occupation            Energy/Eh            Energy/eV
      -------------------------------------------------------------
         1        2.0000           -0.6839032             -18.6100
       ...           ...                  ...                  ...
       143        2.0000           -0.4040840             -10.9957
       144        2.0000           -0.4035853             -10.9821
       145        2.0000           -0.4032929             -10.9742
       146        2.0000           -0.4027847             -10.9603
       147        2.0000           -0.4026435             -10.9565
       148        2.0000           -0.3955010             -10.7621
       149        2.0000           -0.3941896             -10.7264
       150        2.0000           -0.3847054             -10.4684
       151        2.0000           -0.3847051             -10.4684
       152        1.9397           -0.3633617              -9.8876
       153        1.6492           -0.3613379              -9.8325
       154        1.4111           -0.3604116              -9.8073
       155        0.9999           -0.2750059              -7.4833 (HOMO)
       156        0.0000           -0.2567929              -6.9877 (LUMO)
       157        0.0000           -0.2567922              -6.9877
       158                         -0.2438658              -6.6359
       159                         -0.2438410              -6.6353
       160                         -0.2346330              -6.3847
       161                         -0.2344976              -6.3810
       162                         -0.2332627              -6.3474
       163                         -0.2332246              -6.3464
       164                         -0.2302376              -6.2651
       165                         -0.2301255              -6.2620
       166                         -0.2298104              -6.2535
       ...                                ...                  ...
       304                          0.7235410              19.6886
      -------------------------------------------------------------
                  HL-Gap            0.0182130 Eh            0.4956 eV

     #   Z          covCN         q      C6AA      α(0)
     1   8 O        0.858    -0.538    24.637     6.655
     2   6 C        2.834     0.160    24.541     8.118
     3   6 C        2.967    -0.021    28.523     8.760
     4   6 C        2.919    -0.045    29.105     8.847
     5   6 C        2.916    -0.042    29.052     8.839
     6   6 C        2.928     0.037    27.173     8.549
     7   7 N        2.753    -0.025    21.722     6.922
     8   6 C        2.927     0.062    26.602     8.458
     9   6 C        2.922    -0.048    29.186     8.859
    10   6 C        2.918    -0.028    28.693     8.784
    11   6 C        2.917    -0.032    28.807     8.801
    12   6 C        2.924    -0.032    28.807     8.802
    13   6 C        2.982     0.001    27.991     8.679
    14   6 C        3.948     0.014    20.281     6.399
    15   6 C        3.056     0.003    27.905     8.663
    16   6 C        2.914    -0.032    28.809     8.801
    17   6 C        2.923    -0.031    28.773     8.797
    18   6 C        2.921    -0.032    28.786     8.798
    19   6 C        2.915    -0.034    28.837     8.806
    20   6 C        3.033     0.002    27.939     8.670
    21   6 C        3.033     0.003    27.936     8.669
    22   6 C        2.915    -0.033    28.834     8.805
    23   6 C        2.921    -0.032    28.786     8.798
    24   6 C        2.923    -0.031    28.775     8.797
    25   6 C        2.914    -0.033    28.814     8.802
    26   6 C        3.057     0.003    27.900     8.662
    27   6 C        2.982     0.001    27.993     8.679
    28   6 C        2.924    -0.032    28.808     8.802
    29   6 C        2.917    -0.032    28.803     8.801
    30   6 C        2.918    -0.028    28.690     8.784
    31   6 C        2.922    -0.047    29.178     8.858
    32   6 C        2.927     0.063    26.599     8.458
    33   6 C        2.914    -0.042    29.047     8.838
    34   6 C        2.924    -0.032    28.794     8.800
    35   6 C        2.967    -0.020    28.515     8.759
    36   6 C        2.919    -0.044    29.102     8.846
    37   6 C        2.916    -0.042    29.052     8.839
    38   6 C        2.928     0.037    27.169     8.548
    39   7 N        2.753    -0.024    21.720     6.922
    40   6 C        2.927     0.062    26.604     8.459
    41   6 C        2.922    -0.048    29.187     8.860
    42   6 C        2.918    -0.028    28.693     8.784
    43   6 C        2.917    -0.032    28.806     8.801
    44   6 C        2.924    -0.032    28.807     8.802
    45   6 C        2.982     0.001    27.991     8.678
    46   6 C        3.948     0.013    20.281     6.399
    47   6 C        3.057     0.003    27.904     8.663
    48   6 C        2.914    -0.033    28.811     8.802
    49   6 C        2.923    -0.031    28.774     8.797
    50   6 C        2.921    -0.031    28.786     8.798
    51   6 C        2.915    -0.034    28.836     8.806
    52   6 C        3.033     0.002    27.938     8.670
    53   6 C        3.033     0.003    27.937     8.670
    54   6 C        2.915    -0.034    28.835     8.806
    55   6 C        2.921    -0.032    28.786     8.798
    56   6 C        2.923    -0.031    28.775     8.797
    57   6 C        2.914    -0.033    28.812     8.802
    58   6 C        3.056     0.003    27.902     8.663
    59   6 C        2.982     0.001    27.992     8.679
    60   6 C        2.924    -0.032    28.808     8.802
    61   6 C        2.917    -0.032    28.802     8.801
    62   6 C        2.918    -0.028    28.690     8.784
    63   6 C        2.922    -0.047    29.177     8.858
    64   6 C        2.927     0.062    26.601     8.458
    65   6 C        2.914    -0.042    29.046     8.838
    66   6 C        2.924    -0.032    28.792     8.799
    67   1 H        0.926     0.034     2.536     2.490
    68   1 H        0.926     0.034     2.528     2.487
    69   1 H        0.926     0.043     2.413     2.429
    70   1 H        0.926     0.044     2.401     2.423
    71   1 H        0.926     0.044     2.401     2.423
    72   1 H        0.926     0.041     2.439     2.442
    73   1 H        0.926     0.027     2.625     2.534
    74   1 H        0.926     0.035     2.516     2.481
    75   1 H        0.926     0.036     2.503     2.474
    76   1 H        0.926     0.038     2.479     2.462
    77   1 H        0.926     0.038     2.479     2.462
    78   1 H        0.926     0.036     2.500     2.473
    79   1 H        0.926     0.036     2.509     2.477
    80   1 H        0.926     0.028     2.617     2.530
    81   1 H        0.926     0.041     2.435     2.440
    82   1 H        0.926     0.044     2.402     2.424
    83   1 H        0.926     0.043     2.412     2.429
    84   1 H        0.926     0.042     2.423     2.434
    85   1 H        0.926     0.032     2.564     2.504
    86   1 H        0.926     0.030     2.585     2.514
    87   1 H        0.926     0.034     2.534     2.490
    88   1 H        0.926     0.035     2.523     2.484
    89   1 H        0.926     0.043     2.412     2.429
    90   1 H        0.926     0.044     2.401     2.423
    91   1 H        0.926     0.044     2.401     2.423
    92   1 H        0.926     0.041     2.439     2.442
    93   1 H        0.926     0.027     2.627     2.535
    94   1 H        0.926     0.035     2.517     2.481
    95   1 H        0.926     0.036     2.502     2.474
    96   1 H        0.926     0.038     2.478     2.462
    97   1 H        0.926     0.038     2.481     2.463
    98   1 H        0.926     0.036     2.501     2.473
    99   1 H        0.926     0.036     2.509     2.477
   100   1 H        0.926     0.028     2.614     2.528
   101   1 H        0.926     0.041     2.436     2.440
   102   1 H        0.926     0.044     2.402     2.424
   103   1 H        0.926     0.043     2.412     2.429
   104   1 H        0.926     0.042     2.423     2.434
   105   1 H        0.926     0.032     2.563     2.503
   106   1 H        0.926     0.030     2.584     2.514

molecular dipole:
                 x           y           z       tot (Debye)
 q only:        0.016      -4.135      -0.194
   full:        0.017      -4.046      -0.190      10.295

 projected vibrational frequencies (cm⁻¹)
eigval :       -0.00     0.00     0.00     0.00     0.00     0.00
eigval :        3.14     6.09     7.04     7.61    12.56    26.90
eigval :       30.07    37.60    44.73    46.16    46.33    47.20
eigval :       53.17    57.05    70.32    71.83    85.39    85.93
eigval :       87.95   107.77   109.42   111.34   120.10   139.11
eigval :      139.81   142.06   151.92   156.42   163.26   182.42
eigval :      196.76   211.69   236.74   237.12   237.97   239.98
eigval :      242.50   244.99   261.26   266.50   281.57   293.49
eigval :      293.67   308.38   332.30   345.47   373.12   382.19
eigval :      386.87   387.99   388.86   394.20   396.56   396.92
eigval :      400.60   403.64   411.39   411.84   424.64   425.79
eigval :      433.73   436.18   441.84   446.19   458.30   458.84
eigval :      459.82   461.50   479.82   488.72   501.93   501.99
eigval :      504.01   505.19   519.66   521.75   538.70   539.58
eigval :      544.97   568.17   586.52   586.58   590.29   591.66
eigval :      595.68   600.07   600.40   601.22   602.52   609.05
eigval :      610.64   617.39   629.88   657.84   668.45   669.99
eigval :      676.80   678.29   678.69   690.96   690.99   691.43
eigval :      693.51   697.74   719.48   729.78   729.92   749.98
eigval :      753.26   756.98   768.48   769.22   770.00   770.11
eigval :      774.80   775.20   785.83   786.71   794.66   806.79
eigval :      842.15   856.97   866.99   867.09   869.21   870.46
eigval :      874.64   877.75   878.23   879.23   882.45   890.13
eigval :      890.24   892.30   895.24   897.83   902.15   909.77
eigval :      910.12   910.38   911.00   911.09   911.34   911.82
eigval :      912.21   913.53   914.62   917.82   918.11   921.32
eigval :      922.26   922.91   923.98   928.17   928.71   929.00
eigval :      931.36   932.51   943.59   944.33   944.48   999.91
eigval :     1001.66  1001.73  1007.08  1072.50  1073.56  1077.43
eigval :     1079.36  1085.59  1085.99  1098.54  1099.82  1100.15
eigval :     1101.22  1124.06  1124.21  1125.71  1130.75  1138.02
eigval :     1138.18  1140.82  1140.97  1160.10  1168.69  1173.44
eigval :     1174.20  1175.51  1176.65  1177.55  1178.00  1179.04
eigval :     1179.58  1183.54  1184.24  1186.20  1198.38  1198.76
eigval :     1199.77  1211.38  1222.86  1229.95  1230.31  1231.35
eigval :     1238.53  1240.55  1251.88  1254.48  1255.88  1256.34
eigval :     1257.85  1258.66  1262.88  1272.03  1272.72  1281.69
eigval :     1282.87  1306.35  1308.00  1308.42  1308.74  1322.98
eigval :     1323.03  1323.14  1327.15  1329.90  1330.07  1334.56
eigval :     1334.70  1364.91  1365.09  1405.45  1405.81  1416.57
eigval :     1416.99  1425.35  1425.58  1426.80  1427.17  1428.70
eigval :     1429.49  1432.64  1442.54  1452.93  1453.26  1454.65
eigval :     1457.78  1457.85  1468.79  1469.21  1470.40  1475.16
eigval :     1480.07  1484.07  1545.47  1550.44  1550.48  1561.39
eigval :     1564.32  1575.13  1575.22  1584.00  1584.04  1587.06
eigval :     1587.67  1592.57  1594.68  1594.81  1598.39  1598.75
eigval :     1600.79  1600.84  3067.58  3068.46  3069.90  3070.38
eigval :     3071.04  3071.44  3071.76  3072.51  3074.37  3074.49
eigval :     3075.14  3076.27  3082.07  3082.36  3082.55  3083.00
eigval :     3083.33  3083.65  3084.00  3084.02  3084.49  3084.56
eigval :     3087.14  3087.20  3087.24  3087.37  3087.48  3089.32
eigval :     3090.46  3090.55  3092.11  3092.57  3098.74  3098.98
eigval :     3099.06  3099.22  3105.88  3106.34  3107.23  3107.55

   temp. (K)  partition function   enthalpy   heat capacity  entropy
                                   cal/mol     cal/K/mol   cal/K/mol   J/K/mol
 298.15  VIB  0.207E+26            30404.964    193.557    192.191
         ROT  0.264E+09              888.752      2.981     41.513
         INT  0.546E+34            31293.716    196.538    233.704
         TR   0.236E+29             1481.254      4.968     46.044
         TOT                       32774.9699   201.5060   279.7484  1170.4673

       T/K    H(0)-H(T)+PV         H(T)/Eh          T*S/Eh         G(T)/Eh
   ------------------------------------------------------------------------
    298.15    0.522302E-01    0.862340E+00    0.132917E+00    0.729422E+00
   ------------------------------------------------------------------------

         :::::::::::::::::::::::::::::::::::::::::::::::::::::
         ::                  THERMODYNAMIC                  ::
         :::::::::::::::::::::::::::::::::::::::::::::::::::::
         :: total free energy        -164.547681882461 Eh   ::
         ::.................................................::
         :: total energy             -165.277104329326 Eh   ::
         :: zero point energy           0.810109696787 Eh   ::
         :: G(RRHO) w/o ZPVE           -0.080687249922 Eh   ::
         :: G(RRHO) contrib.            0.729422446865 Eh   ::
         :::::::::::::::::::::::::::::::::::::::::::::::::::::

           -------------------------------------------------
          | TOTAL ENERGY             -165.277104329326 Eh   |
          | TOTAL ENTHALPY           -164.414764393337 Eh   |
          | TOTAL FREE ENERGY        -164.547681882461 Eh   |
          | GRADIENT NORM               0.000076053026 Eh/α |
          | HOMO-LUMO GAP               0.495601486187 eV   |
           -------------------------------------------------

 * finished run on 2025/07/18 at 21:26:37.175
