   * xtb version 6.7.1 (edcfbbe) compiled by 'albert@albert-system' on 2024-07-22

   ID    Z sym.   atoms
    1    8 O      1
    2    6 C      2-6, 8-38, 40-66
    3    7 N      7, 39
    4    1 H      67-106

          program call               : xtb data2507/toluene/SFAC-BP-SFAC/SFAC-BP-SFAC_toluene_S0_finalOpt.xtbopt.xyz --gfn 2 --uhf 2 --gbsa toluene --ohess vtight --parallel 40 --molden --ceasefiles --namespace data2507/toluene/SFAC-BP-SFAC/SFAC-BP-SFAC_toluene_T1_preOpt
      * Solvation model:               GBSA
        Solvent                        toluene
        Solvent mass                       9.2140E+01 g/mol
          :  Hamiltonian                  GFN2-xTB          :
 * total energy  :  -165.2704276 Eh     change       -0.3071278E-08 Eh
 * total energy  :  -165.2744379 Eh     change       -0.4010322E-02 Eh
 * total energy  :  -165.2754214 Eh     change       -0.9835078E-03 Eh
 * total energy  :  -165.2755293 Eh     change       -0.1078914E-03 Eh
 * total energy  :  -165.2756155 Eh     change       -0.8619390E-04 Eh
 * total energy  :  -165.2756865 Eh     change       -0.7098947E-04 Eh
 * total energy  :  -165.2757815 Eh     change       -0.9507566E-04 Eh
 * total energy  :  -165.2758698 Eh     change       -0.8824544E-04 Eh
 * total energy  :  -165.2759172 Eh     change       -0.4745182E-04 Eh
 * total energy  :  -165.2759337 Eh     change       -0.1648321E-04 Eh
 * total energy  :  -165.2771473 Eh     change       -0.3534859E-06 Eh
 * total energy  :  -165.2771475 Eh     change       -0.2661682E-06 Eh
 * total energy  :  -165.2771477 Eh     change       -0.1779426E-06 Eh
 * total energy  :  -165.2771478 Eh     change       -0.1409317E-06 Eh
 * total energy  :  -165.2771480 Eh     change       -0.1172998E-06 Eh
 * total energy  :  -165.2771481 Eh     change       -0.1819106E-06 Eh
 * total energy  :  -165.2771485 Eh     change       -0.3428657E-06 Eh
 * total energy  :  -165.2771491 Eh     change       -0.5862271E-06 Eh
 * total energy  :  -165.2771491 Eh     change       -0.3593044E-08 Eh
   *** GEOMETRY OPTIMIZATION CONVERGED AFTER 152 ITERATIONS ***

 final structure:
================
106
 xtb: 6.7.1 (edcfbbe)
O           -0.00997172697957        4.57204274853383       -0.37772406961416
C           -0.00926146468697        3.30037920127483       -0.27957478008805
C           -1.26910306531023        2.58949591929694       -0.17332472541372
C           -1.45386713375451        1.26101126039283       -0.60341162416960
C           -2.68538686691115        0.65595833429641       -0.51995330534846
C           -3.78352586750173        1.35562077258825       -0.01601989501071
N           -5.05346306251346        0.71684664322635        0.07771993007160
C           -5.28591875118839       -0.16002388862764        1.11815817768544
C           -4.29200127028394       -0.38943949816751        2.08036976688224
C           -4.50553686383211       -1.26985930947126        3.11781754157870
C           -5.71633663950246       -1.93987780131811        3.22822667696763
C           -6.70945676316121       -1.70614650446589        2.29544163844220
C           -6.51551590566018       -0.82309648430268        1.24306963626956
C           -7.64002453049904       -0.59255138077692        0.26909197798170
C           -8.90445277504653       -0.17664808242379        1.00406634138895
C           -9.11042861743213        0.94940517692157        1.76980188753895
C          -10.35599466584758        1.13073091174450        2.35782572906615
C          -11.36849317800312        0.20052197320717        2.17715100656771
C          -11.16412668717550       -0.93354797824135        1.40659712208142
C           -9.92364733862316       -1.12122335557210        0.81888659899321
C           -9.41527229821115       -2.19215375462922       -0.02587775774549
C          -10.01895935533659       -3.34640825817365       -0.49788511607562
C           -9.27994646921324       -4.20087974412116       -1.30112844591760
C           -7.96406622542830       -3.91050498312868       -1.62837166922696
C           -7.35264610286770       -2.75512351735018       -1.15793523682751
C           -8.08433950821452       -1.90491439924978       -0.35895177148017
C           -7.28883661748779        0.40659107719443       -0.80098870947993
C           -8.24181669595945        0.72912086240800       -1.75618685169748
C           -7.96296708032609        1.62043685301345       -2.77547374593110
C           -6.70139831405653        2.19446950545772       -2.85338557320497
C           -5.74079131944881        1.88914965651922       -1.91468260010548
C           -6.02035787503758        1.00218645407368       -0.86500376159616
C           -3.63147368975154        2.68879412833734        0.37341719349676
C           -2.40378011171395        3.29368517536920        0.28372905807117
C            1.25049670188583        2.58209917818209       -0.27296576446457
C            1.43227612547007        1.33258171045710        0.35130483436211
C            2.66508579532191        0.72479399024204        0.37032231239376
C            3.76719554281568        1.34404647638450       -0.22207420400366
N            5.03993099490003        0.70341325160391       -0.20425722515913
C            5.29677802507012       -0.30124628550996       -1.11482540260980
C            4.31956346109456       -0.66892503249592       -2.05085865734551
C            4.55874832045927       -1.67517599003397       -2.96040201609494
C            5.77856285890949       -2.33790313602457       -2.96526168280517
C            6.75415394558998       -1.97195745865166       -2.05673739428728
C            6.53436926598493       -0.96104891331796       -1.13228567243374
C            7.64089841173401       -0.59066330579457       -0.18092190790602
C            8.90372672831263       -0.23185728337316       -0.94871919462864
C            9.09240816066655        0.80336296528973       -1.83723483403354
C           10.34012877707686        0.94596340415585       -2.43128613607228
C           11.37125605745021        0.06671089001846       -2.13652035653456
C           11.18420458337098       -0.97596839347379       -1.24247425118849
C            9.94214283509779       -1.12379527142547       -0.64681461991869
C            9.44938438391935       -2.10149505922514        0.31244134612673
C           10.07417007826729       -3.17893489560008        0.91923910955900
C            9.34596046806686       -3.95342237154047        1.80882247752331
C            8.02009448019376       -3.65931341495869        2.08914531645340
C            7.38770227709753       -2.58043604991930        1.48401377802640
C            8.10868249350191       -1.80956790411538        0.59927777431713
C            7.25472631734763        0.52074362179765        0.75838912742830
C            8.18057275471743        0.96262277576642        1.69231905575727
C            7.87094693220029        1.96794880234345        2.58937055524500
C            6.60611090880518        2.53955362441381        2.56363150478283
C            5.67204679462852        2.11651625084016        1.64406035539510
C            5.98228561439356        1.10992251373464        0.71831384792996
C            3.61778852485058        2.60321461738084       -0.80851334232683
C            2.38866166659220        3.21176562822508       -0.82130144792398
H           -0.62868540650473        0.72258049585394       -1.04414438183403
H           -2.81747404814422       -0.36265033534282       -0.85694428855175
H           -3.35310924404110        0.13597348447880        2.00403760482033
H           -3.72534864751874       -1.43226644233461        3.84614857859443
H           -5.88587852522009       -2.63226386500184        4.03824161891962
H           -7.65901586700831       -2.21369574265529        2.37984905542547
H           -8.32347462145995        1.67600876568145        1.91205350114480
H          -10.53685883134276        2.00725474682713        2.96261807156972
H          -12.32935042420105        0.36270715817639        2.64383777247180
H          -11.95613407318137       -1.65443572341762        1.26857020655380
H          -11.04353087905509       -3.57652928089011       -0.24651605637671
H           -9.73443605966843       -5.10545024029863       -1.67859056222548
H           -7.40702443877294       -4.59030229421167       -2.25628312215653
H           -6.32754406334664       -2.53087875658066       -1.41515671855073
H           -9.21645239062567        0.26782744316279       -1.69485777963914
H           -8.71847964117984        1.86024174184255       -3.50751088542669
H           -6.46459473537084        2.88228611397257       -3.65109086148154
H           -4.76023175081335        2.33327870611073       -1.98462221422436
H           -4.48659479872246        3.23398823181871        0.74694668833622
H           -2.26931270238266        4.32549694857558        0.57526728441352
H            0.60371790222072        0.86353821577526        0.85979645819338
H            2.79526848013984       -0.23105901765249        0.85809880939888
H            3.37363408958528       -0.15063131512430       -2.05626813829345
H            3.79136588496555       -1.94287241035934       -3.67097506759898
H            5.96830765012778       -3.12803296777319       -3.67513075929664
H            7.70995760852204       -2.47474759207426       -2.05981778425789
H            8.29067375389389        1.48965806393687       -2.06900840721811
H           10.50784031413520        1.75152262453850       -3.13112771283934
H           12.33324054022194        0.19697536383386       -2.61079567105309
H           11.99022792887972       -1.65808241800450       -1.01660473680306
H           11.10649452228433       -3.41152448825989        0.70443276924049
H            9.81720819577185       -4.79752680374093        2.29120353172231
H            7.47167110816718       -4.27604924497271        2.78599174947914
H            6.35477908362844       -2.35333019778000        1.70486256159554
H            9.15861568597455        0.50490340691675        1.71180029175690
H            8.60566736358975        2.29966494036577        3.30652993390187
H            6.34616800355303        3.31832135236943        3.26463424171737
H            4.68878519930079        2.56007965693978        1.63266867781655
H            4.47631389848768        3.08869999869122       -1.25043126626971
H            2.25615716841040        4.18872767574993       -1.26372683780782

          :  Hamiltonian                  GFN2-xTB          :
         :: gradient norm              0.000043429257 Eh/a0 ::
         :: HOMO-LUMO gap              0.495338607489 eV    ::
         :: SCC energy              -168.360763065870 Eh    ::
         :: -> dispersion             -0.164785485215 Eh    ::
         :: -> Gsolv                  -0.078614180482 Eh    ::
         :: repulsion energy           3.083613984290 Eh    ::

    * Orbital Energies and Occupations

         #    Occupation            Energy/Eh            Energy/eV
      -------------------------------------------------------------
         1        2.0000           -0.6839050             -18.6100
       ...           ...                  ...                  ...
       143        2.0000           -0.4040755             -10.9955
       144        2.0000           -0.4035786             -10.9819
       145        2.0000           -0.4032818             -10.9739
       146        2.0000           -0.4027814             -10.9602
       147        2.0000           -0.4026400             -10.9564
       148        2.0000           -0.3955197             -10.7626
       149        2.0000           -0.3942093             -10.7270
       150        2.0000           -0.3847040             -10.4683
       151        2.0000           -0.3846913             -10.4680
       152        1.9412           -0.3633646              -9.8877
       153        1.6489           -0.3613138              -9.8318
       154        1.4100           -0.3603845              -9.8066
       155        0.9999           -0.2749947              -7.4830 (HOMO)
       156        0.0000           -0.2567908              -6.9876 (LUMO)
       157        0.0000           -0.2567725              -6.9871
       158                         -0.2438635              -6.6359
       159                         -0.2438264              -6.6349
       160                         -0.2346399              -6.3849
       161                         -0.2344921              -6.3809
       162                         -0.2332648              -6.3475
       163                         -0.2332160              -6.3461
       164                         -0.2302451              -6.2653
       165                         -0.2301241              -6.2620
       166                         -0.2298172              -6.2536
       ...                                ...                  ...
       304                          0.7235466              19.6887
      -------------------------------------------------------------
                  HL-Gap            0.0182039 Eh            0.4954 eV

     #   Z          covCN         q      C6AA      α(0)
     1   8 O        0.858    -0.538    24.637     6.655
     2   6 C        2.834     0.160    24.541     8.118
     3   6 C        2.967    -0.020    28.515     8.759
     4   6 C        2.919    -0.044    29.102     8.846
     5   6 C        2.916    -0.042    29.051     8.838
     6   6 C        2.928     0.037    27.169     8.548
     7   7 N        2.753    -0.024    21.719     6.922
     8   6 C        2.927     0.062    26.605     8.459
     9   6 C        2.922    -0.048    29.186     8.859
    10   6 C        2.918    -0.028    28.694     8.784
    11   6 C        2.917    -0.032    28.806     8.801
    12   6 C        2.924    -0.032    28.806     8.802
    13   6 C        2.982     0.001    27.991     8.678
    14   6 C        3.948     0.013    20.282     6.399
    15   6 C        3.056     0.003    27.905     8.663
    16   6 C        2.914    -0.032    28.810     8.802
    17   6 C        2.923    -0.031    28.773     8.797
    18   6 C        2.921    -0.031    28.786     8.798
    19   6 C        2.915    -0.034    28.837     8.806
    20   6 C        3.033     0.002    27.939     8.670
    21   6 C        3.033     0.003    27.936     8.669
    22   6 C        2.915    -0.033    28.834     8.805
    23   6 C        2.921    -0.032    28.786     8.798
    24   6 C        2.923    -0.031    28.775     8.797
    25   6 C        2.914    -0.033    28.814     8.802
    26   6 C        3.057     0.003    27.901     8.662
    27   6 C        2.982     0.001    27.992     8.679
    28   6 C        2.924    -0.032    28.809     8.802
    29   6 C        2.917    -0.032    28.802     8.801
    30   6 C        2.918    -0.028    28.691     8.784
    31   6 C        2.922    -0.047    29.179     8.858
    32   6 C        2.927     0.062    26.601     8.458
    33   6 C        2.914    -0.042    29.047     8.838
    34   6 C        2.924    -0.032    28.792     8.800
    35   6 C        2.967    -0.021    28.522     8.760
    36   6 C        2.919    -0.044    29.105     8.847
    37   6 C        2.916    -0.042    29.053     8.839
    38   6 C        2.928     0.037    27.172     8.548
    39   7 N        2.753    -0.025    21.722     6.922
    40   6 C        2.927     0.062    26.603     8.458
    41   6 C        2.922    -0.048    29.187     8.859
    42   6 C        2.918    -0.028    28.693     8.784
    43   6 C        2.917    -0.032    28.807     8.801
    44   6 C        2.924    -0.032    28.807     8.802
    45   6 C        2.982     0.001    27.992     8.679
    46   6 C        3.948     0.014    20.281     6.399
    47   6 C        3.057     0.003    27.904     8.663
    48   6 C        2.914    -0.033    28.811     8.802
    49   6 C        2.923    -0.031    28.774     8.797
    50   6 C        2.921    -0.031    28.786     8.798
    51   6 C        2.915    -0.034    28.836     8.806
    52   6 C        3.033     0.002    27.938     8.670
    53   6 C        3.033     0.003    27.937     8.670
    54   6 C        2.915    -0.034    28.835     8.806
    55   6 C        2.921    -0.032    28.786     8.798
    56   6 C        2.923    -0.031    28.775     8.797
    57   6 C        2.914    -0.033    28.812     8.802
    58   6 C        3.056     0.003    27.902     8.663
    59   6 C        2.982     0.001    27.992     8.679
    60   6 C        2.924    -0.032    28.809     8.802
    61   6 C        2.917    -0.032    28.802     8.801
    62   6 C        2.918    -0.028    28.690     8.784
    63   6 C        2.922    -0.047    29.178     8.858
    64   6 C        2.927     0.062    26.600     8.458
    65   6 C        2.914    -0.042    29.046     8.838
    66   6 C        2.924    -0.032    28.794     8.800
    67   1 H        0.926     0.034     2.534     2.490
    68   1 H        0.926     0.034     2.525     2.485
    69   1 H        0.926     0.043     2.412     2.429
    70   1 H        0.926     0.044     2.401     2.423
    71   1 H        0.926     0.044     2.401     2.423
    72   1 H        0.926     0.041     2.439     2.442
    73   1 H        0.926     0.027     2.625     2.534
    74   1 H        0.926     0.035     2.516     2.481
    75   1 H        0.926     0.036     2.503     2.474
    76   1 H        0.926     0.038     2.479     2.462
    77   1 H        0.926     0.038     2.480     2.462
    78   1 H        0.926     0.036     2.500     2.473
    79   1 H        0.926     0.036     2.509     2.477
    80   1 H        0.926     0.028     2.616     2.529
    81   1 H        0.926     0.041     2.435     2.440
    82   1 H        0.926     0.044     2.402     2.424
    83   1 H        0.926     0.043     2.413     2.429
    84   1 H        0.926     0.042     2.421     2.433
    85   1 H        0.926     0.032     2.560     2.502
    86   1 H        0.926     0.030     2.583     2.513
    87   1 H        0.926     0.034     2.536     2.490
    88   1 H        0.926     0.034     2.527     2.486
    89   1 H        0.926     0.043     2.412     2.429
    90   1 H        0.926     0.044     2.401     2.423
    91   1 H        0.926     0.044     2.401     2.423
    92   1 H        0.926     0.041     2.439     2.442
    93   1 H        0.926     0.027     2.627     2.535
    94   1 H        0.926     0.035     2.517     2.481
    95   1 H        0.926     0.036     2.503     2.474
    96   1 H        0.926     0.038     2.478     2.462
    97   1 H        0.926     0.038     2.481     2.463
    98   1 H        0.926     0.036     2.501     2.473
    99   1 H        0.926     0.036     2.509     2.477
   100   1 H        0.926     0.028     2.615     2.529
   101   1 H        0.926     0.041     2.436     2.440
   102   1 H        0.926     0.044     2.402     2.424
   103   1 H        0.926     0.043     2.413     2.429
   104   1 H        0.926     0.042     2.424     2.435
   105   1 H        0.926     0.032     2.565     2.504
   106   1 H        0.926     0.030     2.584     2.514

molecular dipole:
                 x           y           z       tot (Debye)
 q only:       -0.005      -4.117       0.337
   full:       -0.005      -4.028       0.329      10.272

 projected vibrational frequencies (cm⁻¹)
eigval :       -0.00    -0.00    -0.00     0.00     0.00     0.00
eigval :        4.52     6.46     8.69     9.26    12.89    28.39
eigval :       30.32    38.85    44.27    46.52    46.61    47.13
eigval :       53.53    57.26    70.81    72.43    85.67    86.17
eigval :       90.05   108.18   110.63   112.25   120.59   138.31
eigval :      139.61   142.72   152.85   156.43   163.57   182.26
eigval :      196.86   211.95   236.83   237.11   237.97   240.36
eigval :      242.48   244.89   261.78   266.89   281.63   293.01
eigval :      294.47   308.47   332.58   345.69   373.84   382.36
eigval :      387.22   388.30   388.92   394.61   396.39   396.96
eigval :      400.70   403.77   411.32   412.07   425.07   426.06
eigval :      433.69   436.28   442.28   446.31   458.67   459.07
eigval :      460.49   461.46   480.00   488.68   501.85   502.01
eigval :      504.09   506.01   520.10   522.34   538.70   539.21
eigval :      545.15   568.15   586.44   586.56   590.39   591.83
eigval :      595.90   599.91   600.53   601.35   602.66   609.11
eigval :      610.86   617.39   629.80   657.75   668.40   670.07
eigval :      676.71   678.33   679.11   690.93   690.95   691.65
eigval :      693.44   697.78   719.47   729.82   730.26   749.96
eigval :      753.22   757.04   768.34   768.65   769.21   772.67
eigval :      774.44   777.72   785.67   786.95   795.24   808.17
eigval :      843.24   856.65   866.30   869.25   870.28   871.25
eigval :      877.17   877.77   877.85   881.34   882.46   889.86
eigval :      890.62   892.72   895.39   897.68   906.42   909.21
eigval :      910.10   910.75   911.07   911.69   911.74   911.87
eigval :      913.44   914.27   915.61   917.96   918.11   920.28
eigval :      922.85   925.12   925.89   927.74   928.08   928.54
eigval :      929.86   932.07   943.60   944.33   944.51  1000.03
eigval :     1001.59  1001.71  1007.28  1072.60  1072.92  1077.46
eigval :     1079.07  1085.82  1086.02  1098.89  1100.06  1100.33
eigval :     1101.26  1123.95  1124.40  1126.13  1131.26  1138.14
eigval :     1138.58  1140.85  1141.06  1159.90  1168.65  1173.07
eigval :     1173.36  1175.41  1176.38  1176.72  1178.93  1179.31
eigval :     1179.40  1183.84  1184.43  1186.37  1198.61  1198.68
eigval :     1199.32  1211.58  1222.56  1230.16  1230.65  1231.27
eigval :     1238.37  1240.64  1253.20  1254.82  1255.74  1255.92
eigval :     1257.83  1259.12  1263.03  1271.97  1272.83  1281.72
eigval :     1282.33  1306.03  1307.93  1308.41  1308.80  1323.01
eigval :     1323.09  1323.25  1327.30  1329.93  1330.14  1334.55
eigval :     1334.80  1364.86  1365.00  1405.42  1406.04  1416.94
eigval :     1417.20  1424.93  1425.46  1426.69  1426.72  1429.55
eigval :     1429.87  1432.66  1442.58  1452.93  1453.38  1454.85
eigval :     1457.61  1457.71  1468.52  1469.22  1470.69  1474.51
eigval :     1480.08  1484.15  1545.39  1550.41  1550.69  1561.60
eigval :     1564.37  1575.11  1575.29  1584.00  1584.04  1586.58
eigval :     1587.64  1592.46  1594.61  1594.85  1598.46  1598.75
eigval :     1600.71  1600.90  3067.70  3068.30  3069.90  3070.44
eigval :     3071.15  3071.31  3071.72  3072.26  3074.79  3075.01
eigval :     3075.29  3076.04  3081.78  3082.37  3082.45  3082.63
eigval :     3083.36  3083.39  3083.70  3084.12  3084.25  3084.40
eigval :     3086.72  3087.09  3087.26  3087.42  3087.82  3089.96
eigval :     3090.22  3090.53  3091.98  3092.26  3098.82  3098.88
eigval :     3099.01  3099.38  3106.04  3106.21  3107.60  3108.81

   temp. (K)  partition function   enthalpy   heat capacity  entropy
                                   cal/mol     cal/K/mol   cal/K/mol   J/K/mol
 298.15  VIB  0.753E+25            30373.789    193.575    191.129
         ROT  0.264E+09              888.752      2.981     41.514
         INT  0.199E+34            31262.542    196.556    232.643
         TR   0.236E+29             1481.254      4.968     46.044
         TOT                       32743.7956   201.5238   278.6872  1166.0272

       T/K    H(0)-H(T)+PV         H(T)/Eh          T*S/Eh         G(T)/Eh
   ------------------------------------------------------------------------
    298.15    0.521806E-01    0.862412E+00    0.132413E+00    0.729999E+00
   ------------------------------------------------------------------------

         :::::::::::::::::::::::::::::::::::::::::::::::::::::
         ::                  THERMODYNAMIC                  ::
         :::::::::::::::::::::::::::::::::::::::::::::::::::::
         :: total free energy        -164.547150316255 Eh   ::
         ::.................................................::
         :: total energy             -165.277149079901 Eh   ::
         :: zero point energy           0.810231481740 Eh   ::
         :: G(RRHO) w/o ZPVE           -0.080232718093 Eh   ::
         :: G(RRHO) contrib.            0.729998763646 Eh   ::
         :::::::::::::::::::::::::::::::::::::::::::::::::::::

           -------------------------------------------------
          | TOTAL ENERGY             -165.277149079901 Eh   |
          | TOTAL ENTHALPY           -164.414737038427 Eh   |
          | TOTAL FREE ENERGY        -164.547150316255 Eh   |
          | GRADIENT NORM               0.000054266682 Eh/α |
          | HOMO-LUMO GAP               0.495353222077 eV   |
           -------------------------------------------------

 * finished run on 2025/07/18 at 21:11:33.879
