   * xtb version 6.7.1 (edcfbbe) compiled by 'albert@albert-system' on 2024-07-22

   ID    Z sym.   atoms
    1    8 O      1
    2    6 C      2-6, 8-38, 40-66
    3    7 N      7, 39
    4    1 H      67-106

          program call               : xtb data2507/toluene/SFAC-BP-SFAC/SFAC-BP-SFAC.xyz --gfn 2 --gbsa toluene --ohess vtight --parallel 40 --molden --ceasefiles --namespace data2507/toluene/SFAC-BP-SFAC/SFAC-BP-SFAC_toluene_S0_preOpt
      * Solvation model:               GBSA
        Solvent                        toluene
        Solvent mass                       9.2140E+01 g/mol
          :  Hamiltonian                  GFN2-xTB          :
 * total energy  :  -165.3178576 Eh     change       -0.9719741E-08 Eh
 * total energy  :  -165.3393326 Eh     change       -0.2147505E-01 Eh
 * total energy  :  -165.3465460 Eh     change       -0.7213360E-02 Eh
 * total energy  :  -165.3476641 Eh     change       -0.1118085E-02 Eh
 * total energy  :  -165.3483162 Eh     change       -0.6520949E-03 Eh
 * total energy  :  -165.3486939 Eh     change       -0.3777262E-03 Eh
 * total energy  :  -165.3489482 Eh     change       -0.2543006E-03 Eh
 * total energy  :  -165.3490742 Eh     change       -0.1259848E-03 Eh
 * total energy  :  -165.3491646 Eh     change       -0.9038999E-04 Eh
 * total energy  :  -165.3492770 Eh     change       -0.1124769E-03 Eh
 * total energy  :  -165.3498434 Eh     change       -0.5689905E-05 Eh
 * total energy  :  -165.3498492 Eh     change       -0.5793183E-05 Eh
 * total energy  :  -165.3498550 Eh     change       -0.5835914E-05 Eh
 * total energy  :  -165.3498597 Eh     change       -0.4703363E-05 Eh
 * total energy  :  -165.3498615 Eh     change       -0.1800495E-05 Eh
 * total energy  :  -165.3498626 Eh     change       -0.1074578E-05 Eh
 * total energy  :  -165.3498636 Eh     change       -0.9689194E-06 Eh
 * total energy  :  -165.3498649 Eh     change       -0.1295330E-05 Eh
 * total energy  :  -165.3498649 Eh     change       -0.8271002E-08 Eh
   *** GEOMETRY OPTIMIZATION CONVERGED AFTER 122 ITERATIONS ***

 final structure:
================
106
 xtb: 6.7.1 (edcfbbe)
O           -0.03480240613248        4.81524472740480       -0.83708061992728
C           -0.02348473944418        3.61421318240864       -0.61412184602255
C           -1.28412508032764        2.84349406021101       -0.48767027591057
C           -1.40830566350222        1.76981821812876        0.39378443931269
C           -2.61230821288021        1.10251473600262        0.51000424115640
C           -3.70604983575715        1.49184596545083       -0.25823117974342
N           -4.93847761360811        0.79772026397826       -0.14744589879455
C           -5.72581088170084        0.99024376087685        0.98100874551948
C           -5.31682518536746        1.87050116067500        1.98704588849315
C           -6.08722533635447        2.06529039168892        3.11553558522406
C           -7.28849651099976        1.39339871376076        3.26478402732618
C           -7.71140069162878        0.54044484194593        2.26244792503032
C           -6.95120060045231        0.33311865372965        1.12052380122342
C           -7.49077163420920       -0.58715191275816        0.05161195327386
C           -8.86848277334838       -0.13213690138645       -0.39395757789687
C           -9.22091603995125        1.05200401446712       -1.00347133818282
C          -10.55580733204181        1.26199805675346       -1.32470246815063
C          -11.51423136927373        0.30130172083670       -1.03882187235699
C          -11.16437252664371       -0.89166039538038       -0.42578569710992
C           -9.83413849121533       -1.10680755699802       -0.10428845967858
C           -9.17333637681430       -2.23778436106706        0.53086880753012
C           -9.67566315975090       -3.43945713610959        1.00302135340438
C           -8.79685122200920       -4.34831111840599        1.57137260275503
C           -7.44262555806836       -4.06481002987423        1.66629131750865
C           -6.93375212124298       -2.86148867225715        1.19503283911941
C           -7.80357501687445       -1.95489848310563        0.62999540789701
C           -6.56019914248760       -0.71211717798894       -1.13059625038460
C           -6.93109025115280       -1.53753600034109       -2.18218668989135
C           -6.11270840225072       -1.71540867179796       -3.28208524195131
C           -4.89028147482385       -1.06685320266775       -3.32429850998113
C           -4.50462469483145       -0.24172718486774       -2.28729095821475
C           -5.33794736322072       -0.03694317322689       -1.18367830220407
C           -3.59011013726321        2.56999523173442       -1.13148799247765
C           -2.39165280200799        3.24608080428137       -1.23398076660809
C            1.25043731530265        2.87176453435530       -0.46450466999147
C            1.38032840949161        1.53744491046991       -0.85059870078831
C            2.59846292864862        0.89668965683742       -0.73616281719371
C            3.70349003146175        1.57572952683935       -0.22977691594540
N            4.95041662734466        0.91143201579036       -0.10801057087865
C            5.98319895401466        1.24320511882585       -0.97676958172395
C            5.78071260771256        2.18423323793433       -1.99058341524064
C            6.80010382571978        2.52469179130847       -2.85660548261147
C            8.04414331655922        1.92875690692980       -2.73864347535231
C            8.24358510643864        0.97693937795746       -1.75617228009029
C            7.23044885504311        0.62064396340561       -0.87782123879769
C            7.50436317407944       -0.46183788398476        0.13881023673566
C            8.75624622407415       -0.14980341901107        0.93670407619999
C            8.98677252742049        0.91414129593656        1.78100791223180
C           10.22099117537570        1.00620332362505        2.41145460121332
C           11.20086711880544        0.04865601002272        2.19646946149963
C           10.97293807707388       -1.02459564999977        1.34926582714443
C            9.74307034897458       -1.12223547465117        0.71901718449367
C            9.21740580890583       -2.11487779795710       -0.20716905081463
C            9.78670517034645       -3.26330400187143       -0.73294954317611
C            9.03800943544152       -4.03397107777699       -1.60875386413900
C            7.74657127821178       -3.66579831905921       -1.95506124504408
C            7.17086473547178       -2.51573692404150       -1.43073830134155
C            7.91082782383550       -1.74754550935731       -0.55896121886272
C            6.33069657395287       -0.70616761295918        1.05616492419876
C            6.46958780897140       -1.63358793737942        2.07856950552110
C            5.43824632076097       -1.89205646155875        2.96210610457541
C            4.24708715131181       -1.19914842770471        2.82883698556618
C            4.09078200680630       -0.27320147417047        1.81732240837732
C            5.12096031738071       -0.02321220833389        0.90606257585050
C            3.58129904158117        2.91050444441840        0.14861983827392
C            2.36734464234796        3.55305756615419        0.02104692912328
H           -0.56899070526435        1.47234382179442        1.00378870433329
H           -2.71550408016989        0.27633775410601        1.19774057587436
H           -4.38988376110045        2.41256719674862        1.88006451971947
H           -5.74621642988470        2.74918975242527        3.87888444047685
H           -7.89414889495379        1.53881660110886        4.14625507764742
H           -8.65469274978232        0.02219287202081        2.35924174500191
H           -8.47664225895016        1.80322723069051       -1.22604277646502
H          -10.85100708343249        2.18460073187263       -1.80323996256385
H          -12.54715386356460        0.48611187070302       -1.29703934258911
H          -11.91436364127661       -1.63689212364992       -0.20490258659285
H          -10.72941368248228       -3.66535431200226        0.93054420988231
H           -9.17108188094621       -5.29064061747601        1.94509603727736
H           -6.77588746138774       -4.78859594578417        2.11229444760772
H           -5.87824220944045       -2.64251948010953        1.27008350503778
H           -7.88103950531232       -2.04988840905257       -2.12957857414017
H           -6.42183999532235       -2.35950533602078       -4.09106115307597
H           -4.22885633532962       -1.20443208657872       -4.16704514947354
H           -3.54386611007373        0.24760955228430       -2.33000509433573
H           -4.44346476675182        2.87228432001952       -1.72004308550884
H           -2.29098898649070        4.09253320242001       -1.89726451763767
H            0.53573303235090        1.01117011366658       -1.26833358084232
H            2.70446755483290       -0.13430758930436       -1.03934639833723
H            4.81383137728946        2.64957000359293       -2.10500509709283
H            6.61704719860170        3.25695671023424       -3.62926738049698
H            8.84662795000487        2.19313167510477       -3.41025733534784
H            9.20437502445406        0.49083012813667       -1.66530182302312
H            8.22475157489860        1.66165798052422        1.94980737479935
H           10.42003450583059        1.83320021967792        3.07758799655325
H           12.15447328117918        0.14120673238168        2.69630177100537
H           11.73920922871989       -1.76818094189855        1.18586818493624
H           10.79234928995740       -3.55400079823424       -0.46670103527568
H            9.46566166552178       -4.93338411397354       -2.02820923786809
H            7.18168095837324       -4.28088476906005       -2.64051198042203
H            6.16489466292099       -2.23004422879828       -1.70294987484780
H            7.40905556426782       -2.15793553576197        2.17924534127906
H            5.56668314368988       -2.61893527507970        3.74961794622685
H            3.43421985961620       -1.37471874503331        3.51806461513003
H            3.16187132372441        0.26956381617074        1.73580702943355
H            4.44254026973676        3.43500504443219        0.53472655526593
H            2.25846184473410        4.58896395060245        0.30676572018060

          :  Hamiltonian                  GFN2-xTB          :
         :: gradient norm              0.000067521344 Eh/a0 ::
         :: HOMO-LUMO gap              1.410331724458 eV    ::
         :: SCC energy              -168.448012074737 Eh    ::
         :: -> dispersion             -0.165119203989 Eh    ::
         :: -> Gsolv                  -0.067613737976 Eh    ::
         :: repulsion energy           3.098147208471 Eh    ::

    * Orbital Energies and Occupations

         #    Occupation            Energy/Eh            Energy/eV
      -------------------------------------------------------------
         1        2.0000           -0.7157432             -19.4764
       ...           ...                  ...                  ...
       142        2.0000           -0.4080093             -11.1025
       143        2.0000           -0.4078699             -11.0987
       144        2.0000           -0.4014842             -10.9249
       145        2.0000           -0.3982422             -10.8367
       146        2.0000           -0.3981513             -10.8342
       147        2.0000           -0.3959697             -10.7749
       148        2.0000           -0.3958945             -10.7728
       149        2.0000           -0.3936966             -10.7130
       150        2.0000           -0.3935806             -10.7099
       151        2.0000           -0.3794629             -10.3257
       152        2.0000           -0.3793880             -10.3237
       153        2.0000           -0.3514660              -9.5639
       154        2.0000           -0.3510474              -9.5525 (HOMO)
       155                         -0.2992187              -8.1422 (LUMO)
       156                         -0.2519776              -6.8567
       157                         -0.2518910              -6.8543
       158                         -0.2506852              -6.8215
       159                         -0.2464645              -6.7066
       160                         -0.2437144              -6.6318
       161                         -0.2324958              -6.3265
       162                         -0.2323704              -6.3231
       163                         -0.2251486              -6.1266
       164                         -0.2250626              -6.1243
       165                         -0.2245416              -6.1101
       ...                                ...                  ...
       304                          0.7280565              19.8114
      -------------------------------------------------------------
                  HL-Gap            0.0518287 Eh            1.4103 eV

     #   Z          covCN         q      C6AA      α(0)
     1   8 O        0.858    -0.413    21.944     6.281
     2   6 C        2.829     0.229    23.207     7.894
     3   6 C        2.972    -0.013    28.341     8.732
     4   6 C        2.920    -0.025    28.618     8.773
     5   6 C        2.920    -0.036    28.894     8.815
     6   6 C        2.927     0.076    26.303     8.411
     7   7 N        2.752    -0.068    22.549     7.053
     8   6 C        2.924     0.059    26.684     8.471
     9   6 C        2.924    -0.059    29.455     8.900
    10   6 C        2.920    -0.033    28.823     8.804
    11   6 C        2.917    -0.043    29.075     8.842
    12   6 C        2.926    -0.036    28.884     8.814
    13   6 C        2.983    -0.007    28.199     8.711
    14   6 C        3.949     0.012    20.301     6.402
    15   6 C        3.057     0.002    27.933     8.667
    16   6 C        2.914    -0.034    28.837     8.806
    17   6 C        2.922    -0.033    28.818     8.803
    18   6 C        2.921    -0.033    28.834     8.806
    19   6 C        2.914    -0.035    28.879     8.812
    20   6 C        3.034     0.000    27.990     8.678
    21   6 C        3.034     0.000    27.989     8.678
    22   6 C        2.914    -0.035    28.879     8.812
    23   6 C        2.921    -0.033    28.834     8.806
    24   6 C        2.922    -0.033    28.818     8.803
    25   6 C        2.914    -0.034    28.839     8.806
    26   6 C        3.057     0.002    27.932     8.667
    27   6 C        2.982    -0.007    28.198     8.711
    28   6 C        2.926    -0.035    28.881     8.813
    29   6 C        2.917    -0.043    29.076     8.842
    30   6 C        2.920    -0.033    28.825     8.804
    31   6 C        2.924    -0.059    29.455     8.900
    32   6 C        2.925     0.059    26.686     8.472
    33   6 C        2.919    -0.035    28.869     8.811
    34   6 C        2.924    -0.016    28.404     8.740
    35   6 C        2.971    -0.014    28.352     8.734
    36   6 C        2.920    -0.025    28.617     8.773
    37   6 C        2.920    -0.036    28.891     8.814
    38   6 C        2.927     0.076    26.298     8.410
    39   7 N        2.752    -0.067    22.543     7.052
    40   6 C        2.924     0.059    26.687     8.472
    41   6 C        2.924    -0.058    29.450     8.899
    42   6 C        2.920    -0.033    28.821     8.804
    43   6 C        2.917    -0.043    29.072     8.842
    44   6 C        2.926    -0.036    28.885     8.814
    45   6 C        2.983    -0.007    28.196     8.710
    46   6 C        3.949     0.012    20.301     6.402
    47   6 C        3.057     0.002    27.932     8.667
    48   6 C        2.914    -0.033    28.833     8.805
    49   6 C        2.922    -0.033    28.817     8.803
    50   6 C        2.921    -0.033    28.833     8.806
    51   6 C        2.914    -0.035    28.880     8.812
    52   6 C        3.034     0.000    27.990     8.678
    53   6 C        3.033     0.000    27.989     8.678
    54   6 C        2.914    -0.035    28.876     8.812
    55   6 C        2.921    -0.033    28.834     8.806
    56   6 C        2.922    -0.033    28.819     8.803
    57   6 C        2.914    -0.034    28.842     8.807
    58   6 C        3.058     0.002    27.932     8.667
    59   6 C        2.983    -0.007    28.194     8.710
    60   6 C        2.926    -0.035    28.880     8.813
    61   6 C        2.917    -0.043    29.073     8.842
    62   6 C        2.920    -0.033    28.824     8.804
    63   6 C        2.924    -0.059    29.456     8.900
    64   6 C        2.925     0.059    26.688     8.472
    65   6 C        2.919    -0.035    28.875     8.812
    66   6 C        2.924    -0.015    28.398     8.739
    67   1 H        0.926     0.054     2.264     2.353
    68   1 H        0.926     0.056     2.247     2.344
    69   1 H        0.926     0.029     2.593     2.518
    70   1 H        0.926     0.032     2.559     2.501
    71   1 H        0.926     0.029     2.598     2.520
    72   1 H        0.926     0.027     2.624     2.533
    73   1 H        0.926     0.025     2.654     2.548
    74   1 H        0.926     0.032     2.564     2.504
    75   1 H        0.926     0.032     2.560     2.502
    76   1 H        0.926     0.032     2.553     2.498
    77   1 H        0.926     0.032     2.555     2.499
    78   1 H        0.926     0.032     2.560     2.502
    79   1 H        0.926     0.032     2.559     2.501
    80   1 H        0.926     0.026     2.643     2.542
    81   1 H        0.926     0.027     2.627     2.534
    82   1 H        0.926     0.029     2.597     2.520
    83   1 H        0.926     0.032     2.551     2.498
    84   1 H        0.926     0.030     2.592     2.517
    85   1 H        0.926     0.053     2.278     2.360
    86   1 H        0.926     0.055     2.259     2.350
    87   1 H        0.926     0.055     2.258     2.350
    88   1 H        0.926     0.056     2.247     2.344
    89   1 H        0.926     0.030     2.592     2.518
    90   1 H        0.926     0.032     2.559     2.501
    91   1 H        0.926     0.029     2.596     2.520
    92   1 H        0.926     0.028     2.622     2.532
    93   1 H        0.926     0.026     2.650     2.546
    94   1 H        0.926     0.032     2.563     2.504
    95   1 H        0.926     0.032     2.561     2.503
    96   1 H        0.926     0.032     2.554     2.499
    97   1 H        0.926     0.032     2.552     2.498
    98   1 H        0.926     0.032     2.559     2.501
    99   1 H        0.926     0.032     2.559     2.502
   100   1 H        0.926     0.026     2.646     2.544
   101   1 H        0.926     0.027     2.625     2.534
   102   1 H        0.926     0.029     2.594     2.519
   103   1 H        0.926     0.033     2.544     2.494
   104   1 H        0.926     0.030     2.586     2.515
   105   1 H        0.926     0.054     2.274     2.358
   106   1 H        0.926     0.056     2.249     2.345

molecular dipole:
                 x           y           z       tot (Debye)
 q only:        0.051      -1.062       0.202
   full:        0.051      -1.103       0.207       2.856

 projected vibrational frequencies (cm⁻¹)
eigval :       -0.00    -0.00     0.00     0.00     0.00     0.00
eigval :        4.29     6.27     8.63     9.99    13.26    29.30
eigval :       32.05    35.34    42.99    43.22    46.10    49.31
eigval :       52.56    54.55    69.22    70.46    77.03    86.06
eigval :       87.85   111.04   113.35   115.19   119.35   139.14
eigval :      142.02   143.55   151.91   155.60   162.04   183.38
eigval :      189.96   202.22   236.58   237.80   239.27   242.26
eigval :      245.37   246.52   262.13   267.42   283.66   292.25
eigval :      294.16   296.00   326.35   347.61   367.69   375.78
eigval :      384.53   387.24   388.58   389.49   396.31   397.60
eigval :      402.26   402.89   412.94   413.91   425.74   426.34
eigval :      432.92   436.67   443.55   450.04   461.90   462.59
eigval :      463.50   466.08   498.74   499.72   501.87   502.51
eigval :      505.47   506.48   512.67   513.90   540.09   541.22
eigval :      557.54   587.15   587.53   587.65   593.84   600.63
eigval :      601.38   602.74   602.98   604.84   608.84   611.71
eigval :      620.00   636.07   659.07   659.43   673.94   674.61
eigval :      676.90   684.41   684.89   685.41   690.03   695.23
eigval :      707.88   724.82   730.60   730.91   738.97   752.08
eigval :      754.04   761.77   767.03   770.70   771.37   771.79
eigval :      776.47   778.82   784.38   788.74   822.38   829.22
eigval :      862.85   864.61   865.70   869.37   872.62   875.43
eigval :      878.01   878.64   879.15   881.75   890.37   891.18
eigval :      891.64   898.45   898.94   906.81   909.15   909.53
eigval :      909.79   910.07   912.58   913.33   914.35   918.24
eigval :      919.04   919.43   919.70   919.77   920.16   921.53
eigval :      923.60   924.46   925.77   926.47   928.68   931.01
eigval :      931.20   937.49   948.73   948.88   956.51  1005.11
eigval :     1005.18  1013.19  1027.12  1073.13  1073.60  1077.60
eigval :     1078.54  1087.07  1087.26  1106.75  1107.57  1108.16
eigval :     1109.68  1124.85  1125.64  1126.92  1129.10  1139.54
eigval :     1140.27  1141.18  1141.87  1171.40  1175.88  1175.91
eigval :     1176.18  1177.24  1177.65  1180.57  1181.68  1182.66
eigval :     1184.04  1184.97  1185.48  1189.27  1201.56  1202.79
eigval :     1203.33  1209.33  1229.69  1232.35  1233.98  1235.49
eigval :     1243.00  1245.05  1256.08  1258.14  1258.58  1259.14
eigval :     1261.87  1266.28  1267.95  1272.79  1273.59  1282.93
eigval :     1283.24  1309.37  1312.54  1314.88  1315.57  1324.70
eigval :     1324.78  1325.02  1325.05  1332.42  1332.60  1332.78
eigval :     1332.89  1365.49  1365.52  1397.68  1399.54  1427.89
eigval :     1428.02  1428.47  1428.66  1434.61  1435.16  1436.18
eigval :     1437.07  1460.02  1460.15  1469.07  1470.10  1470.19
eigval :     1470.82  1478.35  1478.57  1492.44  1492.65  1554.74
eigval :     1556.61  1572.50  1572.83  1576.89  1579.75  1584.79
eigval :     1584.91  1586.90  1586.98  1587.67  1587.95  1595.10
eigval :     1595.13  1599.51  1599.53  1601.92  1602.00  1603.37
eigval :     1603.53  1652.07  3067.75  3067.75  3068.22  3068.53
eigval :     3071.12  3071.29  3071.87  3071.99  3074.66  3075.00
eigval :     3075.14  3075.19  3077.09  3077.46  3077.74  3077.89
eigval :     3077.93  3078.44  3079.51  3079.75  3085.13  3085.60
eigval :     3086.73  3086.76  3086.81  3087.87  3088.90  3088.96
eigval :     3090.87  3091.41  3091.52  3091.68  3095.53  3096.09
eigval :     3097.61  3098.76  3099.01  3099.43  3100.09  3101.32

   temp. (K)  partition function   enthalpy   heat capacity  entropy
                                   cal/mol     cal/K/mol   cal/K/mol   J/K/mol
 298.15  VIB  0.900E+25            30290.711    192.293    190.855
         ROT  0.260E+09              888.752      2.981     41.489
         INT  0.234E+34            31179.464    195.274    232.344
         TR   0.236E+29             1481.254      4.968     46.044
         TOT                       32660.7177   200.2419   278.3884  1164.7772

       T/K    H(0)-H(T)+PV         H(T)/Eh          T*S/Eh         G(T)/Eh
   ------------------------------------------------------------------------
    298.15    0.520482E-01    0.865143E+00    0.132271E+00    0.732872E+00
   ------------------------------------------------------------------------

         :::::::::::::::::::::::::::::::::::::::::::::::::::::
         ::                  THERMODYNAMIC                  ::
         :::::::::::::::::::::::::::::::::::::::::::::::::::::
         :: total free energy        -164.616993247589 Eh   ::
         ::.................................................::
         :: total energy             -165.349864869614 Eh   ::
         :: zero point energy           0.813094781865 Eh   ::
         :: G(RRHO) w/o ZPVE           -0.080223159841 Eh   ::
         :: G(RRHO) contrib.            0.732871622024 Eh   ::
         :::::::::::::::::::::::::::::::::::::::::::::::::::::

           -------------------------------------------------
          | TOTAL ENERGY             -165.349864869614 Eh   |
          | TOTAL ENTHALPY           -164.484721921138 Eh   |
          | TOTAL FREE ENERGY        -164.616993247589 Eh   |
          | GRADIENT NORM               0.000067513614 Eh/α |
          | HOMO-LUMO GAP               1.410331070160 eV   |
           -------------------------------------------------

 * finished run on 2025/07/18 at 20:59:35.267
