   * xtb version 6.7.1 (edcfbbe) compiled by 'albert@albert-system' on 2024-07-22

   ID    Z sym.   atoms
    1    6 C      1, 2, 4-49
    2    7 N      3
    3    1 H      50-86

          program call               : xtb data2507/gas/2CzTPE/2CzTPE_gas_T1_crest.xyz --gfn 2 --spinpol --tblite --uhf 2 --ohess vtight --parallel 40 --molden --ceasefiles --namespace data2507/gas/2CzTPE/2CzTPE_gas_T1_finalOpt
 * total energy  :  -124.5029049 Eh     change       -0.4802274E-09 Eh
 * total energy  :  -124.5029476 Eh     change       -0.4264275E-04 Eh
 * total energy  :  -124.5029694 Eh     change       -0.2177799E-04 Eh
 * total energy  :  -124.5029768 Eh     change       -0.7471934E-05 Eh
 * total energy  :  -124.5029873 Eh     change       -0.1048103E-04 Eh
 * total energy  :  -124.5030006 Eh     change       -0.1330965E-04 Eh
 * total energy  :  -124.5030197 Eh     change       -0.1905784E-04 Eh
 * total energy  :  -124.5030426 Eh     change       -0.2295083E-04 Eh
 * total energy  :  -124.5030633 Eh     change       -0.2065914E-04 Eh
 * total energy  :  -124.5030803 Eh     change       -0.1705811E-04 Eh
 * total energy  :  -124.5032537 Eh     change       -0.9390147E-06 Eh
 * total energy  :  -124.5032555 Eh     change       -0.1789123E-05 Eh
 * total energy  :  -124.5032558 Eh     change       -0.3580186E-06 Eh
 * total energy  :  -124.5032564 Eh     change       -0.5955662E-06 Eh
 * total energy  :  -124.5032568 Eh     change       -0.3525388E-06 Eh
 * total energy  :  -124.5032572 Eh     change       -0.3868794E-06 Eh
 * total energy  :  -124.5032573 Eh     change       -0.1826474E-06 Eh
 * total energy  :  -124.5032578 Eh     change       -0.4331385E-06 Eh
 * total energy  :  -124.5032578 Eh     change       -0.4099113E-07 Eh
   *** GEOMETRY OPTIMIZATION CONVERGED AFTER 52 ITERATIONS ***

 final structure:
================
86
 xtb: 6.7.1 (edcfbbe)
C            9.06236737636802       -3.35303448641515       -1.04658942084104
C            9.14273588884391       -2.65387805574296        0.31036806693084
N            9.37737104067515       -1.24267475240854        0.16879851210071
C           10.60911465091853       -0.63896282345876        0.07817827629001
C           11.87834802294156       -1.19403399388616        0.16607472426714
C           12.96451453449309       -0.34766939737739        0.05349331420607
C           12.80311187688254        1.02194218680882       -0.14501436611981
C           11.54499148905946        1.58175123527159       -0.23779446254348
C           10.43688912213427        0.75170910140593       -0.12763720075739
C            9.02264382023245        0.97911719585282       -0.18177985259938
C            8.23550315188340        2.10965359032588       -0.36112662455185
C            6.86474288614556        1.97305642887732       -0.36150920981883
C            6.25050005104035        0.72249530225070       -0.19551890869034
C            4.78774409899836        0.61542416486836       -0.21034886320889
C            4.15017247628013       -0.44807283066744       -0.85101386538153
C            2.77745070407452       -0.54427346824468       -0.86467292351440
C            1.96981320565955        0.41138492723431       -0.23169671711101
C            0.53913809509502        0.25187663104098       -0.27593689082794
C           -0.37955627463092        1.06340485942616        0.29721731962103
C           -1.80039611247401        0.90641987980474        0.25665528751214
C           -2.61212434226806        1.82894233573845        0.94983616509213
C           -3.97437425766776        1.74156640142794        0.94546748456817
C           -4.64279673121997        0.70110354624613        0.24901090515169
C           -6.04420051386801        0.55599190923317        0.27255666247613
C           -6.65138158468690       -0.74660864340597       -0.04139781754021
C           -6.20041609344451       -1.90614167551966        0.66504942316008
C           -5.58582802214675       -1.78355584669966        1.92712157642660
C           -5.11865693474550       -2.88983049574218        2.59926575788452
C           -5.23012547085559       -4.15465517078566        2.03724370317432
C           -5.81171252179580       -4.29562706516719        0.78450546052868
C           -6.29111121797931       -3.19688120631201        0.10707338162214
C           -7.69458147392860       -0.78236991195276       -1.02294012326881
C           -7.75066561319037        0.19224023673525       -2.03757511743137
C           -8.76741041882479        0.19306931363047       -2.96512515836071
C           -9.77245613225976       -0.76322172053899       -2.90811528653614
C           -9.74817442080190       -1.71950560991440       -1.90255378662293
C           -8.72961153228353       -1.73536101133241       -0.97549335414638
C           -6.94885936903168        1.63300466063139        0.59981757260514
C           -6.67541974129421        2.96248144925707        0.24153977889779
C           -7.57696397507667        3.96812194128400        0.51939336827073
C           -8.77244121854682        3.68360247614852        1.16208212292026
C           -9.06568193109309        2.37299297097260        1.51047658763444
C           -8.17472109478646        1.36094287010044        1.22736696742328
C           -3.82106510061825       -0.23949211299926       -0.42673606210291
C           -2.46078716262182       -0.13237310086357       -0.43134441912796
C            2.61709445754252        1.47468252132195        0.41183364605811
C            3.98987893226375        1.57393737026392        0.41726883930754
C            7.02853970912434       -0.41721294750302       -0.02085500478120
C            8.40727637082860       -0.28414006269909       -0.00737231597542
H            9.99291206394626       -3.21954425513204       -1.59349184898777
H            8.88332494677127       -4.41657433179035       -0.91231266148023
H            8.25280404815268       -2.93227270317271       -1.63848059871969
H            9.95443479366842       -3.08219009214798        0.90475828657938
H            8.20885998038970       -2.79673063426973        0.86148621533770
H           12.02320779431007       -2.25377053740924        0.31513190993769
H           13.96198864800053       -0.75735239178148        0.11870088508603
H           13.67821018247304        1.64921989153946       -0.22870766424980
H           11.41947462278164        2.64269871161368       -0.39412063169634
H            8.69331251266864        3.07764205053500       -0.50015435953829
H            6.24220458527594        2.84097830064775       -0.52023601613490
H            4.74291628637741       -1.19185446027807       -1.36422444910700
H            2.30668510830519       -1.37292590656208       -1.37586538833739
H            0.20165310539710       -0.61613658078775       -0.82700168666928
H           -0.03837656409839        1.92657033005020        0.85431117944079
H           -2.13295478105132        2.62027513178443        1.51054207398192
H           -4.55720707864118        2.43997007260641        1.52769038844629
H           -5.50757694123426       -0.80555541919812        2.37903791172600
H           -4.66245941607411       -2.77212516480433        3.57165562895550
H           -4.85920079073619       -5.02014196869327        2.56540210172549
H           -5.88140149872852       -5.27449362654560        0.33164285623400
H           -6.69857436882871       -3.31459579928802       -0.88631474562460
H           -6.96468787394229        0.93075836656297       -2.09784356873283
H           -8.78283425441561        0.94345343070062       -3.74242774866509
H          -10.57155859680837       -0.75737265201265       -3.63409708302141
H          -10.53923829728235       -2.45321090806325       -1.83958576866454
H           -8.74762101232534       -2.45613469833605       -0.17116172970956
H           -5.76811901469840        3.18927259764481       -0.29928616293085
H           -7.35194004845471        4.98352264677126        0.22566096629067
H           -9.47409854404282        4.47473808571868        1.38036827520006
H           -9.99823424795368        2.14310075218975        2.00536046279374
H           -8.40505720031541        0.34405293220477        1.51085803243568
H           -4.29644671600866       -1.03828274730895       -0.97703877358295
H           -1.88155733429797       -0.85987333174277       -0.97923460746149
H            2.03691207475718        2.23248924032253        0.91566079357332
H            4.46180434971548        2.39565604081665        0.93648741653549
H            6.55489779312990       -1.37653496087849        0.12519208657434

 projected vibrational frequencies (cm⁻¹)
eigval :       -0.00    -0.00    -0.00     0.00     0.00     0.00
eigval :        5.49     7.35    11.31    14.91    24.57    28.95
eigval :       37.95    44.97    47.38    50.42    53.43    57.73
eigval :       63.81    75.51    78.15    86.51    92.24    93.08
eigval :       98.05   117.34   138.52   143.27   164.21   170.62
eigval :      190.49   197.73   203.96   209.53   221.24   243.54
eigval :      249.84   262.59   268.55   276.02   288.40   300.13
eigval :      306.39   326.04   349.46   365.08   367.38   369.98
eigval :      372.76   381.43   387.07   390.32   390.99   399.74
eigval :      423.29   435.16   442.19   453.49   461.21   471.70
eigval :      476.82   508.41   516.04   532.41   535.19   540.08
eigval :      561.76   575.52   580.94   583.76   584.64   586.35
eigval :      594.50   598.16   605.36   614.32   617.37   621.44
eigval :      658.55   660.30   665.40   672.60   674.07   677.37
eigval :      686.20   693.93   711.28   742.40   746.32   748.67
eigval :      752.69   769.54   773.33   784.52   807.04   812.82
eigval :      814.92   823.52   829.19   841.57   852.96   854.67
eigval :      857.90   862.00   863.30   868.88   870.71   871.94
eigval :      885.12   895.81   898.55   899.29   903.35   907.32
eigval :      911.95   914.33   919.25   920.14   920.82   923.45
eigval :      924.60   924.73   924.74   926.36   928.73   941.83
eigval :      944.24   965.22   971.37   975.99   984.00   992.93
eigval :      999.81  1005.03  1010.30  1065.18  1073.47  1079.29
eigval :     1080.43  1081.01  1082.43  1087.95  1104.30  1121.68
eigval :     1125.24  1132.05  1136.47  1142.73  1149.20  1158.76
eigval :     1164.16  1173.10  1180.10  1180.52  1181.01  1184.47
eigval :     1192.91  1194.52  1197.95  1207.31  1221.82  1224.88
eigval :     1233.59  1238.92  1249.87  1251.50  1271.69  1275.08
eigval :     1275.43  1279.74  1284.14  1287.63  1292.15  1297.85
eigval :     1313.15  1314.79  1317.20  1324.21  1325.39  1326.15
eigval :     1327.39  1328.49  1340.91  1344.41  1353.74  1359.83
eigval :     1363.87  1371.98  1404.43  1408.40  1420.74  1426.84
eigval :     1431.13  1434.61  1439.72  1442.24  1446.11  1449.86
eigval :     1455.17  1465.60  1469.57  1474.04  1483.94  1487.21
eigval :     1488.78  1499.47  1501.19  1511.15  1541.88  1545.14
eigval :     1545.66  1554.09  1564.11  1568.74  1578.31  1579.72
eigval :     1585.99  1588.78  1601.21  1612.51  1616.46  2957.31
eigval :     2968.73  3040.36  3044.70  3045.84  3051.71  3059.36
eigval :     3061.82  3066.64  3069.47  3070.08  3070.26  3071.92
eigval :     3072.43  3072.52  3072.66  3075.37  3077.57  3078.05
eigval :     3079.23  3080.17  3081.43  3082.27  3082.75  3084.06
eigval :     3084.50  3085.47  3085.83  3086.33  3087.10  3091.18
eigval :     3092.58  3092.89  3093.35  3093.57  3093.96  3094.56

   temp. (K)  partition function   enthalpy   heat capacity  entropy
                                   cal/mol     cal/K/mol   cal/K/mol   J/K/mol
 298.15  VIB  0.432E+21            24475.304    151.023    156.127
         ROT  0.153E+09              888.752      2.981     40.434
         INT  0.661E+29            25364.056    154.004    196.561
         TR   0.152E+29             1481.254      4.968     45.173
         TOT                       26845.3103   158.9717   241.7344  1011.4169

       T/K    H(0)-H(T)+PV         H(T)/Eh          T*S/Eh         G(T)/Eh
   ------------------------------------------------------------------------
    298.15    0.427807E-01    0.723054E+00    0.114856E+00    0.608198E+00
   ------------------------------------------------------------------------

         :::::::::::::::::::::::::::::::::::::::::::::::::::::
         ::                  THERMODYNAMIC                  ::
         :::::::::::::::::::::::::::::::::::::::::::::::::::::
         :: total free energy        -123.895060091266 Eh   ::
         ::.................................................::
         :: total energy             -124.503257814592 Eh   ::
         :: zero point energy           0.680272833119 Eh   ::
         :: G(RRHO) w/o ZPVE           -0.072075109793 Eh   ::
         :: G(RRHO) contrib.            0.608197723326 Eh   ::
         :::::::::::::::::::::::::::::::::::::::::::::::::::::

           -------------------------------------------------
          | TOTAL ENERGY             -124.503257814592 Eh   |
          | TOTAL ENTHALPY           -123.780204256391 Eh   |
          | TOTAL FREE ENERGY        -123.895060091266 Eh   |
          | GRADIENT NORM               0.000171633067 Eh/α |
           -------------------------------------------------

 * finished run on 2025/08/24 at 18:27:18.210
