   * xtb version 6.7.1 (edcfbbe) compiled by 'albert@albert-system' on 2024-07-22

   ID    Z sym.   atoms
    1    6 C      1, 2, 4-49
    2    7 N      3
    3    1 H      50-86

          program call               : xtb data2507/gas/2CzTPE/2CzTPE.xyz --gfn 2 --ohess vtight --parallel 40 --molden --ceasefiles --namespace data2507/gas/2CzTPE/2CzTPE_gas_S0_preOpt
          :  Hamiltonian                  GFN2-xTB          :
 * total energy  :  -124.5369299 Eh     change       -0.4219558E-08 Eh
 * total energy  :  -124.5484900 Eh     change       -0.1156006E-01 Eh
 * total energy  :  -124.5513414 Eh     change       -0.2851445E-02 Eh
 * total energy  :  -124.5526191 Eh     change       -0.1277710E-02 Eh
 * total energy  :  -124.5540715 Eh     change       -0.1452329E-02 Eh
 * total energy  :  -124.5551505 Eh     change       -0.1079024E-02 Eh
 * total energy  :  -124.5561246 Eh     change       -0.9741281E-03 Eh
 * total energy  :  -124.5570868 Eh     change       -0.9622349E-03 Eh
 * total energy  :  -124.5580542 Eh     change       -0.9673374E-03 Eh
 * total energy  :  -124.5589633 Eh     change       -0.9091025E-03 Eh
 * total energy  :  -124.5625980 Eh     change       -0.4147109E-06 Eh
 * total energy  :  -124.5625982 Eh     change       -0.2742034E-06 Eh
 * total energy  :  -124.5625984 Eh     change       -0.2072187E-06 Eh
 * total energy  :  -124.5625986 Eh     change       -0.1436535E-06 Eh
 * total energy  :  -124.5625988 Eh     change       -0.1796452E-06 Eh
 * total energy  :  -124.5625991 Eh     change       -0.3415725E-06 Eh
 * total energy  :  -124.5625995 Eh     change       -0.4208703E-06 Eh
 * total energy  :  -124.5625998 Eh     change       -0.2849666E-06 Eh
 * total energy  :  -124.5625998 Eh     change       -0.2129397E-08 Eh
   *** GEOMETRY OPTIMIZATION CONVERGED AFTER 94 ITERATIONS ***

 final structure:
================
86
 xtb: 6.7.1 (edcfbbe)
C            9.14543394462927        2.77439461039817       -1.69933819815784
C            9.10536076056232        1.31157494551114       -2.14102809210950
N            9.34367938558711        0.41732114932159       -1.04094499919578
C           10.57637543371516       -0.01032505493145       -0.60784224777479
C           11.83671106989958        0.23556113362022       -1.13495140575602
C           12.92506784606603       -0.33600507273512       -0.50445454632314
C           12.77453248725775       -1.13447542801592        0.62734322512959
C           11.52551863808511       -1.38092700279737        1.16047509782295
C           10.41558500967065       -0.81728373101043        0.54478816137184
C            9.00899281067945       -0.85143798535543        0.81998137936832
C            8.23555043593907       -1.45430343735906        1.80373290256312
C            6.87090119411694       -1.26537246695362        1.78585615595478
C            6.25043903770737       -0.48894187075223        0.79638699031911
C            4.79269994966788       -0.31406703483549        0.80955910770023
C            4.10758732668843       -0.08920857110396        2.00277235102485
C            2.74017869985569        0.07977976756229        2.00945297536270
C            1.99239087308823        0.01463799626805        0.82912306168720
C            0.55545468676741        0.18564229241562        0.89898841352237
C           -0.32106227515321       -0.04736051672055       -0.08984969558507
C           -1.75901708749373        0.11035398006740       -0.01585875477485
C           -2.41150913283236        0.74106192273223        1.04782429243926
C           -3.78375599387098        0.85984771843624        1.06818632176085
C           -4.56591135207984        0.33724096626187        0.03760318049860
C           -6.02819842105141        0.47699370571079        0.07069607938897
C           -6.86066889993540       -0.53941012521516       -0.25086688042302
C           -8.31112545334591       -0.34966991715675       -0.41468796106899
C           -8.81717568470108        0.71691067334023       -1.15541731417435
C          -10.18004722790497        0.87091434858107       -1.32123807536362
C          -11.05955660062694       -0.03570499054675       -0.75230625499625
C          -10.56651760914424       -1.10606726511378       -0.02474138689372
C           -9.20347405084422       -1.26705165351259        0.13712535374106
C           -6.38102101555562       -1.91566744036936       -0.45840062760516
C           -6.85603585909464       -2.66809194949376       -1.53101782400706
C           -6.42292461892750       -3.96614711283103       -1.72523914431607
C           -5.52033365779124       -4.53814357893754       -0.84423570177007
C           -5.05727104131703       -3.80521197036628        0.23635420045874
C           -5.48357855452869       -2.50548690164446        0.43003041275697
C           -6.52377332845486        1.80193756889835        0.48015970198553
C           -7.55074112117830        1.92862969835138        1.41349698420653
C           -7.99248139813668        3.17811583321739        1.80395835616594
C           -7.41686130051631        4.32012629724201        1.27137084614000
C           -6.38653837874887        4.20514236916273        0.35311546007516
C           -5.93772459983667        2.95676082239757       -0.03455391602984
C           -3.92063772453020       -0.27451849290182       -1.03711147189399
C           -2.54801296734502       -0.37910754472267       -1.06294681723102
C            2.68483722849697       -0.20896079380008       -0.36446120329661
C            4.05385305801164       -0.36471663030562       -0.37235030019753
C            7.01306342686306        0.11527894356461       -0.19657795994156
C            8.38658817666754       -0.06603367336764       -0.18021564932899
H           10.11733942343955        3.01085545076400       -1.27235699023991
H            8.96596197872948        3.42919259476110       -2.54799860971891
H            8.38401636620377        2.95993233348229       -0.94523486055878
H            9.86523484699328        1.13014701619283       -2.90619502293330
H            8.12831210773013        1.07770214375526       -2.57305942432398
H           11.97327908056741        0.85526977560176       -2.00876941630516
H           13.91582578403739       -0.15814556892435       -0.89664287126332
H           13.65098033569791       -1.56249595442220        1.09093539367522
H           11.40858470428658       -1.99814351946356        2.03864799455070
H            8.69864832884387       -2.06024589100979        2.56810751391792
H            6.25527331054096       -1.74150150515331        2.53452672599800
H            4.66064454858925       -0.02353698422669        2.92861649901693
H            2.23081027888816        0.26123963957677        2.94596934662731
H            0.19060494763234        0.50756195386256        1.86582428675287
H            0.03900847759577       -0.41694053667865       -1.04128714094214
H           -1.83769348302785        1.15485685846522        1.86295839363148
H           -4.26869939240147        1.35191567153491        1.89995411799422
H           -8.13416958746555        1.41887645606151       -1.61094205085276
H          -10.55872904011310        1.70075879857714       -1.90018266370980
H          -12.12481045649817        0.08839738078515       -0.88038639495267
H          -11.24742163968972       -1.81943384736331        0.41677322711372
H           -8.81977758672060       -2.10210540538543        0.70652912363059
H           -7.55908538261442       -2.22204667028842       -2.22059600253211
H           -6.79218563774849       -4.53488402087419       -2.56646215941189
H           -5.18332385390061       -5.55307075516280       -0.99565383128182
H           -4.36234742261192       -4.25035704129475        0.93355517994313
H           -5.13023506462027       -1.94185983464490        1.28104913698598
H           -7.99380863857856        1.04063874186106        1.84000953909885
H           -8.78813256844385        3.26214775270818        2.52995060766425
H           -7.76623559057894        5.29593413372365        1.57522412944251
H           -5.92976142872432        5.09230562892051       -0.06133854906492
H           -5.13435949880850        2.86801661938995       -0.75254744574425
H           -4.50596728411185       -0.65533071991731       -1.86128570082763
H           -2.06759400647549       -0.85348731055848       -1.90745852367563
H            2.14636530459634       -0.25281456608961       -1.29899645577835
H            4.56327392153325       -0.55154852905564       -1.30710070838867
H            6.53532069215842        0.73367318029756       -0.94188097676639

          :  Hamiltonian                  GFN2-xTB          :
         :: gradient norm              0.000038096741 Eh/a0 ::
         :: HOMO-LUMO gap              2.245128924865 eV    ::
         :: SCC energy              -126.968417478902 Eh    ::
         :: -> dispersion             -0.114021729406 Eh    ::
         :: repulsion energy           2.405817659620 Eh    ::

    * Orbital Energies and Occupations

         #    Occupation            Energy/Eh            Energy/eV
      -------------------------------------------------------------
         1        2.0000           -0.6707201             -18.2512
       ...           ...                  ...                  ...
       105        2.0000           -0.4052351             -11.0270
       106        2.0000           -0.4048461             -11.0164
       107        2.0000           -0.4045879             -11.0094
       108        2.0000           -0.4010749             -10.9138
       109        2.0000           -0.4007133             -10.9040
       110        2.0000           -0.3999977             -10.8845
       111        2.0000           -0.3995699             -10.8728
       112        2.0000           -0.3981393             -10.8339
       113        2.0000           -0.3960505             -10.7771
       114        2.0000           -0.3777387             -10.2788
       115        2.0000           -0.3660940              -9.9619
       116        2.0000           -0.3583202              -9.7504
       117        2.0000           -0.3550483              -9.6614 (HOMO)
       118                         -0.2725413              -7.4162 (LUMO)
       119                         -0.2553041              -6.9472
       120                         -0.2389985              -6.5035
       121                         -0.2243830              -6.1058
       122                         -0.2235990              -6.0844
       123                         -0.2202871              -5.9943
       124                         -0.2180102              -5.9324
       125                         -0.2174237              -5.9164
       126                         -0.2162734              -5.8851
       127                         -0.2153225              -5.8592
       128                         -0.2147745              -5.8443
       ...                                ...                  ...
       233                          0.7545753              20.5330
      -------------------------------------------------------------
                  HL-Gap            0.0825070 Eh            2.2451 eV

     #   Z          covCN         q      C6AA      α(0)
     1   6 C        3.752    -0.109    22.654     6.787
     2   6 C        3.739     0.006    20.558     6.470
     3   7 N        2.797    -0.052    22.241     7.004
     4   6 C        3.082     0.045    26.906     8.504
     5   6 C        2.910    -0.053    29.326     8.880
     6   6 C        2.924    -0.034    28.857     8.809
     7   6 C        2.920    -0.043    29.057     8.840
     8   6 C        2.912    -0.033    28.825     8.804
     9   6 C        3.070    -0.019    28.401     8.738
    10   6 C        3.071    -0.021    28.445     8.745
    11   6 C        2.910    -0.034    28.844     8.807
    12   6 C        2.925    -0.047    29.162     8.856
    13   6 C        2.979     0.005    27.909     8.666
    14   6 C        2.978     0.009    27.805     8.650
    15   6 C        2.922    -0.035    28.875     8.812
    16   6 C        2.927    -0.036    28.884     8.814
    17   6 C        2.970     0.011    27.761     8.643
    18   6 C        2.901    -0.039    28.976     8.826
    19   6 C        2.901    -0.040    28.991     8.828
    20   6 C        2.970     0.012    27.738     8.639
    21   6 C        2.922    -0.035    28.870     8.811
    22   6 C        2.922    -0.033    28.831     8.805
    23   6 C        2.979     0.013    27.709     8.635
    24   6 C        2.967    -0.006    28.170     8.706
    25   6 C        2.967    -0.006    28.180     8.707
    26   6 C        2.979     0.015    27.661     8.627
    27   6 C        2.924    -0.032    28.795     8.800
    28   6 C        2.919    -0.030    28.737     8.791
    29   6 C        2.920    -0.031    28.780     8.797
    30   6 C        2.918    -0.030    28.747     8.792
    31   6 C        2.925    -0.032    28.807     8.802
    32   6 C        2.979     0.016    27.660     8.627
    33   6 C        2.925    -0.032    28.808     8.802
    34   6 C        2.918    -0.030    28.747     8.792
    35   6 C        2.920    -0.031    28.778     8.797
    36   6 C        2.919    -0.029    28.734     8.790
    37   6 C        2.924    -0.032    28.791     8.799
    38   6 C        2.979     0.015    27.661     8.627
    39   6 C        2.924    -0.032    28.794     8.800
    40   6 C        2.919    -0.029    28.737     8.791
    41   6 C        2.920    -0.031    28.780     8.797
    42   6 C        2.918    -0.030    28.748     8.792
    43   6 C        2.925    -0.032    28.805     8.801
    44   6 C        2.920    -0.033    28.822     8.804
    45   6 C        2.927    -0.035    28.878     8.813
    46   6 C        2.922    -0.035    28.874     8.812
    47   6 C        2.923    -0.035    28.882     8.813
    48   6 C        2.916    -0.058    29.448     8.899
    49   6 C        3.079     0.044    26.923     8.507
    50   1 H        0.925     0.046     2.371     2.408
    51   1 H        0.925     0.043     2.404     2.425
    52   1 H        0.925     0.046     2.369     2.407
    53   1 H        0.924     0.047     2.358     2.401
    54   1 H        0.924     0.047     2.362     2.404
    55   1 H        0.926     0.022     2.700     2.569
    56   1 H        0.926     0.026     2.641     2.542
    57   1 H        0.926     0.025     2.652     2.547
    58   1 H        0.926     0.029     2.603     2.523
    59   1 H        0.926     0.030     2.592     2.518
    60   1 H        0.926     0.028     2.610     2.526
    61   1 H        0.926     0.031     2.570     2.507
    62   1 H        0.925     0.028     2.609     2.526
    63   1 H        0.925     0.034     2.530     2.488
    64   1 H        0.925     0.034     2.533     2.489
    65   1 H        0.926     0.032     2.563     2.504
    66   1 H        0.925     0.028     2.621     2.532
    67   1 H        0.926     0.028     2.608     2.525
    68   1 H        0.926     0.029     2.604     2.523
    69   1 H        0.926     0.029     2.603     2.523
    70   1 H        0.926     0.029     2.605     2.524
    71   1 H        0.926     0.028     2.618     2.530
    72   1 H        0.926     0.028     2.620     2.531
    73   1 H        0.926     0.029     2.606     2.524
    74   1 H        0.926     0.029     2.602     2.523
    75   1 H        0.926     0.029     2.599     2.521
    76   1 H        0.926     0.029     2.606     2.524
    77   1 H        0.926     0.029     2.607     2.525
    78   1 H        0.926     0.029     2.603     2.523
    79   1 H        0.926     0.029     2.604     2.523
    80   1 H        0.926     0.029     2.605     2.524
    81   1 H        0.926     0.028     2.619     2.531
    82   1 H        0.926     0.028     2.614     2.528
    83   1 H        0.925     0.029     2.603     2.523
    84   1 H        0.926     0.030     2.581     2.512
    85   1 H        0.926     0.028     2.614     2.528
    86   1 H        0.926     0.025     2.657     2.549

molecular dipole:
                 x           y           z       tot (Debye)
 q only:        0.022       0.489      -0.517
   full:       -0.012       0.534      -0.602       2.046

 projected vibrational frequencies (cm⁻¹)
eigval :       -0.00    -0.00    -0.00     0.00     0.00     0.00
eigval :        5.15     7.36    13.30    19.21    24.20    38.74
eigval :       39.29    43.59    47.47    49.05    55.32    57.16
eigval :       65.39    66.83    70.17    77.84    79.27    92.47
eigval :       96.15   105.17   137.86   146.54   151.24   170.11
eigval :      185.41   189.65   207.00   217.38   225.21   241.10
eigval :      246.87   249.04   263.89   267.99   281.66   292.04
eigval :      308.72   334.50   362.04   364.13   370.51   371.73
eigval :      373.96   375.39   377.58   391.12   409.76   415.97
eigval :      422.11   433.05   441.57   458.20   472.33   476.13
eigval :      501.77   522.30   534.02   536.99   542.17   556.82
eigval :      562.35   577.74   582.22   584.92   587.61   592.12
eigval :      597.02   597.88   607.70   621.02   622.21   639.49
eigval :      667.50   671.89   673.71   676.69   677.59   684.02
eigval :      688.32   700.48   711.49   742.11   749.45   759.36
eigval :      762.45   769.49   772.59   784.42   806.59   815.55
eigval :      816.93   830.52   831.54   854.79   857.46   862.69
eigval :      863.13   865.21   869.29   877.29   877.89   877.96
eigval :      895.77   899.18   901.33   902.73   902.95   908.05
eigval :      914.89   915.51   919.42   920.66   925.85   926.35
eigval :      929.73   930.01   930.05   931.51   931.85   932.12
eigval :      944.94   976.38   981.34   987.56   993.63  1000.21
eigval :     1010.17  1012.76  1033.71  1065.30  1073.41  1080.37
eigval :     1084.10  1085.00  1085.85  1088.19  1121.82  1122.76
eigval :     1124.14  1136.29  1141.54  1146.53  1158.82  1163.75
eigval :     1165.53  1182.10  1182.13  1182.17  1184.43  1193.35
eigval :     1198.97  1199.60  1200.92  1204.39  1218.61  1222.82
eigval :     1232.23  1234.31  1248.14  1250.61  1272.34  1275.17
eigval :     1281.57  1282.91  1284.46  1285.75  1291.04  1293.97
eigval :     1304.12  1312.21  1312.65  1317.82  1319.21  1321.72
eigval :     1326.06  1327.82  1336.07  1342.32  1353.41  1362.04
eigval :     1372.18  1405.29  1407.31  1410.12  1430.00  1431.22
eigval :     1432.04  1436.05  1442.70  1466.95  1468.72  1472.71
eigval :     1474.57  1476.54  1486.18  1488.61  1489.00  1499.59
eigval :     1504.97  1549.96  1553.95  1566.07  1573.65  1578.01
eigval :     1578.78  1579.91  1587.37  1588.95  1594.43  1595.08
eigval :     1599.49  1602.99  1612.65  1616.39  1642.57  2957.84
eigval :     2968.98  3040.74  3044.82  3045.86  3051.87  3060.94
eigval :     3065.36  3068.13  3068.84  3069.03  3069.64  3070.93
eigval :     3071.71  3072.31  3072.50  3072.92  3073.05  3077.68
eigval :     3078.95  3079.11  3079.44  3079.74  3080.87  3082.50
eigval :     3085.12  3085.63  3085.87  3086.11  3086.57  3090.77
eigval :     3091.20  3091.91  3092.26  3092.35  3092.64  3094.08

   temp. (K)  partition function   enthalpy   heat capacity  entropy
                                   cal/mol     cal/K/mol   cal/K/mol   J/K/mol
 298.15  VIB  0.385E+21            24417.926    150.016    156.309
         ROT  0.149E+09              888.752      2.981     40.384
         INT  0.574E+29            25306.678    152.997    196.693
         TR   0.152E+29             1481.254      4.968     45.173
         TOT                       26787.9319   157.9649   241.8669  1011.9711

       T/K    H(0)-H(T)+PV         H(T)/Eh          T*S/Eh         G(T)/Eh
   ------------------------------------------------------------------------
    298.15    0.426893E-01    0.725416E+00    0.114919E+00    0.610497E+00
   ------------------------------------------------------------------------

         :::::::::::::::::::::::::::::::::::::::::::::::::::::
         ::                  THERMODYNAMIC                  ::
         :::::::::::::::::::::::::::::::::::::::::::::::::::::
         :: total free energy        -123.952102623788 Eh   ::
         ::.................................................::
         :: total energy             -124.562599819281 Eh   ::
         :: zero point energy           0.682726672030 Eh   ::
         :: G(RRHO) w/o ZPVE           -0.072229476537 Eh   ::
         :: G(RRHO) contrib.            0.610497195493 Eh   ::
         :::::::::::::::::::::::::::::::::::::::::::::::::::::

           -------------------------------------------------
          | TOTAL ENERGY             -124.562599819281 Eh   |
          | TOTAL ENTHALPY           -123.837183860464 Eh   |
          | TOTAL FREE ENERGY        -123.952102623788 Eh   |
          | GRADIENT NORM               0.000038094282 Eh/α |
          | HOMO-LUMO GAP               2.245128934861 eV   |
           -------------------------------------------------

 * finished run on 2025/08/24 at 18:11:05.921
