   * xtb version 6.7.1 (edcfbbe) compiled by 'albert@albert-system' on 2024-07-22

   ID    Z sym.   atoms
    1    6 C      1, 2, 4-49
    2    7 N      3
    3    1 H      50-86

          program call               : xtb data2507/gas/2CzTPE/2CzTPE_gas_S0_finalOpt.xtbopt.xyz --gfn 2 --spinpol --tblite --uhf 2 --ohess vtight --parallel 40 --molden --ceasefiles --namespace data2507/gas/2CzTPE/2CzTPE_gas_T1_preOpt
 * total energy  :  -124.4831760 Eh     change       -0.1455849E-07 Eh
 * total energy  :  -124.4911662 Eh     change       -0.7990203E-02 Eh
 * total energy  :  -124.4939228 Eh     change       -0.2756594E-02 Eh
 * total energy  :  -124.4943785 Eh     change       -0.4557766E-03 Eh
 * total energy  :  -124.4949605 Eh     change       -0.5819538E-03 Eh
 * total energy  :  -124.4954729 Eh     change       -0.5124298E-03 Eh
 * total energy  :  -124.4960974 Eh     change       -0.6245159E-03 Eh
 * total energy  :  -124.4968250 Eh     change       -0.7275183E-03 Eh
 * total energy  :  -124.4974716 Eh     change       -0.6466706E-03 Eh
 * total energy  :  -124.4978974 Eh     change       -0.4257673E-03 Eh
 * total energy  :  -124.5032241 Eh     change       -0.7103725E-06 Eh
 * total energy  :  -124.5032249 Eh     change       -0.8609845E-06 Eh
 * total energy  :  -124.5032257 Eh     change       -0.7975352E-06 Eh
 * total energy  :  -124.5032265 Eh     change       -0.7670940E-06 Eh
 * total energy  :  -124.5032274 Eh     change       -0.9240535E-06 Eh
 * total energy  :  -124.5032285 Eh     change       -0.1047257E-05 Eh
 * total energy  :  -124.5032298 Eh     change       -0.1343031E-05 Eh
 * total energy  :  -124.5032313 Eh     change       -0.1505083E-05 Eh
 * total energy  :  -124.5032314 Eh     change       -0.2739928E-07 Eh
   *** GEOMETRY OPTIMIZATION CONVERGED AFTER 122 ITERATIONS ***

 final structure:
================
86
 xtb: 6.7.1 (edcfbbe)
C            8.97463270586808        2.24505658826219       -2.34453504699946
C            9.04163286039020        0.71794738186377       -2.35149555185663
N            9.30543812300783        0.19093525058429       -1.04029783145584
C           10.54975577072348       -0.01385838664346       -0.49303982974484
C           11.80650239060174        0.15855367759872       -1.05659742153974
C           12.91035247762432       -0.13902005585775       -0.28089459222095
C           12.77840828984978       -0.59618250176709        1.02864883174964
C           11.53290315960410       -0.76627047777562        1.59845604663856
C           10.40747980416267       -0.47379596185169        0.83894976845670
C            8.99884832445371       -0.52446442695200        1.09968823972935
C            8.23641193816581       -0.88540977083722        2.20348337798360
C            6.86332910136312       -0.81855070593897        2.11457767640904
C            6.22294918860151       -0.38648964623640        0.94338445787102
C            4.75856962041672       -0.32873104735707        0.88460232992865
C            4.10418307214655        0.72926806810604        0.25093949909835
C            2.73046247234964        0.78185739284909        0.18330086346264
C            1.93910705042666       -0.23087903763920        0.74133584747863
C            0.50004798796730       -0.24597280946587        0.68662915518319
C           -0.29424657545671        0.68677294223475        0.11233491920181
C           -1.72245418790161        0.66325682052898        0.04129525091101
C           -2.39375195029449        1.71322207379753       -0.61973588166257
C           -3.75440422835483        1.75105012938320       -0.72404960005124
C           -4.56272354441198        0.71851357708283       -0.18136517847773
C           -5.96432203201521        0.70049796291777       -0.32756961051473
C           -6.69749289134834       -0.56748409197556       -0.18811016204416
C           -7.81735633959678       -0.60178472837960        0.70484425764101
C           -8.91544183127636       -1.45628286543497        0.49040206890389
C          -10.00077092239164       -1.43911299445406        1.33822639700343
C          -10.03248856600077       -0.57862312344041        2.42671192074897
C           -8.96555378665673        0.28192507403968        2.64784619913883
C           -7.88056985431333        0.27955240076968        1.80112408721906
C           -6.28155920517705       -1.69332452185975       -0.96700648599651
C           -5.55497436935636       -1.51110350683608       -2.16051829746893
C           -5.12191109179983       -2.58846718538163       -2.89918595735739
C           -5.38047150412377       -3.88443993579893       -2.47303218693132
C           -6.07444781808368       -4.08699792947201       -1.28780665021405
C           -6.52023823984541       -3.01651942662142       -0.54530712845624
C           -6.74803785666715        1.87703594184260       -0.62117114812216
C           -7.93463095481024        1.76935005880865       -1.36358155487102
C           -8.71313896815256        2.87684348780130       -1.61958002098936
C           -8.34474176093179        4.12172711710511       -1.13005809212724
C           -7.18885679987158        4.24313584002254       -0.37345888502959
C           -6.39890850250902        3.14154665085389       -0.12113230913148
C           -3.88166504077993       -0.34731316919256        0.46395691995617
C           -2.52224548676683       -0.36558444111687        0.57982804074516
C            2.60330267643805       -1.28843254483927        1.37913936264773
C            3.97663586108475       -1.33518616296599        1.45325760218462
C            6.97608911442640       -0.01495987712322       -0.16539617938719
C            8.35680254974215       -0.09228216192769       -0.08601918351724
H            9.91813218193579        2.66076121742131       -1.99839174081271
H            8.77265406430180        2.61777319793248       -3.34528144091563
H            8.18504764296391        2.58321068290881       -1.67746204762181
H            9.83325938229843        0.38090834358699       -3.02634432816007
H            8.09460983628139        0.30291151805255       -2.70798351728095
H           11.92844548017179        0.51598127477190       -2.06833837987648
H           13.89862606590345       -0.01243502343194       -0.69842543820405
H           13.66658279321097       -0.81726890959633        1.60183065676303
H           11.43025012024184       -1.11841960123787        2.61396168514245
H            8.71485512758737       -1.21108241216375        3.11504222400242
H            6.25967124233655       -1.07821618337657        2.97146073837200
H            4.68814434445792        1.53310128046558       -0.17457348070598
H            2.26314847756192        1.62097479461538       -0.30904364694784
H            0.04318977361672       -1.10705711365569        1.15638007516440
H            0.16508893211451        1.54897580417768       -0.35405211026361
H           -1.80524268663580        2.50336993288071       -1.06651157937891
H           -4.22642323648625        2.54804328659192       -1.27943796920819
H           -8.92404706108446       -2.09732379595165       -0.37893720598619
H          -10.83788669047387       -2.09560407868613        1.14762937668193
H          -10.88420806146579       -0.57184611735170        3.09016882019201
H           -8.98610002407973        0.95820650634745        3.49031182345690
H           -7.04796779832987        0.94156006565492        1.98908833526266
H           -5.36142147282993       -0.50679193898437       -2.50802985305432
H           -4.57711352612916       -2.42341600618933       -3.81760939226741
H           -5.03639173327201       -4.72756147298120       -3.05298627039400
H           -6.25938091952653       -5.09299257364298       -0.93872362505927
H           -7.01707366437718       -3.18787860912857        0.39833619417499
H           -8.22195547046312        0.80485700769943       -1.75686422961609
H           -9.61598752787948        2.77370479865869       -2.20408227934399
H           -8.95863701501786        4.98770784590478       -1.32774601651193
H           -6.90784350079966        5.20568744612327        0.02963929024212
H           -5.52544720064900        3.23987116157411        0.50695512369138
H           -4.46620881526198       -1.14431061943508        0.89978585620835
H           -2.05346564895585       -1.18850345420348        1.09741088286481
H            2.01915661632768       -2.08613719101064        1.81714006811899
H            4.45877946545582       -2.17378847669474        1.93444309672682
H            6.48164902931019        0.30013734788346       -1.07215013663790

 projected vibrational frequencies (cm⁻¹)
eigval :       -0.00    -0.00    -0.00     0.00     0.00     0.00
eigval :        4.92     6.77    11.17    16.07    21.10    29.54
eigval :       38.12    46.86    47.18    49.94    53.64    56.34
eigval :       65.91    70.73    77.54    84.14    92.20    95.08
eigval :      104.98   113.42   138.40   144.97   163.22   173.40
eigval :      190.63   197.52   200.88   212.15   218.77   240.43
eigval :      249.71   258.90   268.98   276.20   290.89   300.03
eigval :      306.48   325.11   356.34   365.77   367.32   368.79
eigval :      371.02   382.43   387.06   390.03   390.69   398.90
eigval :      422.60   434.83   436.93   453.38   463.64   471.46
eigval :      477.86   507.28   516.62   532.58   534.71   540.21
eigval :      561.55   575.75   581.19   583.73   584.61   586.29
eigval :      593.88   598.56   604.66   614.38   617.90   621.73
eigval :      658.50   660.31   665.25   672.64   673.64   677.30
eigval :      686.16   693.83   711.23   742.39   746.29   748.63
eigval :      752.46   769.14   773.18   784.64   807.11   812.56
eigval :      814.40   823.10   829.20   841.47   853.00   855.24
eigval :      857.75   861.43   862.80   868.80   870.55   871.87
eigval :      885.01   895.45   898.61   898.98   903.57   907.86
eigval :      911.69   913.76   918.81   919.75   920.62   923.36
eigval :      924.51   924.62   925.23   926.19   928.75   942.09
eigval :      944.06   965.28   970.91   975.88   983.84   992.87
eigval :      999.72  1004.99  1010.43  1064.79  1073.52  1079.37
eigval :     1080.42  1080.79  1082.63  1087.86  1105.61  1121.75
eigval :     1125.43  1132.44  1135.87  1142.61  1149.32  1158.83
eigval :     1163.83  1173.37  1179.94  1180.33  1180.78  1184.43
eigval :     1192.83  1194.58  1197.85  1207.28  1221.52  1225.59
eigval :     1232.69  1239.16  1250.06  1251.24  1271.78  1274.50
eigval :     1275.20  1279.73  1285.79  1287.92  1291.67  1297.88
eigval :     1311.51  1314.29  1317.20  1324.44  1324.89  1326.09
eigval :     1327.96  1328.39  1340.96  1344.46  1353.79  1359.67
eigval :     1363.80  1371.97  1403.14  1409.60  1420.62  1426.88
eigval :     1431.11  1434.64  1439.38  1442.44  1445.75  1449.76
eigval :     1455.09  1464.68  1469.22  1474.96  1483.77  1486.80
eigval :     1488.06  1498.76  1502.04  1511.94  1541.94  1545.16
eigval :     1545.82  1553.81  1564.13  1568.82  1578.30  1579.77
eigval :     1586.08  1588.68  1601.29  1612.80  1616.75  2957.37
eigval :     2968.70  3040.33  3044.81  3045.98  3051.48  3059.32
eigval :     3062.80  3067.53  3069.67  3070.04  3070.49  3071.24
eigval :     3071.90  3072.41  3072.54  3072.61  3077.87  3079.22
eigval :     3079.53  3081.52  3081.75  3082.76  3082.98  3083.92
eigval :     3084.85  3085.64  3085.87  3086.38  3087.38  3091.32
eigval :     3091.89  3092.72  3092.85  3093.78  3094.21  3094.71

   temp. (K)  partition function   enthalpy   heat capacity  entropy
                                   cal/mol     cal/K/mol   cal/K/mol   J/K/mol
 298.15  VIB  0.559E+21            24483.916    151.026    156.403
         ROT  0.152E+09              888.752      2.981     40.419
         INT  0.850E+29            25372.669    154.007    196.822
         TR   0.152E+29             1481.254      4.968     45.173
         TOT                       26853.9226   158.9755   241.9953  1012.5082

       T/K    H(0)-H(T)+PV         H(T)/Eh          T*S/Eh         G(T)/Eh
   ------------------------------------------------------------------------
    298.15    0.427944E-01    0.723036E+00    0.114980E+00    0.608057E+00
   ------------------------------------------------------------------------

         :::::::::::::::::::::::::::::::::::::::::::::::::::::
         ::                  THERMODYNAMIC                  ::
         :::::::::::::::::::::::::::::::::::::::::::::::::::::
         :: total free energy        -123.895174807052 Eh   ::
         ::.................................................::
         :: total energy             -124.503231376332 Eh   ::
         :: zero point energy           0.680241878879 Eh   ::
         :: G(RRHO) w/o ZPVE           -0.072185309598 Eh   ::
         :: G(RRHO) contrib.            0.608056569280 Eh   ::
         :::::::::::::::::::::::::::::::::::::::::::::::::::::

           -------------------------------------------------
          | TOTAL ENERGY             -124.503231376332 Eh   |
          | TOTAL ENTHALPY           -123.780195047806 Eh   |
          | TOTAL FREE ENERGY        -123.895174807052 Eh   |
          | GRADIENT NORM               0.000056297816 Eh/α |
           -------------------------------------------------

 * finished run on 2025/08/24 at 18:19:37.617
