   * xtb version 6.7.1 (edcfbbe) compiled by 'albert@albert-system' on 2024-07-22

   ID    Z sym.   atoms
    1    6 C      1, 2, 4-49
    2    7 N      3
    3    1 H      50-86

          program call               : xtb data2507/gas/2CzTPE/2CzTPE_gas_S0_crest.xyz --gfn 2 --ohess vtight --parallel 40 --molden --ceasefiles --namespace data2507/gas/2CzTPE/2CzTPE_gas_S0_finalOpt
          :  Hamiltonian                  GFN2-xTB          :
 * total energy  :  -124.5626912 Eh     change       -0.4196394E-08 Eh
 * total energy  :  -124.5626923 Eh     change       -0.1154798E-05 Eh
 * total energy  :  -124.5626938 Eh     change       -0.1499789E-05 Eh
 * total energy  :  -124.5626963 Eh     change       -0.2466630E-05 Eh
 * total energy  :  -124.5626972 Eh     change       -0.8863151E-06 Eh
 * total energy  :  -124.5626984 Eh     change       -0.1177206E-05 Eh
 * total energy  :  -124.5627007 Eh     change       -0.2370123E-05 Eh
 * total energy  :  -124.5627027 Eh     change       -0.1991226E-05 Eh
 * total energy  :  -124.5627037 Eh     change       -0.1020628E-05 Eh
 * total energy  :  -124.5627047 Eh     change       -0.9734146E-06 Eh
 * total energy  :  -124.5627098 Eh     change       -0.5500465E-06 Eh
 * total energy  :  -124.5627103 Eh     change       -0.5212748E-06 Eh
 * total energy  :  -124.5627110 Eh     change       -0.7439038E-06 Eh
 * total energy  :  -124.5627119 Eh     change       -0.8525717E-06 Eh
 * total energy  :  -124.5627125 Eh     change       -0.6763441E-06 Eh
 * total energy  :  -124.5627131 Eh     change       -0.5824040E-06 Eh
 * total energy  :  -124.5627138 Eh     change       -0.6989641E-06 Eh
 * total energy  :  -124.5627146 Eh     change       -0.7397367E-06 Eh
 * total energy  :  -124.5627146 Eh     change       -0.2611458E-08 Eh
   *** GEOMETRY OPTIMIZATION CONVERGED AFTER 22 ITERATIONS ***

 final structure:
================
86
 xtb: 6.7.1 (edcfbbe)
C            8.85557404151651        2.19884863940516       -2.70943599794771
C            8.98836107717175        0.67853871641011       -2.62179444553463
N            9.29886428122265        0.24788981287891       -1.28587470207781
C           10.56071424846012        0.12740276839014       -0.75382693835577
C           11.79850162202940        0.31005449605053       -1.35487176500954
C           12.92807712451979        0.10817314242838       -0.58545553866329
C           12.83967094343710       -0.26499474965599        0.75399527810490
C           11.61308433934922       -0.44472175372637        1.36077943965327
C           10.46253152699391       -0.24749269752356        0.60838828292386
C            9.06208732039904       -0.33310663576926        0.90312325071071
C            8.33599232884739       -0.64575874091911        2.04529891060135
C            6.95962045810330       -0.63140541608131        1.98365480968083
C            6.28104660905843       -0.30083025299851        0.80155771887205
C            4.81336706942812       -0.28768140256538        0.77556997497415
C            4.11707860654436        0.71558190998908        0.10135201523204
C            2.73990358558046        0.73230879309901        0.07171565178954
C            1.99264248196242       -0.26115710740990        0.71175868872447
C            0.54493271728222       -0.30157761904259        0.71256286560787
C           -0.27761340889440        0.55720721790079        0.09010589708682
C           -1.72497926699249        0.51797143153657        0.08808072523103
C           -2.42278250288684        1.46535934264939       -0.66934433264271
C           -3.79936816224689        1.47823710546424       -0.71083117385923
C           -4.54150338855186        0.53081866278998       -0.00563586036251
C           -6.00969590742915        0.56091137465345       -0.04457005025976
C           -6.75773114467572       -0.55827688856569       -0.17613324128752
C           -8.22131520257298       -0.55061910075045       -0.01882978613572
C           -9.02519473218886       -1.24330436332485       -0.92234353731569
C          -10.39948426985576       -1.25247040439925       -0.77651097405685
C          -10.99174488637386       -0.58326758637586        0.28155056288311
C          -10.20000874139309        0.09129892364911        1.19658571735083
C           -8.82639658938984        0.10832723717927        1.04982178144476
C           -6.16771924493959       -1.86953707873449       -0.49160717381718
C           -5.21269893887663       -2.00506523402956       -1.49766001260681
C           -4.68073418262057       -3.24445380203697       -1.79678201939689
C           -5.09394330934691       -4.36825004275091       -1.09986013071875
C           -6.05309426253624       -4.24671291576032       -0.10825338751394
C           -6.59168629579110       -3.00915458223306        0.18946190236375
C           -6.61161395599491        1.90068709850315        0.06724093666873
C           -7.62932067593180        2.30599574933562       -0.79390284560751
C           -8.17062168775024        3.57304464181682       -0.69146362898249
C           -7.70527362884686        4.45549709483861        0.26970800463261
C           -6.68516382305029        4.06683584070287        1.12194663175493
C           -6.13684587400652        2.80245927150800        1.01765823118314
C           -3.85324364929767       -0.40654252706089        0.76597075980678
C           -2.47724656187618       -0.41285461120583        0.81246371683937
C            2.69651286091662       -1.26443726038303        1.38679176568221
C            4.07378035050468       -1.27749594605534        1.42146950166790
C            6.99680797216048        0.01859116568443       -0.34684248864584
C            8.38092235701825       -0.00521564546002       -0.29396054480421
H            9.78658441010245        2.67492622232227       -2.41046930374910
H            8.61883454168238        2.49830424138145       -3.72702516420094
H            8.06483564743470        2.54537455609803       -2.04804661600949
H            9.78120104561325        0.33264373367529       -3.29062903674013
H            8.05367257095734        0.20227394880287       -2.93130305736874
H           11.88659119423286        0.60357363834504       -2.39041593509766
H           13.90228540411445        0.24496074938196       -1.03183462302626
H           13.74680832836015       -0.41232985723424        1.32115477080290
H           11.54417787194762       -0.73155858524925        2.39942733968585
H            8.84430381380191       -0.89289679467829        2.96532505640505
H            6.38295245055151       -0.85317928429162        2.86932862814039
H            4.66879693215414        1.50676159501484       -0.38626563591065
H            2.23833603555043        1.53174779385353       -0.45194381341336
H            0.12390436141581       -1.12320996958860        1.27733376668048
H            0.14383638607606        1.37179123631613       -0.48455358042852
H           -1.86747918664104        2.20194770002424       -1.23366580939814
H           -4.31521011938913        2.21871428981450       -1.30623449806810
H           -8.56408642899856       -1.76451370375754       -1.74969036171778
H          -11.01144180477567       -1.78517504602974       -1.49009469324365
H          -12.06571200424197       -0.59206941120618        0.39596291531930
H          -10.65585011095564        0.60457805666205        2.03082677166993
H           -8.21176488532552        0.62510758989808        1.77223368891454
H           -4.89733613978192       -1.13320359865689       -2.05191325435113
H           -3.94182627933453       -3.33530536213632       -2.57969142389731
H           -4.67417270375335       -5.33576818570699       -1.33287246526146
H           -6.38385064482455       -5.12054331464179        0.43441602232165
H           -7.33863307846304       -2.91510579352934        0.96532120087264
H           -7.98650843659980        1.62483864400442       -1.55234558908309
H           -8.95782632595544        3.87535264375748       -1.36682267121092
H           -8.13236750738441        5.44426334310986        0.35047043674084
H           -6.31424053692754        4.75269428370325        1.86992519951047
H           -5.34149919335417        2.49940614474852        1.68426779546945
H           -4.41209816095459       -1.12703061779136        1.34528992160492
H           -1.98001415466119       -1.14746564190637        1.42688084887257
H            2.14478814106179       -2.04777246466854        1.88826671142236
H            4.58927524866006       -2.07554236160256        1.93591823790110
H            6.47261305391869        0.25541169730922       -1.26071099582554

          :  Hamiltonian                  GFN2-xTB          :
         :: gradient norm              0.000037260988 Eh/a0 ::
         :: HOMO-LUMO gap              2.224013288728 eV    ::
         :: SCC energy              -126.968421463581 Eh    ::
         :: -> dispersion             -0.114110656609 Eh    ::
         :: repulsion energy           2.405706890886 Eh    ::

    * Orbital Energies and Occupations

         #    Occupation            Energy/Eh            Energy/eV
      -------------------------------------------------------------
         1        2.0000           -0.6708160             -18.2538
       ...           ...                  ...                  ...
       105        2.0000           -0.4053718             -11.0307
       106        2.0000           -0.4047999             -11.0152
       107        2.0000           -0.4043967             -11.0042
       108        2.0000           -0.4011268             -10.9152
       109        2.0000           -0.4007768             -10.9057
       110        2.0000           -0.4000697             -10.8864
       111        2.0000           -0.3996246             -10.8743
       112        2.0000           -0.3982819             -10.8378
       113        2.0000           -0.3961241             -10.7791
       114        2.0000           -0.3778521             -10.2819
       115        2.0000           -0.3661567              -9.9636
       116        2.0000           -0.3584077              -9.7528
       117        2.0000           -0.3548429              -9.6558 (HOMO)
       118                         -0.2731119              -7.4318 (LUMO)
       119                         -0.2554278              -6.9505
       120                         -0.2391020              -6.5063
       121                         -0.2245100              -6.1092
       122                         -0.2236538              -6.0859
       123                         -0.2204201              -5.9979
       124                         -0.2181045              -5.9349
       125                         -0.2173635              -5.9148
       126                         -0.2163409              -5.8869
       127                         -0.2151786              -5.8553
       128                         -0.2149259              -5.8484
       ...                                ...                  ...
       233                          0.7545879              20.5334
      -------------------------------------------------------------
                  HL-Gap            0.0817310 Eh            2.2240 eV

     #   Z          covCN         q      C6AA      α(0)
     1   6 C        3.752    -0.109    22.646     6.786
     2   6 C        3.739     0.006    20.561     6.470
     3   7 N        2.797    -0.052    22.241     7.004
     4   6 C        3.082     0.045    26.906     8.504
     5   6 C        2.910    -0.053    29.325     8.880
     6   6 C        2.924    -0.034    28.856     8.809
     7   6 C        2.920    -0.043    29.057     8.840
     8   6 C        2.912    -0.033    28.825     8.804
     9   6 C        3.070    -0.019    28.400     8.738
    10   6 C        3.070    -0.021    28.444     8.745
    11   6 C        2.910    -0.034    28.844     8.807
    12   6 C        2.925    -0.047    29.161     8.856
    13   6 C        2.979     0.005    27.908     8.666
    14   6 C        2.978     0.009    27.804     8.649
    15   6 C        2.923    -0.036    28.885     8.814
    16   6 C        2.922    -0.035    28.873     8.812
    17   6 C        2.970     0.011    27.762     8.643
    18   6 C        2.901    -0.039    28.974     8.826
    19   6 C        2.901    -0.040    28.994     8.829
    20   6 C        2.970     0.012    27.738     8.639
    21   6 C        2.927    -0.036    28.888     8.814
    22   6 C        2.921    -0.034    28.836     8.806
    23   6 C        2.979     0.013    27.710     8.635
    24   6 C        2.967    -0.006    28.169     8.706
    25   6 C        2.967    -0.006    28.179     8.707
    26   6 C        2.979     0.015    27.662     8.627
    27   6 C        2.925    -0.032    28.807     8.802
    28   6 C        2.918    -0.030    28.748     8.792
    29   6 C        2.920    -0.031    28.780     8.797
    30   6 C        2.919    -0.029    28.737     8.791
    31   6 C        2.924    -0.032    28.795     8.800
    32   6 C        2.978     0.016    27.658     8.627
    33   6 C        2.924    -0.032    28.790     8.799
    34   6 C        2.919    -0.029    28.734     8.790
    35   6 C        2.920    -0.031    28.779     8.797
    36   6 C        2.918    -0.030    28.747     8.792
    37   6 C        2.925    -0.032    28.808     8.802
    38   6 C        2.979     0.015    27.660     8.627
    39   6 C        2.924    -0.032    28.794     8.800
    40   6 C        2.919    -0.030    28.737     8.791
    41   6 C        2.920    -0.031    28.780     8.797
    42   6 C        2.918    -0.030    28.747     8.792
    43   6 C        2.925    -0.032    28.803     8.801
    44   6 C        2.921    -0.033    28.817     8.803
    45   6 C        2.922    -0.034    28.856     8.809
    46   6 C        2.927    -0.035    28.881     8.813
    47   6 C        2.922    -0.035    28.875     8.812
    48   6 C        2.916    -0.058    29.447     8.898
    49   6 C        3.079     0.044    26.922     8.507
    50   1 H        0.925     0.046     2.372     2.408
    51   1 H        0.925     0.043     2.404     2.425
    52   1 H        0.925     0.046     2.377     2.411
    53   1 H        0.924     0.047     2.356     2.400
    54   1 H        0.924     0.047     2.358     2.402
    55   1 H        0.926     0.022     2.700     2.570
    56   1 H        0.926     0.026     2.641     2.541
    57   1 H        0.926     0.025     2.652     2.547
    58   1 H        0.926     0.029     2.602     2.523
    59   1 H        0.926     0.030     2.592     2.518
    60   1 H        0.926     0.028     2.609     2.526
    61   1 H        0.926     0.028     2.617     2.530
    62   1 H        0.926     0.030     2.583     2.513
    63   1 H        0.925     0.034     2.535     2.490
    64   1 H        0.925     0.034     2.537     2.491
    65   1 H        0.925     0.028     2.609     2.526
    66   1 H        0.926     0.027     2.626     2.534
    67   1 H        0.926     0.028     2.620     2.531
    68   1 H        0.926     0.029     2.605     2.524
    69   1 H        0.926     0.029     2.603     2.523
    70   1 H        0.926     0.029     2.602     2.523
    71   1 H        0.926     0.029     2.606     2.525
    72   1 H        0.926     0.029     2.608     2.525
    73   1 H        0.926     0.029     2.601     2.522
    74   1 H        0.926     0.029     2.603     2.523
    75   1 H        0.926     0.029     2.604     2.524
    76   1 H        0.926     0.028     2.618     2.530
    77   1 H        0.926     0.028     2.610     2.526
    78   1 H        0.926     0.029     2.604     2.523
    79   1 H        0.926     0.029     2.604     2.523
    80   1 H        0.926     0.029     2.603     2.523
    81   1 H        0.926     0.028     2.616     2.529
    82   1 H        0.926     0.028     2.608     2.526
    83   1 H        0.926     0.032     2.562     2.503
    84   1 H        0.925     0.028     2.609     2.526
    85   1 H        0.926     0.031     2.568     2.506
    86   1 H        0.926     0.025     2.655     2.548

molecular dipole:
                 x           y           z       tot (Debye)
 q only:       -0.015       0.242      -0.660
   full:       -0.051       0.265      -0.762       2.056

 projected vibrational frequencies (cm⁻¹)
eigval :       -0.00    -0.00    -0.00    -0.00     0.00     0.00
eigval :        2.96     7.43    14.00    17.99    23.89    34.14
eigval :       41.63    46.60    48.22    51.75    52.21    57.50
eigval :       63.08    67.87    71.93    73.48    78.68    81.65
eigval :       92.36   112.22   140.41   144.00   152.51   169.33
eigval :      185.54   191.20   196.94   217.45   227.94   240.26
eigval :      244.12   251.79   258.22   272.82   288.20   290.94
eigval :      315.40   330.97   354.02   366.65   370.18   370.89
eigval :      373.82   375.11   377.21   390.36   400.03   422.37
eigval :      422.93   436.78   442.90   463.09   468.42   477.18
eigval :      498.18   523.41   533.03   537.88   541.27   556.86
eigval :      562.31   576.23   582.72   584.89   587.59   591.81
eigval :      596.55   599.44   610.38   617.11   623.96   639.51
eigval :      667.59   671.98   673.82   676.70   677.71   684.11
eigval :      688.30   700.56   711.49   742.13   749.52   759.36
eigval :      762.50   769.51   773.21   784.52   807.40   814.72
eigval :      815.53   829.38   831.04   855.76   857.48   861.36
eigval :      862.69   864.84   869.14   877.30   877.90   878.09
eigval :      895.66   899.21   901.41   902.69   903.00   908.02
eigval :      914.31   915.33   919.40   920.65   925.20   925.94
eigval :      929.71   930.00   930.11   931.55   931.79   932.15
eigval :      944.42   976.25   981.41   987.10   993.41  1000.16
eigval :     1009.83  1012.62  1033.64  1065.31  1073.42  1080.41
eigval :     1084.09  1085.03  1085.82  1088.02  1121.83  1122.72
eigval :     1124.11  1136.25  1142.58  1147.30  1158.95  1163.81
eigval :     1165.14  1182.09  1182.14  1182.17  1184.45  1193.97
eigval :     1199.01  1199.51  1201.56  1204.72  1218.81  1223.03
eigval :     1232.86  1235.47  1249.38  1251.16  1273.02  1276.31
eigval :     1281.32  1282.78  1284.39  1286.67  1290.94  1294.63
eigval :     1301.64  1310.46  1315.91  1317.95  1319.66  1322.25
eigval :     1326.20  1328.00  1337.40  1345.11  1353.63  1362.04
eigval :     1372.09  1404.86  1408.21  1410.97  1429.99  1431.24
eigval :     1432.07  1435.89  1442.70  1466.67  1468.86  1472.54
eigval :     1474.57  1476.53  1485.99  1488.39  1488.92  1499.74
eigval :     1504.93  1549.62  1553.65  1566.02  1572.02  1577.97
eigval :     1578.79  1579.92  1587.24  1588.86  1594.35  1595.04
eigval :     1599.46  1603.00  1612.80  1616.34  1641.87  2957.49
eigval :     2969.06  3040.59  3044.94  3045.82  3052.54  3060.81
eigval :     3063.78  3067.14  3068.83  3069.24  3069.64  3071.73
eigval :     3072.25  3072.50  3072.77  3072.99  3077.32  3077.68
eigval :     3079.04  3079.10  3079.48  3079.74  3080.43  3081.35
eigval :     3082.87  3085.12  3085.68  3085.93  3086.52  3091.38
eigval :     3091.88  3092.03  3092.30  3092.54  3094.08  3095.66

   temp. (K)  partition function   enthalpy   heat capacity  entropy
                                   cal/mol     cal/K/mol   cal/K/mol   J/K/mol
 298.15  VIB  0.774E+21            24440.189    149.988    157.145
         ROT  0.148E+09              888.752      2.981     40.363
         INT  0.114E+30            25328.942    152.969    197.508
         TR   0.152E+29             1481.254      4.968     45.173
         TOT                       26810.1958   157.9372   242.6812  1015.3781

       T/K    H(0)-H(T)+PV         H(T)/Eh          T*S/Eh         G(T)/Eh
   ------------------------------------------------------------------------
    298.15    0.427248E-01    0.725430E+00    0.115306E+00    0.610125E+00
   ------------------------------------------------------------------------

         :::::::::::::::::::::::::::::::::::::::::::::::::::::
         ::                  THERMODYNAMIC                  ::
         :::::::::::::::::::::::::::::::::::::::::::::::::::::
         :: total free energy        -123.952589770440 Eh   ::
         ::.................................................::
         :: total energy             -124.562714572695 Eh   ::
         :: zero point energy           0.682705704146 Eh   ::
         :: G(RRHO) w/o ZPVE           -0.072580901891 Eh   ::
         :: G(RRHO) contrib.            0.610124802254 Eh   ::
         :::::::::::::::::::::::::::::::::::::::::::::::::::::

           -------------------------------------------------
          | TOTAL ENERGY             -124.562714572695 Eh   |
          | TOTAL ENTHALPY           -123.837284102033 Eh   |
          | TOTAL FREE ENERGY        -123.952589770440 Eh   |
          | GRADIENT NORM               0.000037259662 Eh/α |
          | HOMO-LUMO GAP               2.224013275497 eV   |
           -------------------------------------------------

 * finished run on 2025/08/24 at 18:19:22.501
