   * xtb version 6.7.1 (edcfbbe) compiled by 'albert@albert-system' on 2024-07-22

   ID    Z sym.   atoms
    1    7 N      1, 5, 20, 35
    2    6 C      2-4, 6-19, 21-34, 36-47
    3    1 H      48-73

          program call               : xtb data2507/toluene/3CzBN/3CzBN_toluene_S0_crest.xyz --gfn 2 --gbsa toluene --ohess vtight --parallel 40 --molden --ceasefiles --namespace data2507/toluene/3CzBN/3CzBN_toluene_S0_finalOpt
      * Solvation model:               GBSA
        Solvent                        toluene
        Solvent mass                       9.2140E+01 g/mol
          :  Hamiltonian                  GFN2-xTB          :
 * total energy  :  -117.1523628 Eh     change       -0.1480402E-08 Eh
 * total energy  :  -117.1524111 Eh     change       -0.4834866E-04 Eh
 * total energy  :  -117.1524304 Eh     change       -0.1926683E-04 Eh
 * total energy  :  -117.1524347 Eh     change       -0.4280272E-05 Eh
 * total energy  :  -117.1524380 Eh     change       -0.3334812E-05 Eh
 * total energy  :  -117.1524409 Eh     change       -0.2858539E-05 Eh
 * total energy  :  -117.1524440 Eh     change       -0.3102143E-05 Eh
 * total energy  :  -117.1524478 Eh     change       -0.3836517E-05 Eh
 * total energy  :  -117.1524513 Eh     change       -0.3458730E-05 Eh
 * total energy  :  -117.1524539 Eh     change       -0.2584833E-05 Eh
 * total energy  :  -117.1524616 Eh     change       -0.1450655E-05 Eh
 * total energy  :  -117.1524625 Eh     change       -0.9067566E-06 Eh
 * total energy  :  -117.1524631 Eh     change       -0.6837795E-06 Eh
 * total energy  :  -117.1524638 Eh     change       -0.6767517E-06 Eh
 * total energy  :  -117.1524645 Eh     change       -0.6938846E-06 Eh
 * total energy  :  -117.1524651 Eh     change       -0.5604143E-06 Eh
 * total energy  :  -117.1524654 Eh     change       -0.3351049E-06 Eh
 * total energy  :  -117.1524656 Eh     change       -0.2167825E-06 Eh
 * total energy  :  -117.1524656 Eh     change       -0.2460609E-08 Eh
   *** GEOMETRY OPTIMIZATION CONVERGED AFTER 22 ITERATIONS ***

 final structure:
================
73
 xtb: 6.7.1 (edcfbbe)
N            3.64959308090826        0.68526285485540       -0.89666032246187
C            2.57641943927197        0.47458464333986       -0.54625468408717
C            1.23500936876434        0.22373402570145       -0.19654347793778
C            0.35093498104472        1.30004558523353        0.01347224800947
N            0.83796909678102        2.60748244191886        0.04005815617094
C            1.87100186598922        3.07282537272372        0.83771308651789
C            2.59117964375609        2.41384682393785        1.82111453130332
C            3.55929947996024        3.12740572988280        2.50202155221580
C            3.79724831048140        4.47134859483493        2.22601717028227
C            3.05756543103283        5.14251356542782        1.27225991768110
C            2.08179395865614        4.44375824676729        0.57360209303088
C            1.13066761595774        4.81875154229883       -0.43748280952855
C            0.86605105031023        6.00683143043650       -1.10639885779757
C           -0.13229470123130        6.02155734774359       -2.06102661045024
C           -0.84914288283918        4.86712432066052       -2.36559750673187
C           -0.60034047872739        3.67305299921677       -1.71476267683338
C            0.37997395740329        3.66024174248434       -0.73524391054373
C           -1.00204558203550        1.05776482893921        0.19869130934591
C           -1.49269012562885       -0.24797194404438        0.20006768995823
N           -2.84494524670133       -0.49180066038538        0.41979648779153
C           -3.36421098131767       -1.42213732455363        1.30897451117410
C           -2.70875273279897       -2.25431613482992        2.20440525876844
C           -3.47980383380805       -3.06951183585874        3.01289917470364
C           -4.87066684521104       -3.05430337911545        2.94610938740705
C           -5.52936419102424       -2.20410109420137        2.07946968061919
C           -4.77506817374891       -1.37671167332420        1.25793489114499
C           -5.12071803251278       -0.37545792679984        0.28537994406720
C           -6.33071354464419        0.09347942747287       -0.20882728199710
C           -6.31317494796833        1.06983576719938       -1.18588383803666
C           -5.10915480197612        1.56229709039059       -1.68254074395018
C           -3.89345291917309        1.10777189458666       -1.20586930438625
C           -3.90432292307001        0.15102069213980       -0.20261646963891
C           -0.61554306341040       -1.31650140916397        0.01808681822437
C            0.73974743704708       -1.09422466365752       -0.17678456516390
N            1.59632980255639       -2.17438588755641       -0.38424551392200
C            2.77765203990545       -2.42731035472130        0.29431582960925
C            3.33980396574823       -1.75601112873995        1.36832609673911
C            4.52081936620893       -2.24707505634475        1.89226573860816
C            5.12480899993398       -3.38896879894320        1.37264029396262
C            4.55122809893407       -4.08116684292952        0.32417603700037
C            3.36517303608196       -3.60454709782059       -0.21831462101706
C            2.49596300421973       -4.07801150049473       -1.26142801481771
C            2.54814420372780       -5.16227411341333       -2.12778089297253
C            1.52975860214633       -5.32463048729135       -3.04675280811566
C            0.47804313835886       -4.41461666441454       -3.11872042534289
C            0.40579465970293       -3.32661963084856       -2.26807647947297
C            1.41323324923337       -3.17389044592756       -1.32779282912213
H            2.40361370228426        1.37755308826993        2.05840849411432
H            4.13958735810008        2.63178094977194        3.26612911530159
H            4.56511759659653        4.99448248487543        2.77607287022480
H            3.22793093610197        6.18963981231048        1.07339048664031
H            1.43489410280182        6.89677298487291       -0.88412164604325
H           -0.35588664275552        6.93650162888156       -2.58913191370435
H           -1.61221585784495        4.90294996047853       -3.12900840706570
H           -1.14363827774587        2.77797915345019       -1.97530313066152
H           -1.66700559317518        1.88618186292485        0.38625723411689
H           -1.63254762381312       -2.26161030972685        2.28622129873642
H           -2.99030067236714       -3.72913876211638        3.71417060528047
H           -5.43783999535460       -3.70853946600425        3.59139467722130
H           -6.60773841493678       -2.17508950166023        2.04240983343878
H           -7.26328862111001       -0.30378091389617        0.16205903129290
H           -7.24313734189671        1.45090001818252       -1.58095610672928
H           -5.12318092179418        2.31206187802046       -2.45977269339984
H           -2.96881290851369        1.48111125295264       -1.61660186801643
H           -0.98960827059877       -2.32797031008816        0.02095930295227
H            2.87565117476666       -0.87848425442534        1.79202333315282
H            4.98137294636674       -1.73440020027848        2.72369454691924
H            6.04932204330346       -3.74032826701776        1.80589595130194
H            5.00893006645258       -4.97769239769033       -0.06541830757022
H            3.37190733059504       -5.85822194272601       -2.08288911332449
H            1.55023597638625       -6.16251200927101       -3.72758936185402
H           -0.29720870881399       -4.55819522952758       -3.85677179648065
H           -0.40525709103411       -2.61831420687370       -2.34619347175214

          :  Hamiltonian                  GFN2-xTB          :
         :: gradient norm              0.000055436996 Eh/a0 ::
         :: HOMO-LUMO gap              2.282018136143 eV    ::
         :: SCC energy              -119.391101703145 Eh    ::
         :: -> dispersion             -0.110049387110 Eh    ::
         :: -> Gsolv                  -0.049264902777 Eh    ::
         :: repulsion energy           2.238636070886 Eh    ::

    * Orbital Energies and Occupations

         #    Occupation            Energy/Eh            Energy/eV
      -------------------------------------------------------------
         1        2.0000           -0.6993809             -19.0311
       ...           ...                  ...                  ...
        97        2.0000           -0.4259376             -11.5904
        98        2.0000           -0.4247319             -11.5575
        99        2.0000           -0.4237355             -11.5304
       100        2.0000           -0.4231163             -11.5136
       101        2.0000           -0.4133459             -11.2477
       102        2.0000           -0.4124456             -11.2232
       103        2.0000           -0.4122280             -11.2173
       104        2.0000           -0.3868639             -10.5271
       105        2.0000           -0.3858654             -10.4999
       106        2.0000           -0.3858304             -10.4990
       107        2.0000           -0.3760402             -10.2326
       108        2.0000           -0.3753611             -10.2141
       109        2.0000           -0.3725796             -10.1384 (HOMO)
       110                         -0.2887169              -7.8564 (LUMO)
       111                         -0.2635469              -7.1715
       112                         -0.2526359              -6.8746
       113                         -0.2518279              -6.8526
       114                         -0.2504739              -6.8157
       115                         -0.2300972              -6.2613
       116                         -0.2292686              -6.2387
       117                         -0.2290476              -6.2327
       118                         -0.2199041              -5.9839
       119                         -0.2114113              -5.7528
       120                         -0.2018257              -5.4920
       ...                                ...                  ...
       214                          1.1527243              31.3672
      -------------------------------------------------------------
                  HL-Gap            0.0838627 Eh            2.2820 eV

     #   Z          covCN         q      C6AA      α(0)
     1   7 N        0.911    -0.279    27.205     7.544
     2   6 C        1.909     0.132    27.875     8.527
     3   6 C        2.974    -0.021    28.516     8.759
     4   6 C        2.915     0.075    26.328     8.414
     5   7 N        2.802    -0.051    22.231     7.003
     6   6 C        3.070     0.049    26.841     8.495
     7   6 C        2.910    -0.047    29.171     8.856
     8   6 C        2.924    -0.032    28.800     8.801
     9   6 C        2.920    -0.039    28.975     8.827
    10   6 C        2.913    -0.033    28.815     8.802
    11   6 C        3.067    -0.016    28.331     8.728
    12   6 C        3.066    -0.015    28.319     8.726
    13   6 C        2.913    -0.032    28.808     8.801
    14   6 C        2.920    -0.040    28.984     8.828
    15   6 C        2.924    -0.033    28.817     8.803
    16   6 C        2.910    -0.051    29.258     8.870
    17   6 C        3.070     0.047    26.879     8.501
    18   6 C        2.923    -0.064    29.587     8.920
    19   6 C        2.908     0.075    26.318     8.412
    20   7 N        2.801    -0.037    21.948     6.958
    21   6 C        3.067     0.045    26.928     8.509
    22   6 C        2.910    -0.051    29.254     8.869
    23   6 C        2.924    -0.032    28.810     8.802
    24   6 C        2.920    -0.039    28.965     8.826
    25   6 C        2.913    -0.032    28.806     8.801
    26   6 C        3.066    -0.014    28.296     8.723
    27   6 C        3.065    -0.014    28.301     8.723
    28   6 C        2.913    -0.032    28.804     8.801
    29   6 C        2.920    -0.039    28.968     8.826
    30   6 C        2.924    -0.032    28.809     8.802
    31   6 C        2.910    -0.050    29.238     8.867
    32   6 C        3.067     0.045    26.925     8.509
    33   6 C        2.924    -0.065    29.622     8.925
    34   6 C        2.914     0.075    26.328     8.414
    35   7 N        2.802    -0.051    22.218     7.001
    36   6 C        3.068     0.048    26.846     8.496
    37   6 C        2.910    -0.047    29.165     8.855
    38   6 C        2.924    -0.032    28.798     8.800
    39   6 C        2.920    -0.039    28.971     8.827
    40   6 C        2.913    -0.033    28.815     8.802
    41   6 C        3.066    -0.015    28.329     8.728
    42   6 C        3.066    -0.015    28.312     8.725
    43   6 C        2.913    -0.033    28.810     8.802
    44   6 C        2.920    -0.039    28.978     8.828
    45   6 C        2.924    -0.033    28.817     8.803
    46   6 C        2.910    -0.052    29.284     8.874
    47   6 C        3.068     0.047    26.888     8.503
    48   1 H        0.926     0.017     2.776     2.605
    49   1 H        0.926     0.036     2.509     2.477
    50   1 H        0.926     0.036     2.498     2.471
    51   1 H        0.926     0.039     2.463     2.454
    52   1 H        0.926     0.038     2.480     2.463
    53   1 H        0.926     0.035     2.510     2.477
    54   1 H        0.926     0.037     2.488     2.467
    55   1 H        0.926     0.028     2.620     2.531
    56   1 H        0.926     0.065     2.146     2.291
    57   1 H        0.926     0.031     2.568     2.506
    58   1 H        0.926     0.035     2.511     2.478
    59   1 H        0.926     0.034     2.526     2.486
    60   1 H        0.926     0.037     2.485     2.465
    61   1 H        0.926     0.037     2.488     2.467
    62   1 H        0.926     0.034     2.528     2.486
    63   1 H        0.926     0.036     2.505     2.475
    64   1 H        0.926     0.030     2.588     2.515
    65   1 H        0.926     0.066     2.136     2.285
    66   1 H        0.926     0.018     2.767     2.601
    67   1 H        0.926     0.036     2.508     2.476
    68   1 H        0.926     0.036     2.497     2.471
    69   1 H        0.926     0.039     2.461     2.453
    70   1 H        0.926     0.038     2.477     2.461
    71   1 H        0.926     0.036     2.508     2.477
    72   1 H        0.926     0.037     2.491     2.468
    73   1 H        0.926     0.031     2.579     2.511

molecular dipole:
                 x           y           z       tot (Debye)
 q only:       -1.578      -0.313       0.325
   full:       -1.893      -0.370       0.447       5.032

 projected vibrational frequencies (cm⁻¹)
eigval :       -0.00    -0.00    -0.00    -0.00     0.00     0.00
eigval :       19.07    19.23    22.21    22.96    25.70    30.52
eigval :       50.12    59.49    69.58    92.00    97.08   101.33
eigval :      104.95   122.97   133.21   139.88   143.03   148.35
eigval :      151.48   153.50   196.97   212.46   228.77   253.18
eigval :      261.43   270.30   270.95   273.04   282.13   285.86
eigval :      290.79   323.15   347.53   363.07   390.60   395.00
eigval :      395.89   417.37   420.60   421.92   430.33   434.73
eigval :      435.28   438.42   487.52   507.09   517.17   518.28
eigval :      519.42   525.34   529.39   531.49   539.60   540.36
eigval :      540.98   552.87   561.35   585.43   587.21   588.73
eigval :      596.84   608.54   623.48   642.25   660.47   664.20
eigval :      670.59   672.16   673.10   683.63   705.00   705.91
eigval :      707.95   710.91   748.53   754.34   755.68   760.49
eigval :      765.35   768.51   769.68   775.32   778.42   781.06
eigval :      800.11   854.85   855.28   863.06   866.18   867.06
eigval :      874.44   881.96   893.23   894.69   895.27   896.77
eigval :      898.27   899.35   900.30   900.46   905.50   906.48
eigval :      911.88   916.49   918.61   921.13   922.81   923.66
eigval :      927.09  1009.18  1010.77  1012.01  1029.37  1043.31
eigval :     1066.20  1068.93  1071.09  1071.98  1073.93  1074.86
eigval :     1097.09  1120.52  1145.76  1148.08  1150.62  1152.03
eigval :     1164.13  1174.94  1176.77  1177.65  1179.20  1179.71
eigval :     1181.38  1189.61  1195.11  1220.34  1228.94  1229.85
eigval :     1232.84  1234.50  1234.92  1254.10  1285.22  1292.79
eigval :     1294.71  1295.69  1296.50  1299.63  1303.24  1328.71
eigval :     1333.22  1354.66  1355.29  1356.25  1357.64  1359.37
eigval :     1359.89  1399.20  1412.21  1414.92  1424.43  1425.41
eigval :     1426.16  1438.13  1445.82  1461.25  1471.85  1472.50
eigval :     1474.35  1484.58  1484.95  1485.45  1517.53  1552.73
eigval :     1574.99  1575.50  1575.87  1588.41  1589.51  1590.47
eigval :     1597.50  1598.88  1599.51  1610.82  1611.78  1612.98
eigval :     2350.75  3075.91  3076.77  3076.81  3076.95  3077.14
eigval :     3077.70  3080.90  3081.40  3081.91  3082.50  3083.17
eigval :     3084.17  3087.70  3087.79  3089.33  3089.89  3090.73
eigval :     3093.56  3095.90  3095.97  3096.90  3098.10  3098.35
eigval :     3101.08  3110.94  3114.28

   temp. (K)  partition function   enthalpy   heat capacity  entropy
                                   cal/mol     cal/K/mol   cal/K/mol   J/K/mol
 298.15  VIB  0.165E+16            20648.826    133.923    125.844
         ROT  0.634E+08              888.752      2.981     38.681
         INT  0.104E+24            21537.578    136.904    164.525
         TR   0.142E+29             1481.254      4.968     45.032
         TOT                       23018.8320   141.8718   209.5565   876.7845

       T/K    H(0)-H(T)+PV         H(T)/Eh          T*S/Eh         G(T)/Eh
   ------------------------------------------------------------------------
    298.15    0.366828E-01    0.587322E+00    0.995671E-01    0.487755E+00
   ------------------------------------------------------------------------

         :::::::::::::::::::::::::::::::::::::::::::::::::::::
         ::                  THERMODYNAMIC                  ::
         :::::::::::::::::::::::::::::::::::::::::::::::::::::
         :: total free energy        -116.664710288876 Eh   ::
         ::.................................................::
         :: total energy             -117.152465634354 Eh   ::
         :: zero point energy           0.550639569240 Eh   ::
         :: G(RRHO) w/o ZPVE           -0.062884223763 Eh   ::
         :: G(RRHO) contrib.            0.487755345477 Eh   ::
         :::::::::::::::::::::::::::::::::::::::::::::::::::::

           -------------------------------------------------
          | TOTAL ENERGY             -117.152465634354 Eh   |
          | TOTAL ENTHALPY           -116.565143221356 Eh   |
          | TOTAL FREE ENERGY        -116.664710288876 Eh   |
          | GRADIENT NORM               0.000055535931 Eh/α |
          | HOMO-LUMO GAP               2.282019328702 eV   |
           -------------------------------------------------

 * finished run on 2025/08/30 at 20:04:06.717
