   * xtb version 6.7.1 (edcfbbe) compiled by 'albert@albert-system' on 2024-07-22

   ID    Z sym.   atoms
    1    7 N      1, 5, 20, 35
    2    6 C      2-4, 6-19, 21-34, 36-47
    3    1 H      48-73

          program call               : xtb data2507/toluene/3CzBN/3CzBN_toluene_S0_finalOpt.xtbopt.xyz --gfn 2 --uhf 2 --gbsa toluene --ohess vtight --parallel 40 --molden --ceasefiles --namespace data2507/toluene/3CzBN/3CzBN_toluene_T1_preOpt
      * Solvation model:               GBSA
        Solvent                        toluene
        Solvent mass                       9.2140E+01 g/mol
          :  Hamiltonian                  GFN2-xTB          :
 * total energy  :  -117.0545086 Eh     change       -0.1048389E-07 Eh
 * total energy  :  -117.0582030 Eh     change       -0.3694362E-02 Eh
 * total energy  :  -117.0593384 Eh     change       -0.1135469E-02 Eh
 * total energy  :  -117.0594276 Eh     change       -0.8918342E-04 Eh
 * total energy  :  -117.0594892 Eh     change       -0.6161347E-04 Eh
 * total energy  :  -117.0595070 Eh     change       -0.1775466E-04 Eh
 * total energy  :  -117.0595247 Eh     change       -0.1769624E-04 Eh
 * total energy  :  -117.0595306 Eh     change       -0.5915333E-05 Eh
 * total energy  :  -117.0595343 Eh     change       -0.3699783E-05 Eh
 * total energy  :  -117.0595383 Eh     change       -0.4014421E-05 Eh
 * total energy  :  -117.0595966 Eh     change       -0.2378443E-06 Eh
 * total energy  :  -117.0595969 Eh     change       -0.3193204E-06 Eh
 * total energy  :  -117.0595972 Eh     change       -0.3392910E-06 Eh
 * total energy  :  -117.0595977 Eh     change       -0.4700303E-06 Eh
 * total energy  :  -117.0595983 Eh     change       -0.5861218E-06 Eh
 * total energy  :  -117.0595987 Eh     change       -0.4779951E-06 Eh
 * total energy  :  -117.0595989 Eh     change       -0.1214411E-06 Eh
 * total energy  :  -117.0595991 Eh     change       -0.1861722E-06 Eh
 * total energy  :  -117.0595991 Eh     change       -0.6779918E-07 Eh
   *** GEOMETRY OPTIMIZATION CONVERGED AFTER 46 ITERATIONS ***

 final structure:
================
73
 xtb: 6.7.1 (edcfbbe)
N            3.66192326293900        0.65846123442416       -0.89544710472592
C            2.56009058838433        0.45105239547325       -0.57555381000948
C            1.26413998516817        0.21037967392665       -0.18999468170895
C            0.33064977880035        1.29767288306499        0.02284857552323
N            0.82502203405122        2.60875935571486        0.03350413157389
C            1.81893431383077        3.08390320966445        0.86061317706356
C            2.50017305604664        2.43242568107279        1.87961395861646
C            3.45244149846961        3.14851890436873        2.57954149164483
C            3.71062328396061        4.48598592281121        2.28860200428006
C            3.01263408256836        5.14976174346167        1.29384103261537
C            2.05610372881154        4.45001926226776        0.57529216528233
C            1.14831962044504        4.80633913859433       -0.48355198377253
C            0.90841243829267        5.97601447682019       -1.18819620309099
C           -0.05211434849233        5.96476094582378       -2.18549053382025
C           -0.75501812095269        4.80238413519177       -2.49403265909211
C           -0.53292482604452        3.62501565293234       -1.80448698419414
C            0.40983636368508        3.63685890936091       -0.78589318669480
C           -1.00537454419833        1.06173516364776        0.18324751611447
C           -1.51437837972504       -0.25811140581328        0.19477371231032
N           -2.86300776436178       -0.49289977022538        0.44310457347983
C           -3.36592050168280       -1.40172347482491        1.35292011929579
C           -2.69052470923430       -2.22955600093429        2.24172217132541
C           -3.44265113636315       -3.04653085836146        3.06564607269080
C           -4.83635523420351       -3.03775417943165        3.01906690698043
C           -5.51708986205584       -2.19240700216598        2.15971343580960
C           -4.78440046306945       -1.36091246865242        1.32609246044331
C           -5.14352712503267       -0.36317868307672        0.35726564548430
C           -6.35480900855533        0.12106942717388       -0.11360523274606
C           -6.34374479514174        1.09052573363041       -1.10157569533500
C           -5.14388553629596        1.56336855690395       -1.63189803196325
C           -3.92487910586905        1.09718869061148       -1.17626923447772
C           -3.92579258400943        0.14592466907634       -0.16406402242848
C           -0.61823689602772       -1.34029835106179        0.02216918401663
C            0.71851561484605       -1.13064171648543       -0.16296100010177
N            1.58486334241597       -2.20986302436987       -0.38758948491273
C            2.74159837534536       -2.47373652017383        0.31214682735490
C            3.26184007382796       -1.82934565087292        1.42636487136729
C            4.43870668130651       -2.31608917556020        1.96249763739157
C            5.07771388930441       -3.42710312185337        1.41694481235446
C            4.54835607506376       -4.09154059636971        0.32376963768121
C            3.37036131395170       -3.61879270917026       -0.23311615706428
C            2.53933678275116       -4.05702419025328       -1.32332378921021
C            2.62351966193398       -5.10037663557452       -2.23254184678110
C            1.62963507431239       -5.22908487562756       -3.18778078637786
C            0.57067790725197       -4.32625974627037       -3.24996516503032
C            0.46463717941851       -3.27837357246276       -2.35400019552159
C            1.44823625148153       -3.15643987513038       -1.38130983984928
H            2.29295035466220        1.40069953717290        2.11777905804231
H            4.00357262533948        2.66226171343689        3.37055636286753
H            4.46314514480556        5.01288632998186        2.85592485262172
H            3.20687643413807        6.19009771604466        1.08183404562553
H            1.46421199900983        6.87398931290778       -0.96548973089719
H           -0.25472112173866        6.86734468559630       -2.74229198934696
H           -1.48453067263607        4.81976881834274       -3.28994048859492
H           -1.06292751934946        2.72012090489090       -2.05896757061959
H           -1.67354585540809        1.88923392583524        0.36899749917064
H           -1.61311203053080       -2.22441732221545        2.30327909877549
H           -2.94016990595518       -3.69913084500878        3.76383649064745
H           -5.39016139871703       -3.69245614749295        3.67530118848874
H           -6.59619775295901       -2.17479788741351        2.14082134241212
H           -7.28613408486276       -0.25697222078440        0.27985265247387
H           -7.27725184486345        1.48076134245384       -1.47873552994481
H           -5.16694155157700        2.30438413009021       -2.41681882262599
H           -3.00212172493596        1.45322284907146       -1.60586688170642
H           -1.00524348633316       -2.34805651872266        0.01264083743685
H            2.76491857816554       -0.97546872496690        1.86002841961129
H            4.86900757870325       -1.82708389277051        2.82371614776181
H            5.99716758949050       -3.77759808810438        1.86145985362753
H            5.03903827811943       -4.96122167168715       -0.08610324136961
H            3.44972691719524       -5.79387613631087       -2.19639140627898
H            1.67728690430860       -6.03660469486401       -3.90296508896793
H           -0.18167479976343       -4.44455789085010       -4.01545869591206
H           -0.35014032526638       -2.57294832841563       -2.41610693631149

          :  Hamiltonian                  GFN2-xTB          :
         :: gradient norm              0.000106450358 Eh/a0 ::
         :: HOMO-LUMO gap              0.465320272120 eV    ::
         :: SCC energy              -119.276093960464 Eh    ::
         :: -> dispersion             -0.109580172981 Eh    ::
         :: -> Gsolv                  -0.053202937243 Eh    ::
         :: repulsion energy           2.216494841586 Eh    ::

    * Orbital Energies and Occupations

         #    Occupation            Energy/Eh            Energy/eV
      -------------------------------------------------------------
         1        2.0000           -0.6877890             -18.7157
       ...           ...                  ...                  ...
        98        2.0000           -0.4196822             -11.4201
        99        2.0000           -0.4155877             -11.3087
       100        2.0000           -0.4145700             -11.2810
       101        2.0000           -0.4136594             -11.2562
       102        2.0000           -0.4032073             -10.9718
       103        2.0000           -0.4010416             -10.9129
       104        2.0000           -0.3884344             -10.5698
       105        2.0000           -0.3883060             -10.5663
       106        2.0000           -0.3874733             -10.5437
       107        1.9977           -0.3762922             -10.2394
       108        1.7278           -0.3714685             -10.1082
       109        1.2745           -0.3696106             -10.0576
       110        0.9998           -0.2718511              -7.3974 (HOMO)
       111        0.0001           -0.2547511              -6.9321 (LUMO)
       112        0.0001           -0.2542643              -6.9189
       113        0.0000           -0.2531518              -6.8886
       114                         -0.2381707              -6.4810
       115                         -0.2333089              -6.3487
       116                         -0.2322067              -6.3187
       117                         -0.2314304              -6.2975
       118                         -0.2097093              -5.7065
       119                         -0.2019121              -5.4943
       120                         -0.1994253              -5.4266
       121                         -0.1961085              -5.3364
       ...                                ...                  ...
       214                          1.1576176              31.5004
      -------------------------------------------------------------
                  HL-Gap            0.0171000 Eh            0.4653 eV

     #   Z          covCN         q      C6AA      α(0)
     1   7 N        0.911    -0.380    29.798     7.895
     2   6 C        1.905     0.103    28.550     8.629
     3   6 C        2.962    -0.043    29.057     8.842
     4   6 C        2.907     0.044    27.012     8.522
     5   7 N        2.802    -0.028    21.783     6.932
     6   6 C        3.078     0.053    26.728     8.476
     7   6 C        2.910    -0.038    28.950     8.823
     8   6 C        2.923    -0.031    28.776     8.797
     9   6 C        2.920    -0.034    28.846     8.807
    10   6 C        2.912    -0.030    28.753     8.793
    11   6 C        3.066    -0.014    28.286     8.721
    12   6 C        3.065    -0.013    28.278     8.720
    13   6 C        2.912    -0.030    28.747     8.792
    14   6 C        2.920    -0.035    28.871     8.811
    15   6 C        2.923    -0.032    28.805     8.801
    16   6 C        2.910    -0.044    29.081     8.843
    17   6 C        3.077     0.049    26.824     8.491
    18   6 C        2.913    -0.060    29.489     8.905
    19   6 C        2.907     0.018    27.610     8.616
    20   7 N        2.796    -0.003    21.326     6.859
    21   6 C        3.074     0.043    26.968     8.514
    22   6 C        2.909    -0.041    29.018     8.833
    23   6 C        2.922    -0.034    28.851     8.808
    24   6 C        2.919    -0.033    28.831     8.805
    25   6 C        2.911    -0.030    28.744     8.791
    26   6 C        3.063    -0.014    28.290     8.722
    27   6 C        3.062    -0.014    28.298     8.723
    28   6 C        2.911    -0.030    28.746     8.792
    29   6 C        2.919    -0.034    28.841     8.807
    30   6 C        2.922    -0.034    28.854     8.809
    31   6 C        2.909    -0.041    29.013     8.832
    32   6 C        3.074     0.043    26.970     8.515
    33   6 C        2.914    -0.059    29.465     8.901
    34   6 C        2.906     0.044    27.007     8.521
    35   7 N        2.803    -0.031    21.833     6.940
    36   6 C        3.077     0.053    26.723     8.475
    37   6 C        2.910    -0.039    28.957     8.824
    38   6 C        2.923    -0.031    28.781     8.798
    39   6 C        2.920    -0.034    28.857     8.809
    40   6 C        2.912    -0.030    28.759     8.794
    41   6 C        3.066    -0.014    28.300     8.723
    42   6 C        3.066    -0.014    28.284     8.721
    43   6 C        2.912    -0.030    28.753     8.793
    44   6 C        2.920    -0.035    28.877     8.812
    45   6 C        2.923    -0.033    28.810     8.802
    46   6 C        2.909    -0.045    29.115     8.848
    47   6 C        3.076     0.049    26.822     8.491
    48   1 H        0.926     0.028     2.620     2.531
    49   1 H        0.926     0.040     2.451     2.448
    50   1 H        0.926     0.042     2.426     2.436
    51   1 H        0.926     0.043     2.405     2.425
    52   1 H        0.926     0.042     2.421     2.433
    53   1 H        0.926     0.041     2.437     2.441
    54   1 H        0.926     0.041     2.432     2.439
    55   1 H        0.926     0.034     2.532     2.488
    56   1 H        0.926     0.043     2.414     2.430
    57   1 H        0.926     0.038     2.471     2.458
    58   1 H        0.926     0.038     2.476     2.461
    59   1 H        0.926     0.039     2.467     2.456
    60   1 H        0.926     0.041     2.439     2.442
    61   1 H        0.926     0.040     2.445     2.445
    62   1 H        0.926     0.038     2.472     2.459
    63   1 H        0.926     0.038     2.471     2.458
    64   1 H        0.926     0.037     2.494     2.470
    65   1 H        0.926     0.045     2.384     2.414
    66   1 H        0.926     0.027     2.629     2.536
    67   1 H        0.926     0.039     2.460     2.452
    68   1 H        0.926     0.041     2.437     2.441
    69   1 H        0.926     0.043     2.415     2.430
    70   1 H        0.926     0.042     2.427     2.436
    71   1 H        0.926     0.040     2.446     2.446
    72   1 H        0.926     0.040     2.445     2.445
    73   1 H        0.926     0.036     2.500     2.473

molecular dipole:
                 x           y           z       tot (Debye)
 q only:       -2.222      -0.350       0.575
   full:       -2.543      -0.406       0.657       6.755

 projected vibrational frequencies (cm⁻¹)
eigval :       -0.00    -0.00     0.00     0.00     0.00     0.00
eigval :       12.05    13.96    21.23    23.55    24.26    26.42
eigval :       51.04    54.35    66.87    85.02    95.83    97.56
eigval :      101.98   119.79   130.45   137.12   139.33   144.70
eigval :      147.46   148.63   191.54   208.26   222.64   246.32
eigval :      254.37   266.94   267.49   270.71   276.95   282.90
eigval :      289.21   323.57   350.87   366.60   385.01   388.13
eigval :      392.17   395.38   414.68   415.62   417.20   427.86
eigval :      431.96   433.07   434.71   471.29   473.63   512.17
eigval :      514.08   514.30   530.13   530.59   532.08   533.67
eigval :      535.24   539.95   548.75   579.62   580.93   582.62
eigval :      587.23   589.86   605.76   617.98   624.53   645.70
eigval :      662.91   667.60   671.08   671.66   697.67   704.52
eigval :      706.63   707.23   745.60   751.13   753.60   758.58
eigval :      761.70   763.31   764.70   769.70   771.73   775.67
eigval :      785.62   841.17   852.70   859.43   859.92   861.62
eigval :      870.59   873.58   881.64   884.08   890.79   893.94
eigval :      895.11   896.40   897.29   897.93   902.76   904.67
eigval :      907.20   913.50   913.76   915.23   917.19   917.90
eigval :      920.64   993.77  1005.38  1009.19  1012.70  1021.58
eigval :     1061.33  1063.15  1064.72  1065.68  1067.64  1069.57
eigval :     1084.09  1111.89  1113.53  1132.87  1136.61  1139.48
eigval :     1156.55  1157.61  1171.75  1173.33  1174.04  1174.73
eigval :     1176.39  1176.78  1191.47  1215.37  1221.63  1222.89
eigval :     1226.92  1228.98  1234.10  1237.46  1263.39  1266.12
eigval :     1279.57  1282.76  1284.50  1287.07  1293.43  1302.31
eigval :     1325.91  1329.76  1336.68  1337.25  1351.93  1355.70
eigval :     1360.98  1365.08  1366.33  1384.91  1400.97  1407.42
eigval :     1408.65  1417.50  1426.10  1439.01  1454.93  1459.02
eigval :     1459.50  1477.69  1479.28  1480.05  1489.33  1548.01
eigval :     1549.95  1560.78  1561.82  1564.16  1568.06  1574.65
eigval :     1575.66  1576.39  1578.52  1582.29  1594.58  1597.49
eigval :     2197.14  3078.97  3079.02  3079.39  3079.51  3079.93
eigval :     3080.42  3083.91  3084.26  3084.49  3084.56  3085.47
eigval :     3085.93  3090.61  3090.82  3091.34  3091.71  3091.98
eigval :     3092.45  3093.80  3094.43  3097.07  3097.53  3097.90
eigval :     3098.00  3099.47  3101.65

   temp. (K)  partition function   enthalpy   heat capacity  entropy
                                   cal/mol     cal/K/mol   cal/K/mol   J/K/mol
 298.15  VIB  0.838E+16            21023.300    135.555    128.986
         ROT  0.636E+08              888.752      2.981     38.689
         INT  0.533E+24            21912.053    138.536    167.675
         TR   0.142E+29             1481.254      4.968     45.032
         TOT                       23393.3067   143.5043   212.7069   889.9658

       T/K    H(0)-H(T)+PV         H(T)/Eh          T*S/Eh         G(T)/Eh
   ------------------------------------------------------------------------
    298.15    0.372796E-01    0.583393E+00    0.101064E+00    0.482329E+00
   ------------------------------------------------------------------------

         :::::::::::::::::::::::::::::::::::::::::::::::::::::
         ::                  THERMODYNAMIC                  ::
         :::::::::::::::::::::::::::::::::::::::::::::::::::::
         :: total free energy        -116.577270429093 Eh   ::
         ::.................................................::
         :: total energy             -117.059599121100 Eh   ::
         :: zero point energy           0.546113013522 Eh   ::
         :: G(RRHO) w/o ZPVE           -0.063784321514 Eh   ::
         :: G(RRHO) contrib.            0.482328692007 Eh   ::
         :::::::::::::::::::::::::::::::::::::::::::::::::::::

           -------------------------------------------------
          | TOTAL ENERGY             -117.059599121100 Eh   |
          | TOTAL ENTHALPY           -116.476206500432 Eh   |
          | TOTAL FREE ENERGY        -116.577270429093 Eh   |
          | GRADIENT NORM               0.000105550711 Eh/α |
          | HOMO-LUMO GAP               0.465315497761 eV   |
           -------------------------------------------------

 * finished run on 2025/08/30 at 20:04:14.001
