   * xtb version 6.7.1 (edcfbbe) compiled by 'albert@albert-system' on 2024-07-22

   ID    Z sym.   atoms
    1    7 N      1, 5, 20, 35
    2    6 C      2-4, 6-19, 21-34, 36-47
    3    1 H      48-73

          program call               : xtb data2507/toluene/3CzBN/3CzBN_toluene_T1_crest.xyz --gfn 2 --uhf 2 --gbsa toluene --ohess vtight --parallel 40 --molden --ceasefiles --namespace data2507/toluene/3CzBN/3CzBN_toluene_T1_finalOpt
      * Solvation model:               GBSA
        Solvent                        toluene
        Solvent mass                       9.2140E+01 g/mol
          :  Hamiltonian                  GFN2-xTB          :
 * total energy  :  -117.0594175 Eh     change       -0.4560633E-08 Eh
 * total energy  :  -117.0594838 Eh     change       -0.6629028E-04 Eh
 * total energy  :  -117.0595124 Eh     change       -0.2856632E-04 Eh
 * total energy  :  -117.0595218 Eh     change       -0.9455152E-05 Eh
 * total energy  :  -117.0595307 Eh     change       -0.8901326E-05 Eh
 * total energy  :  -117.0595384 Eh     change       -0.7652045E-05 Eh
 * total energy  :  -117.0595456 Eh     change       -0.7182267E-05 Eh
 * total energy  :  -117.0595521 Eh     change       -0.6534074E-05 Eh
 * total energy  :  -117.0595586 Eh     change       -0.6484801E-05 Eh
 * total energy  :  -117.0595655 Eh     change       -0.6878167E-05 Eh
 * total energy  :  -117.0595996 Eh     change       -0.8671426E-05 Eh
 * total energy  :  -117.0596056 Eh     change       -0.5957468E-05 Eh
 * total energy  :  -117.0596085 Eh     change       -0.2929034E-05 Eh
 * total energy  :  -117.0596098 Eh     change       -0.1346296E-05 Eh
 * total energy  :  -117.0596106 Eh     change       -0.7501473E-06 Eh
 * total energy  :  -117.0596112 Eh     change       -0.5559201E-06 Eh
 * total energy  :  -117.0596117 Eh     change       -0.5054649E-06 Eh
 * total energy  :  -117.0596122 Eh     change       -0.5404653E-06 Eh
 * total energy  :  -117.0596122 Eh     change       -0.6889920E-08 Eh
   *** GEOMETRY OPTIMIZATION CONVERGED AFTER 22 ITERATIONS ***

 final structure:
================
73
 xtb: 6.7.1 (edcfbbe)
N            3.32315211018748        1.64180893924062       -0.90358276996936
C            2.32394469792652        1.13924963526763       -0.57446408275114
C            1.14690578277841        0.55135901411463       -0.18059778005400
C           -0.04927132740586        1.33986662265606        0.03773715854776
N            0.06915400477577        2.73555148016797        0.06128942698704
C            0.91316478036783        3.45309703812178        0.88068451973980
C            1.75783118989974        3.00076582351526        1.88504003018535
C            2.49881378157132        3.93954865604997        2.57708160582851
C            2.39037505939818        5.29898713832398        2.29383326859459
C            1.52491727009754        5.75904670163849        1.31583859916617
C            0.77572423627075        4.83466934145365        0.60513767791778
C           -0.20942781807674        4.94352636616927       -0.43862039900652
C           -0.75923772078598        6.01229354365511       -1.12972838938832
C           -1.69525459876971        5.75335839991246       -2.11665868281075
C           -2.06907987624126        4.44817275963127       -2.42825217829518
C           -1.53488055866899        3.36753915356291       -1.75150803552439
C           -0.61553217015140        3.62186879248442       -0.74332751872501
C           -1.26926993223571        0.74390884074849        0.18991502203769
C           -1.39485844892889       -0.66508718923647        0.19070957294846
N           -2.62992603696200       -1.26377925724409        0.41867231283442
C           -2.87699034816342       -2.28229219396090        1.31750059977437
C           -2.01441750843350       -2.89555137823910        2.21825321701930
C           -2.52511809685266       -3.89409037995317        3.02695036168642
C           -3.86533411392309       -4.27223712146576        2.95379746271908
C           -4.73844003583621       -3.64359499493983        2.08259573759058
C           -4.25031911956483       -2.63659687344759        1.26362671728485
C           -4.85477077157097       -1.77160572385017        0.28909418835544
C           -6.14349155001165       -1.64101658229678       -0.20653304302561
C           -6.38343913838216       -0.70101949712000       -1.19392589562026
C           -5.35250823669525        0.08977784962514       -1.70018213929291
C           -4.06104044128572       -0.02149100815031       -1.21987940468439
C           -3.81697304912257       -0.94146955718046       -0.20831781934894
C           -0.23430761080112       -1.45873954404696        0.02516629538096
C            0.99376474532166       -0.88849326589063       -0.15229055074457
N            2.12780115090352       -1.68417623522963       -0.36688969492914
C            3.31136191551423       -1.60332027306234        0.33360494091234
C            3.62642269010772       -0.82942164012908        1.44232318540064
C            4.89408333202966       -0.95397431019154        1.97767673194255
C            5.82382103953476       -1.83974187416708        1.43816124269122
C            5.50518218309797       -2.63729378129240        0.35232040157851
C            4.24048633391663       -2.52600913816563       -0.20399521937758
C            3.56909218719302       -3.19100665765805       -1.28947577274628
C            3.94834859173340       -4.17305186107118       -2.19173489134219
C            3.03386088814597       -4.58611064569168       -3.14558931294528
C            1.76175918088482       -4.02269534258072       -3.21323922228256
C            1.36027273642161       -3.04262044537828       -2.32419416830610
C            2.26691874367243       -2.63844281661839       -1.35305929691323
H            1.83337008627613        1.95021997396047        2.11860728303794
H            3.17146760646456        3.61243368002069        3.35581871907673
H            2.98656209196952        6.00343786803301        2.85426535505524
H            1.43369231032132        6.81460607998237        1.10983803017178
H           -0.45769939989127        7.02386369633806       -0.90450522685755
H           -2.13664700327851        6.57329071621556       -2.66307405207650
H           -2.78742714821721        4.27629201834530       -3.21588759955458
H           -1.81024335992256        2.35665906374599       -2.00905245651110
H           -2.14054360464350        1.35310344184465        0.37845055984123
H           -0.98207058849823       -2.59200731235594        2.30048380591237
H           -1.87399911003561       -4.38603118003216        3.73393499973892
H           -4.22709631147024       -5.05932100777813        3.59847369565228
H           -5.77943341364712       -3.92620412467693        2.04314080506300
H           -6.94049737357528       -2.26536374151029        0.16771097878301
H           -7.38100507959647       -0.58412365891553       -1.59029514043736
H           -5.56570171682268        0.79915936773597       -2.48572133875998
H           -3.26479234171281        0.57817115993810       -1.63127080039693
H           -0.32889866709820       -2.53404284467679        0.01600982356321
H            2.90667855210470       -0.15055245671238        1.87235042377661
H            5.16710235317834       -0.35505276403615        2.83366330099752
H            6.80586015715004       -1.90823864210330        1.88170505743522
H            6.22391144777143       -3.33345696228388       -0.05244272274723
H            4.93803649401628       -4.60172672658954       -2.15133843206482
H            3.31073776702476       -5.35141236515923       -3.85513287488368
H            1.07538562733385       -4.35552535888852       -3.97752990584722
H            0.37839610712159       -2.59911119132067       -2.39119849600759

          :  Hamiltonian                  GFN2-xTB          :
         :: gradient norm              0.000099096087 Eh/a0 ::
         :: HOMO-LUMO gap              0.466492538460 eV    ::
         :: SCC energy              -119.276224232742 Eh    ::
         :: -> dispersion             -0.109735523921 Eh    ::
         :: -> Gsolv                  -0.053169598893 Eh    ::
         :: repulsion energy           2.216612026831 Eh    ::

    * Orbital Energies and Occupations

         #    Occupation            Energy/Eh            Energy/eV
      -------------------------------------------------------------
         1        2.0000           -0.6877915             -18.7158
       ...           ...                  ...                  ...
        98        2.0000           -0.4196893             -11.4203
        99        2.0000           -0.4155875             -11.3087
       100        2.0000           -0.4145344             -11.2801
       101        2.0000           -0.4136125             -11.2550
       102        2.0000           -0.4032134             -10.9720
       103        2.0000           -0.4010880             -10.9142
       104        2.0000           -0.3884524             -10.5703
       105        2.0000           -0.3882687             -10.5653
       106        2.0000           -0.3874441             -10.5429
       107        1.9977           -0.3762851             -10.2392
       108        1.7315           -0.3714604             -10.1080
       109        1.2708           -0.3695671             -10.0564
       110        0.9998           -0.2719085              -7.3990 (HOMO)
       111        0.0001           -0.2547655              -6.9325 (LUMO)
       112        0.0001           -0.2542719              -6.9191
       113        0.0000           -0.2531372              -6.8882
       114                         -0.2381713              -6.4810
       115                         -0.2333062              -6.3486
       116                         -0.2321798              -6.3179
       117                         -0.2314053              -6.2969
       118                         -0.2097568              -5.7078
       119                         -0.2018560              -5.4928
       120                         -0.1994102              -5.4262
       121                         -0.1961224              -5.3368
       ...                                ...                  ...
       214                          1.1575378              31.4982
      -------------------------------------------------------------
                  HL-Gap            0.0171429 Eh            0.4665 eV

     #   Z          covCN         q      C6AA      α(0)
     1   7 N        0.911    -0.379    29.796     7.895
     2   6 C        1.905     0.103    28.546     8.629
     3   6 C        2.962    -0.042    29.053     8.841
     4   6 C        2.907     0.044    27.013     8.522
     5   7 N        2.802    -0.028    21.780     6.931
     6   6 C        3.078     0.053    26.729     8.476
     7   6 C        2.910    -0.038    28.948     8.822
     8   6 C        2.923    -0.031    28.776     8.797
     9   6 C        2.920    -0.034    28.845     8.807
    10   6 C        2.912    -0.030    28.753     8.793
    11   6 C        3.066    -0.014    28.286     8.721
    12   6 C        3.066    -0.013    28.277     8.720
    13   6 C        2.912    -0.030    28.747     8.792
    14   6 C        2.920    -0.035    28.871     8.811
    15   6 C        2.923    -0.032    28.806     8.802
    16   6 C        2.910    -0.044    29.082     8.843
    17   6 C        3.077     0.049    26.826     8.492
    18   6 C        2.913    -0.060    29.492     8.905
    19   6 C        2.907     0.018    27.608     8.616
    20   7 N        2.797    -0.004    21.330     6.859
    21   6 C        3.074     0.043    26.967     8.514
    22   6 C        2.909    -0.041    29.019     8.833
    23   6 C        2.922    -0.034    28.850     8.808
    24   6 C        2.919    -0.033    28.832     8.805
    25   6 C        2.911    -0.030    28.744     8.791
    26   6 C        3.063    -0.014    28.290     8.722
    27   6 C        3.062    -0.014    28.298     8.723
    28   6 C        2.911    -0.030    28.746     8.792
    29   6 C        2.919    -0.034    28.842     8.807
    30   6 C        2.922    -0.034    28.853     8.809
    31   6 C        2.909    -0.041    29.012     8.832
    32   6 C        3.074     0.043    26.968     8.514
    33   6 C        2.914    -0.059    29.469     8.902
    34   6 C        2.906     0.044    27.006     8.521
    35   7 N        2.802    -0.031    21.833     6.940
    36   6 C        3.077     0.053    26.724     8.475
    37   6 C        2.910    -0.039    28.958     8.824
    38   6 C        2.923    -0.031    28.781     8.798
    39   6 C        2.920    -0.034    28.857     8.809
    40   6 C        2.912    -0.030    28.759     8.794
    41   6 C        3.065    -0.014    28.300     8.723
    42   6 C        3.066    -0.014    28.283     8.721
    43   6 C        2.912    -0.030    28.753     8.793
    44   6 C        2.920    -0.035    28.877     8.812
    45   6 C        2.923    -0.033    28.811     8.802
    46   6 C        2.909    -0.045    29.116     8.848
    47   6 C        3.076     0.049    26.823     8.491
    48   1 H        0.926     0.028     2.619     2.531
    49   1 H        0.926     0.040     2.451     2.448
    50   1 H        0.926     0.042     2.426     2.436
    51   1 H        0.926     0.043     2.405     2.425
    52   1 H        0.926     0.042     2.421     2.433
    53   1 H        0.926     0.041     2.437     2.441
    54   1 H        0.926     0.041     2.432     2.439
    55   1 H        0.926     0.034     2.528     2.486
    56   1 H        0.926     0.043     2.412     2.429
    57   1 H        0.926     0.038     2.471     2.458
    58   1 H        0.926     0.038     2.476     2.461
    59   1 H        0.926     0.039     2.468     2.456
    60   1 H        0.926     0.041     2.440     2.443
    61   1 H        0.926     0.040     2.445     2.445
    62   1 H        0.926     0.038     2.472     2.459
    63   1 H        0.926     0.038     2.471     2.458
    64   1 H        0.926     0.036     2.498     2.471
    65   1 H        0.926     0.045     2.383     2.414
    66   1 H        0.926     0.027     2.629     2.536
    67   1 H        0.926     0.039     2.460     2.453
    68   1 H        0.926     0.041     2.437     2.441
    69   1 H        0.926     0.043     2.415     2.430
    70   1 H        0.926     0.042     2.427     2.436
    71   1 H        0.926     0.040     2.446     2.446
    72   1 H        0.926     0.040     2.445     2.445
    73   1 H        0.926     0.036     2.499     2.472

molecular dipole:
                 x           y           z       tot (Debye)
 q only:       -2.026      -0.944       0.582
   full:       -2.318      -1.087       0.665       6.723

 projected vibrational frequencies (cm⁻¹)
eigval :       -0.00    -0.00    -0.00     0.00     0.00     0.00
eigval :       15.63    18.84    20.42    23.53    25.36    28.80
eigval :       51.72    55.82    66.92    85.49    95.30   101.23
eigval :      102.40   121.01   131.27   137.44   139.76   145.35
eigval :      147.38   149.02   192.05   207.95   222.41   245.52
eigval :      252.63   268.18   268.90   269.57   277.58   283.06
eigval :      289.51   323.00   351.10   366.99   384.43   388.42
eigval :      392.61   394.62   413.45   416.90   418.51   427.60
eigval :      431.89   433.09   434.43   470.48   472.94   512.29
eigval :      514.03   514.86   530.02   530.99   532.29   534.96
eigval :      536.61   540.10   548.84   579.72   580.97   582.54
eigval :      587.15   589.78   605.51   618.19   623.99   645.61
eigval :      663.08   667.78   671.47   671.60   697.85   704.28
eigval :      707.04   707.79   745.62   751.27   753.85   759.38
eigval :      761.34   763.20   764.70   769.07   771.33   773.20
eigval :      785.26   841.32   853.60   857.91   859.26   862.44
eigval :      866.57   871.36   880.60   883.91   890.96   894.03
eigval :      895.47   897.22   898.10   898.59   900.16   902.26
eigval :      903.41   913.34   913.63   914.80   915.50   916.94
eigval :      918.84   993.46  1005.60  1009.19  1012.79  1021.61
eigval :     1061.54  1063.71  1065.61  1066.45  1067.14  1069.86
eigval :     1083.80  1111.72  1113.17  1133.31  1137.11  1139.82
eigval :     1156.29  1157.39  1172.03  1173.50  1174.59  1175.21
eigval :     1175.69  1177.52  1191.67  1215.43  1221.73  1223.43
eigval :     1226.64  1228.16  1234.17  1236.75  1263.09  1266.63
eigval :     1279.83  1282.65  1284.57  1287.00  1293.47  1302.23
eigval :     1325.51  1329.93  1336.80  1337.56  1351.79  1355.68
eigval :     1360.97  1365.05  1366.17  1385.09  1401.24  1407.25
eigval :     1408.39  1417.28  1425.83  1439.07  1454.92  1459.13
eigval :     1459.85  1477.77  1479.45  1480.21  1489.72  1548.26
eigval :     1550.26  1560.75  1561.99  1564.33  1567.86  1574.54
eigval :     1575.79  1576.42  1578.57  1582.46  1594.63  1597.70
eigval :     2197.19  3079.16  3079.26  3079.49  3080.02  3080.22
eigval :     3080.49  3083.83  3084.79  3084.94  3085.41  3086.16
eigval :     3086.41  3090.08  3090.89  3091.76  3092.06  3092.65
eigval :     3093.50  3093.85  3094.79  3097.21  3097.93  3097.98
eigval :     3098.53  3099.91  3102.83

   temp. (K)  partition function   enthalpy   heat capacity  entropy
                                   cal/mol     cal/K/mol   cal/K/mol   J/K/mol
 298.15  VIB  0.412E+16            20997.639    135.670    128.300
         ROT  0.636E+08              888.752      2.981     38.688
         INT  0.262E+24            21886.392    138.651    166.988
         TR   0.142E+29             1481.254      4.968     45.032
         TOT                       23367.6456   143.6190   212.0200   887.0918

       T/K    H(0)-H(T)+PV         H(T)/Eh          T*S/Eh         G(T)/Eh
   ------------------------------------------------------------------------
    298.15    0.372387E-01    0.583392E+00    0.100738E+00    0.482654E+00
   ------------------------------------------------------------------------

         :::::::::::::::::::::::::::::::::::::::::::::::::::::
         ::                  THERMODYNAMIC                  ::
         :::::::::::::::::::::::::::::::::::::::::::::::::::::
         :: total free energy        -116.576958077382 Eh   ::
         ::.................................................::
         :: total energy             -117.059612205934 Eh   ::
         :: zero point energy           0.546152971545 Eh   ::
         :: G(RRHO) w/o ZPVE           -0.063498842992 Eh   ::
         :: G(RRHO) contrib.            0.482654128553 Eh   ::
         :::::::::::::::::::::::::::::::::::::::::::::::::::::

           -------------------------------------------------
          | TOTAL ENERGY             -117.059612205934 Eh   |
          | TOTAL ENTHALPY           -116.476220520702 Eh   |
          | TOTAL FREE ENERGY        -116.576958077382 Eh   |
          | GRADIENT NORM               0.000098884826 Eh/α |
          | HOMO-LUMO GAP               0.466482714436 eV   |
           -------------------------------------------------

 * finished run on 2025/08/30 at 20:08:50.567
