   * xtb version 6.7.1 (edcfbbe) compiled by 'albert@albert-system' on 2024-07-22

   ID    Z sym.   atoms
    1    7 N      1, 5, 20, 35
    2    6 C      2-4, 6-19, 21-34, 36-47
    3    1 H      48-73

          program call               : xtb data2507/toluene/3CzBN/3CzBN.xyz --gfn 2 --gbsa toluene --ohess vtight --parallel 40 --molden --ceasefiles --namespace data2507/toluene/3CzBN/3CzBN_toluene_S0_preOpt
      * Solvation model:               GBSA
        Solvent                        toluene
        Solvent mass                       9.2140E+01 g/mol
          :  Hamiltonian                  GFN2-xTB          :
 * total energy  :  -117.1309894 Eh     change       -0.1281734E-08 Eh
 * total energy  :  -117.1470442 Eh     change       -0.1605480E-01 Eh
 * total energy  :  -117.1503023 Eh     change       -0.3258047E-02 Eh
 * total energy  :  -117.1507535 Eh     change       -0.4511846E-03 Eh
 * total energy  :  -117.1510613 Eh     change       -0.3078640E-03 Eh
 * total energy  :  -117.1511703 Eh     change       -0.1090027E-03 Eh
 * total energy  :  -117.1512519 Eh     change       -0.8156260E-04 Eh
 * total energy  :  -117.1512959 Eh     change       -0.4402001E-04 Eh
 * total energy  :  -117.1513627 Eh     change       -0.6680588E-04 Eh
 * total energy  :  -117.1514079 Eh     change       -0.4513441E-04 Eh
 * total energy  :  -117.1519487 Eh     change       -0.1236496E-05 Eh
 * total energy  :  -117.1519504 Eh     change       -0.1773646E-05 Eh
 * total energy  :  -117.1519527 Eh     change       -0.2291261E-05 Eh
 * total energy  :  -117.1519542 Eh     change       -0.1516652E-05 Eh
 * total energy  :  -117.1519548 Eh     change       -0.5547061E-06 Eh
 * total energy  :  -117.1519550 Eh     change       -0.1844591E-06 Eh
 * total energy  :  -117.1519551 Eh     change       -0.1157014E-06 Eh
 * total energy  :  -117.1519552 Eh     change       -0.1103650E-06 Eh
 * total energy  :  -117.1519553 Eh     change       -0.9306618E-07 Eh
   *** GEOMETRY OPTIMIZATION CONVERGED AFTER 37 ITERATIONS ***

 final structure:
================
73
 xtb: 6.7.1 (edcfbbe)
N           -0.00417555652689       -3.93907416543679        0.00030993381918
C           -0.00291666019738       -2.79069524571612        0.00009329733801
C           -0.00139151413521       -1.38137028167113        0.00002168012036
C            1.21215717723084       -0.67116042550364        0.07522872258482
N            2.42726002268197       -1.35437800545075        0.14597428948124
C            3.38289256733369       -1.19461344305681        1.13597503827004
C            3.35663490635566       -0.38894591717198        2.26406471138209
C            4.44367329506037       -0.44145931474620        3.11728433681439
C            5.52638548390724       -1.27996905430634        2.86330188387415
C            5.54719943147369       -2.09787803658172        1.75026957307876
C            4.46812819487451       -2.06042390709013        0.87654519012873
C            4.15562744663315       -2.75827186990535       -0.34143808536075
C            4.83827802356923       -3.69385532328287       -1.10772609625944
C            4.25666280956723       -4.14147967593625       -2.27756021361268
C            3.02026987493225       -3.65547230115429       -2.69543413417286
C            2.32245812098452       -2.72363055091162       -1.94997186715778
C            2.88802713543491       -2.29633617405837       -0.75880944050137
C            1.20248625974990        0.71529308489784        0.09022273775244
C            0.00156269761865        1.41800856346316       -0.00003937445257
N            0.00300061117288        2.80854882856169       -0.00006285966912
C           -0.82826713325440        3.62218376511323        0.75651636298228
C           -1.77860144871641        3.27999465237869        1.70723807454212
C           -2.44670167245338        4.30550086217998        2.35148671753650
C           -2.17332465312560        5.64163117953522        2.07034369485576
C           -1.20710975628514        5.98820095658552        1.14610541112898
C           -0.52400617049210        4.97483766127382        0.48681068181208
C            0.53403528395296        4.97379243921804       -0.48717488359187
C            1.21902579955011        5.98581537892390       -1.14656943191021
C            2.18461765051682        5.63735027221693       -2.07074636454149
C            2.45555438242183        4.30068602003184       -2.35170170507547
C            1.78554404192007        3.27648513859990       -1.70735283091274
C            0.83578529914667        3.62054181484641       -0.75673287451373
C           -1.20083413054917        0.71782524377944       -0.09032968453705
C           -1.21343362119724       -0.66860126090038       -0.07525559851845
N           -2.42997284329010       -1.34925898759838       -0.14594945490669
C           -2.89270306236299       -2.29015068837478        0.75893528994511
C           -2.32806293707880       -2.71842548045698        1.95018607147337
C           -3.02783955054649       -3.64868419630658        2.69578303812091
C           -4.26524575248943       -4.13215683882182        2.27796663621928
C           -4.84589619783334       -3.68350798126046        1.10804479441495
C           -4.16125622685205       -2.74950110169228        0.34160594713023
C           -4.47228210423054       -2.05116240392852       -0.87647527415433
C           -5.55141159967408       -2.08647177713880       -1.75021484425634
C           -5.52890478817302       -1.26868756142162       -2.86330656169266
C           -4.44447031316048       -0.43242732015345       -3.11735054952060
C           -3.35733116688671       -0.38209086073263       -2.26412933284239
C           -3.38525974103291       -1.18761844559190       -1.13598048767041
H            2.51587083122543        0.25413766144769        2.47788035725033
H            4.45031771556167        0.17908945751375        4.00118917839064
H            6.35661349517147       -1.29283823308977        3.55367429221514
H            6.38037476159981       -2.75742857381269        1.56114573119043
H            5.80555296576338       -4.05622969704911       -0.79437486499903
H            4.76883070286612       -4.87188003268770       -2.88595452418743
H            2.59705262938248       -4.01054881704537       -3.62331253188078
H            1.37010929230618       -2.34603314584981       -2.29251509236885
H            2.13657950553322        1.24782422160729        0.17427343487367
H           -1.98842815120461        2.25025052341490        1.95385755719354
H           -3.19420552672132        4.06225692849882        3.09215943028900
H           -2.71842246362294        6.41383913911388        2.59251329891802
H           -0.97956544814284        7.02340366056907        0.94190491368065
H            0.99337599906067        7.02146030671185       -0.94250907712969
H            2.73114080849455        6.40848795454544       -2.59300834631102
H            3.20264647825560        4.05598332621433       -3.09230964537226
H            1.99351083812998        2.24632461945026       -1.95381174687140
H           -2.13380166899192        1.25231801968739       -0.17444434951348
H           -1.37494699296072       -2.34274538149489        2.29270337204586
H           -2.60539016787016       -4.00449122864430        3.62373297721581
H           -4.77895276507044       -4.86137992871692        2.88647544566058
H           -5.81392815404670       -4.04389165369373        0.79473444040086
H           -6.38598251754421       -2.74424344155086       -1.56103357790087
H           -6.35915858740798       -1.27988516414255       -3.55367747873585
H           -4.44983736861196        0.18806354895796       -4.00130434685340
H           -2.51522512669504        0.25922066479146       -2.47799001216657

          :  Hamiltonian                  GFN2-xTB          :
         :: gradient norm              0.000060343439 Eh/a0 ::
         :: HOMO-LUMO gap              2.278079500673 eV    ::
         :: SCC energy              -119.389239431604 Eh    ::
         :: -> dispersion             -0.108184361152 Eh    ::
         :: -> Gsolv                  -0.049863953401 Eh    ::
         :: repulsion energy           2.237284139828 Eh    ::

    * Orbital Energies and Occupations

         #    Occupation            Energy/Eh            Energy/eV
      -------------------------------------------------------------
         1        2.0000           -0.6999358             -19.0462
       ...           ...                  ...                  ...
        97        2.0000           -0.4255146             -11.5788
        98        2.0000           -0.4248641             -11.5611
        99        2.0000           -0.4242269             -11.5438
       100        2.0000           -0.4238949             -11.5348
       101        2.0000           -0.4134955             -11.2518
       102        2.0000           -0.4119902             -11.2108
       103        2.0000           -0.4115680             -11.1993
       104        2.0000           -0.3870191             -10.5313
       105        2.0000           -0.3853200             -10.4851
       106        2.0000           -0.3853113             -10.4849
       107        2.0000           -0.3760114             -10.2318
       108        2.0000           -0.3741648             -10.1815
       109        2.0000           -0.3731498             -10.1539 (HOMO)
       110                         -0.2894319              -7.8758 (LUMO)
       111                         -0.2638054              -7.1785
       112                         -0.2527083              -6.8765
       113                         -0.2514827              -6.8432
       114                         -0.2500288              -6.8036
       115                         -0.2302926              -6.2666
       116                         -0.2288624              -6.2277
       117                         -0.2285036              -6.2179
       118                         -0.2205961              -6.0027
       119                         -0.2111055              -5.7445
       120                         -0.2008707              -5.4660
       ...                                ...                  ...
       214                          1.1533142              31.3833
      -------------------------------------------------------------
                  HL-Gap            0.0837179 Eh            2.2781 eV

     #   Z          covCN         q      C6AA      α(0)
     1   7 N        0.911    -0.276    27.141     7.535
     2   6 C        1.909     0.132    27.870     8.526
     3   6 C        2.973    -0.020    28.501     8.757
     4   6 C        2.915     0.075    26.323     8.413
     5   7 N        2.803    -0.053    22.255     7.007
     6   6 C        3.069     0.047    26.883     8.502
     7   6 C        2.909    -0.052    29.292     8.875
     8   6 C        2.924    -0.033    28.823     8.804
     9   6 C        2.920    -0.040    28.988     8.829
    10   6 C        2.913    -0.033    28.812     8.802
    11   6 C        3.066    -0.015    28.322     8.727
    12   6 C        3.067    -0.016    28.337     8.729
    13   6 C        2.913    -0.033    28.820     8.803
    14   6 C        2.920    -0.039    28.975     8.827
    15   6 C        2.925    -0.032    28.794     8.800
    16   6 C        2.910    -0.048    29.183     8.858
    17   6 C        3.068     0.048    26.844     8.496
    18   6 C        2.924    -0.064    29.589     8.920
    19   6 C        2.909     0.076    26.313     8.411
    20   7 N        2.802    -0.036    21.938     6.957
    21   6 C        3.065     0.045    26.930     8.510
    22   6 C        2.910    -0.050    29.254     8.869
    23   6 C        2.924    -0.032    28.809     8.802
    24   6 C        2.920    -0.039    28.963     8.825
    25   6 C        2.913    -0.032    28.803     8.801
    26   6 C        3.065    -0.014    28.294     8.722
    27   6 C        3.065    -0.014    28.294     8.722
    28   6 C        2.913    -0.032    28.803     8.801
    29   6 C        2.920    -0.039    28.963     8.825
    30   6 C        2.924    -0.032    28.809     8.802
    31   6 C        2.910    -0.050    29.254     8.869
    32   6 C        3.065     0.045    26.930     8.510
    33   6 C        2.924    -0.064    29.589     8.920
    34   6 C        2.915     0.075    26.323     8.413
    35   7 N        2.803    -0.053    22.255     7.007
    36   6 C        3.068     0.048    26.844     8.496
    37   6 C        2.910    -0.048    29.183     8.858
    38   6 C        2.925    -0.032    28.794     8.800
    39   6 C        2.920    -0.039    28.975     8.827
    40   6 C        2.913    -0.033    28.820     8.803
    41   6 C        3.067    -0.016    28.337     8.729
    42   6 C        3.066    -0.015    28.322     8.727
    43   6 C        2.913    -0.033    28.812     8.802
    44   6 C        2.920    -0.040    28.988     8.829
    45   6 C        2.924    -0.033    28.823     8.804
    46   6 C        2.909    -0.052    29.292     8.875
    47   6 C        3.069     0.047    26.883     8.502
    48   1 H        0.926     0.029     2.596     2.520
    49   1 H        0.926     0.036     2.499     2.472
    50   1 H        0.926     0.035     2.515     2.480
    51   1 H        0.926     0.037     2.483     2.464
    52   1 H        0.926     0.039     2.465     2.455
    53   1 H        0.926     0.036     2.500     2.473
    54   1 H        0.926     0.035     2.511     2.478
    55   1 H        0.926     0.019     2.750     2.593
    56   1 H        0.926     0.066     2.135     2.285
    57   1 H        0.926     0.031     2.567     2.506
    58   1 H        0.926     0.035     2.510     2.477
    59   1 H        0.926     0.034     2.524     2.485
    60   1 H        0.926     0.037     2.482     2.464
    61   1 H        0.926     0.037     2.482     2.464
    62   1 H        0.926     0.034     2.524     2.485
    63   1 H        0.926     0.035     2.510     2.477
    64   1 H        0.926     0.031     2.567     2.505
    65   1 H        0.926     0.066     2.135     2.285
    66   1 H        0.926     0.019     2.750     2.593
    67   1 H        0.926     0.035     2.511     2.478
    68   1 H        0.926     0.036     2.500     2.473
    69   1 H        0.926     0.039     2.465     2.455
    70   1 H        0.926     0.037     2.483     2.464
    71   1 H        0.926     0.035     2.515     2.480
    72   1 H        0.926     0.036     2.499     2.472
    73   1 H        0.926     0.029     2.596     2.520

molecular dipole:
                 x           y           z       tot (Debye)
 q only:        0.002       1.688      -0.000
   full:        0.002       2.031      -0.000       5.163

 projected vibrational frequencies (cm⁻¹)
eigval :       -0.00    -0.00    -0.00    -0.00     0.00     0.00
eigval :       13.02    22.24    23.57    24.53    25.82    27.66
eigval :       53.34    59.95    70.20    87.84    98.50   101.79
eigval :      110.09   128.31   133.18   142.95   147.81   149.71
eigval :      153.36   153.90   204.09   216.19   220.27   250.26
eigval :      259.48   270.57   270.96   272.87   280.04   284.99
eigval :      290.96   324.34   347.07   362.60   394.40   394.85
eigval :      398.82   419.94   420.14   423.45   432.82   435.01
eigval :      436.61   438.70   488.24   506.57   516.98   517.87
eigval :      519.25   525.57   529.55   531.32   541.12   541.15
eigval :      542.62   553.83   556.40   582.83   587.37   588.37
eigval :      589.16   619.03   636.79   637.80   650.74   663.60
eigval :      672.16   672.39   674.62   696.66   700.32   706.19
eigval :      707.38   709.85   748.64   754.02   754.81   765.23
eigval :      765.36   769.36   770.96   777.21   777.41   781.87
eigval :      799.38   856.08   863.63   865.70   866.51   870.26
eigval :      872.62   884.76   891.04   894.44   897.71   898.67
eigval :      899.04   899.38   900.53   900.77   901.85   909.00
eigval :      911.44   919.48   919.55   920.36   920.53   925.46
eigval :      927.12  1008.76  1010.05  1011.78  1029.79  1043.62
eigval :     1068.88  1069.03  1072.17  1073.36  1073.75  1075.54
eigval :     1097.50  1120.34  1146.93  1150.48  1150.56  1152.77
eigval :     1163.40  1174.97  1177.53  1178.35  1178.47  1179.60
eigval :     1182.39  1191.01  1194.19  1220.16  1231.08  1233.31
eigval :     1233.58  1234.28  1235.55  1254.19  1285.78  1292.91
eigval :     1294.19  1296.92  1297.63  1299.16  1303.69  1329.71
eigval :     1333.75  1354.06  1354.75  1355.43  1357.28  1359.37
eigval :     1359.72  1399.29  1412.59  1415.63  1424.56  1425.77
eigval :     1426.38  1439.12  1445.90  1462.60  1471.44  1472.24
eigval :     1474.30  1484.11  1484.94  1484.99  1519.03  1554.60
eigval :     1574.84  1575.35  1575.37  1587.81  1589.20  1589.74
eigval :     1596.79  1598.33  1598.61  1610.34  1611.34  1612.19
eigval :     2350.55  3071.01  3071.04  3075.49  3075.51  3076.51
eigval :     3076.71  3079.31  3079.35  3080.37  3080.42  3082.32
eigval :     3082.88  3086.85  3086.97  3087.89  3087.92  3089.50
eigval :     3090.41  3095.26  3095.27  3095.81  3097.48  3097.50
eigval :     3098.12  3113.31  3113.80

   temp. (K)  partition function   enthalpy   heat capacity  entropy
                                   cal/mol     cal/K/mol   cal/K/mol   J/K/mol
 298.15  VIB  0.168E+16            20612.543    133.873    125.658
         ROT  0.318E+08              888.752      2.981     37.311
         INT  0.533E+23            21501.295    136.854    162.969
         TR   0.142E+29             1481.254      4.968     45.032
         TOT                       22982.5489   141.8223   208.0011   870.2768

       T/K    H(0)-H(T)+PV         H(T)/Eh          T*S/Eh         G(T)/Eh
   ------------------------------------------------------------------------
    298.15    0.366250E-01    0.587372E+00    0.988281E-01    0.488544E+00
   ------------------------------------------------------------------------

         :::::::::::::::::::::::::::::::::::::::::::::::::::::
         ::                  THERMODYNAMIC                  ::
         :::::::::::::::::::::::::::::::::::::::::::::::::::::
         :: total free energy        -116.663411599569 Eh   ::
         ::.................................................::
         :: total energy             -117.151955294761 Eh   ::
         :: zero point energy           0.550746730385 Eh   ::
         :: G(RRHO) w/o ZPVE           -0.062203035193 Eh   ::
         :: G(RRHO) contrib.            0.488543695192 Eh   ::
         :::::::::::::::::::::::::::::::::::::::::::::::::::::

           -------------------------------------------------
          | TOTAL ENERGY             -117.151955294761 Eh   |
          | TOTAL ENTHALPY           -116.564583541454 Eh   |
          | TOTAL FREE ENERGY        -116.663411599569 Eh   |
          | GRADIENT NORM               0.000060550700 Eh/α |
          | HOMO-LUMO GAP               2.278080703422 eV   |
           -------------------------------------------------

 * finished run on 2025/08/30 at 20:00:41.675
