   * xtb version 6.7.1 (edcfbbe) compiled by 'albert@albert-system' on 2024-07-22

   ID    Z sym.   atoms
    1    8 O      1, 13
    2    6 C      2, 4-6, 8-12, 15-17, 19-22
    3    7 N      3, 14
    4   16 S      7, 18
    5    1 H      23-30

          program call               : xtb data2507/gas/TPTI/TPTI_gas_T1_crest.xyz --gfn 2 --spinpol --tblite --uhf 2 --ohess vtight --parallel 40 --molden --ceasefiles --namespace data2507/gas/TPTI/TPTI_gas_T1_finalOpt
 * total energy  :   -58.8036516 Eh     change        0.1678611E-07 Eh
 * total energy  :   -58.8036552 Eh     change       -0.3534298E-05 Eh
 * total energy  :   -58.8036559 Eh     change       -0.7695490E-06 Eh
 * total energy  :   -58.8036562 Eh     change       -0.2843839E-06 Eh
 * total energy  :   -58.8036564 Eh     change       -0.1312343E-06 Eh
 * total energy  :   -58.8036565 Eh     change       -0.1077201E-06 Eh
 * total energy  :   -58.8036566 Eh     change       -0.9502961E-07 Eh
   *** GEOMETRY OPTIMIZATION CONVERGED AFTER 7 ITERATIONS ***

 final structure:
================
30
 xtb: 6.7.1 (edcfbbe)
O            1.33240502438816        3.46112506340896        0.00457235281934
C            1.72934431923824        2.31217511834773        0.00248922930195
N            3.08188797630252        2.05479635634539       -0.00012043509726
C            3.64001007159840        0.80627348891649       -0.00220352917836
C            4.99252376699970        0.47265866342674       -0.00566051982051
C            5.19521925477562       -0.88461926088791       -0.00686211673128
S            3.72175200906665       -1.80039372506727       -0.00365662094807
C            2.78088389075116       -0.33042784045499       -0.00083876046639
C            1.40534426845429       -0.19985480767538        0.00149496372919
C            0.50352062092662       -1.30980362755043        0.00244529171724
C           -0.84823410038362       -1.12673512521977        0.00226159697095
C           -1.72933039656693       -2.31221417106348        0.00236187549784
O           -1.33239710789559       -3.46116520673895        0.00435808498165
N           -3.08187310048339       -2.05482475776164       -0.00032182920178
C           -3.63999778915866       -0.80630011563536       -0.00245121228447
C           -4.99251174664473       -0.47267840488775       -0.00601131662907
C           -5.19519908790145        0.88460445233960       -0.00722225929864
S           -3.72172644941086        1.80037256200931       -0.00390750110273
C           -2.78087055486121        0.33039542900676       -0.00104435516755
C           -1.40532721534364        0.19981370606520        0.00138853315389
C           -0.50350220594584        1.30976578615391        0.00238874483786
C            0.84825068903354        1.12669168747454        0.00231036240707
H            3.69072474255112        2.86440108179619       -0.00044251516045
H            5.79309399993058        1.19019525476156       -0.00735058369578
H            6.13012312378851       -1.40672694173697       -0.00952680204518
H            0.90509267396378       -2.31224165092270        0.00292603910298
H           -3.69070900086003       -2.86442650165816       -0.00068711147132
H           -5.79308497573053       -1.19021125505130       -0.00776174512656
H           -6.13009682279552        1.40671977276349       -0.00996979898633
H           -0.90507448828686        2.31220731439618        0.00279905219178

 projected vibrational frequencies (cm⁻¹)
eigval :       -0.00    -0.00    -0.00    -0.00     0.00     0.00
eigval :       28.82    60.24    82.22   101.27   101.59   117.76
eigval :      162.94   166.91   186.47   253.39   254.04   287.67
eigval :      306.66   326.39   347.24   374.33   395.33   411.61
eigval :      412.78   418.59   459.54   465.25   490.49   568.40
eigval :      569.73   575.18   583.22   605.99   612.75   633.10
eigval :      639.88   643.90   651.42   656.45   673.84   673.86
eigval :      707.41   709.04   713.56   718.53   807.11   808.48
eigval :      808.53   808.81   840.62   847.15   863.42   952.16
eigval :     1012.19  1024.06  1061.22  1071.23  1072.48  1084.99
eigval :     1172.12  1172.60  1193.70  1197.40  1225.38  1234.04
eigval :     1256.38  1281.68  1286.16  1290.34  1340.96  1353.84
eigval :     1408.64  1410.31  1455.99  1472.73  1489.83  1506.78
eigval :     1517.20  1565.68  1691.00  1694.90  3093.38  3094.16
eigval :     3131.89  3132.07  3174.29  3174.87  3395.05  3395.20

   temp. (K)  partition function   enthalpy   heat capacity  entropy
                                   cal/mol     cal/K/mol   cal/K/mol   J/K/mol
 298.15  VIB  0.361E+06             9159.145     62.765     53.987
         ROT  0.449E+07              888.752      2.981     33.419
         INT  0.162E+13            10047.897     65.746     87.405
         TR   0.565E+28             1481.254      4.968     43.206
         TOT                       11529.1509    70.7140   130.6114   546.4782

       T/K    H(0)-H(T)+PV         H(T)/Eh          T*S/Eh         G(T)/Eh
   ------------------------------------------------------------------------
    298.15    0.183729E-01    0.214338E+00    0.620577E-01    0.152280E+00
   ------------------------------------------------------------------------

         :::::::::::::::::::::::::::::::::::::::::::::::::::::
         ::                  THERMODYNAMIC                  ::
         :::::::::::::::::::::::::::::::::::::::::::::::::::::
         :: total free energy         -58.651376082354 Eh   ::
         ::.................................................::
         :: total energy              -58.803656561124 Eh   ::
         :: zero point energy           0.195965308388 Eh   ::
         :: G(RRHO) w/o ZPVE           -0.043684829618 Eh   ::
         :: G(RRHO) contrib.            0.152280478770 Eh   ::
         :::::::::::::::::::::::::::::::::::::::::::::::::::::

           -------------------------------------------------
          | TOTAL ENERGY              -58.803656561124 Eh   |
          | TOTAL ENTHALPY            -58.589318381233 Eh   |
          | TOTAL FREE ENERGY         -58.651376082354 Eh   |
          | GRADIENT NORM               0.000077064360 Eh/α |
           -------------------------------------------------

 * finished run on 2025/09/02 at 22:24:19.169
