   * xtb version 6.7.1 (edcfbbe) compiled by 'albert@albert-system' on 2024-07-22

   ID    Z sym.   atoms
    1    8 O      1, 13
    2    6 C      2, 4-6, 8-12, 15-17, 19-22
    3    7 N      3, 14
    4   16 S      7, 18
    5    1 H      23-30

          program call               : xtb data2507/gas/TPTI/TPTI.xyz --gfn 2 --ohess vtight --parallel 40 --molden --ceasefiles --namespace data2507/gas/TPTI/TPTI_gas_S0_preOpt
          :  Hamiltonian                  GFN2-xTB          :
 * total energy  :   -58.8741630 Eh     change       -0.2311182E-09 Eh
 * total energy  :   -58.8803494 Eh     change       -0.6186393E-02 Eh
 * total energy  :   -58.8819553 Eh     change       -0.1605904E-02 Eh
 * total energy  :   -58.8820208 Eh     change       -0.6545225E-04 Eh
 * total energy  :   -58.8820382 Eh     change       -0.1742149E-04 Eh
 * total energy  :   -58.8820394 Eh     change       -0.1199782E-05 Eh
 * total energy  :   -58.8820379 Eh     change        0.1439710E-05 Eh
 * total energy  :   -58.8820395 Eh     change       -0.1567328E-05 Eh
 * total energy  :   -58.8820387 Eh     change        0.7923073E-06 Eh
 * total energy  :   -58.8820395 Eh     change       -0.8045908E-06 Eh
 * total energy  :   -58.8820394 Eh     change        0.1295334E-06 Eh
 * total energy  :   -58.8820395 Eh     change       -0.1298462E-06 Eh
 * total energy  :   -58.8820394 Eh     change        0.1263049E-06 Eh
 * total energy  :   -58.8820395 Eh     change       -0.1266116E-06 Eh
 * total energy  :   -58.8820394 Eh     change        0.1235874E-06 Eh
 * total energy  :   -58.8820395 Eh     change       -0.1236049E-06 Eh
 * total energy  :   -58.8820394 Eh     change        0.1211527E-06 Eh
 * total energy  :   -58.8820395 Eh     change       -0.1118507E-06 Eh
 * total energy  :   -58.8820395 Eh     change       -0.9634228E-08 Eh
   *** GEOMETRY OPTIMIZATION CONVERGED AFTER 23 ITERATIONS ***

 final structure:
================
30
 xtb: 6.7.1 (edcfbbe)
O            1.65608907227794        3.29451442559391        0.00000224665984
C            1.94432688404894        2.11340694645358        0.00000227328518
N            3.26384818643912        1.72262539001650       -0.00000092247467
C            3.68481742056348        0.41926823438323       -0.00000061385751
C            5.02297580859144       -0.03951507010153       -0.00000115397323
C            5.08972937581958       -1.39606013773694        0.00000147971340
S            3.54578117309260       -2.15372329530509       -0.00000036886534
C            2.75948284309243       -0.60930695866923        0.00000024333544
C            1.36119624273963       -0.34353098131905       -0.00000002473855
C            0.38617906125618       -1.33763224453805       -0.00000024670811
C           -0.96105279829311       -1.01580872095348       -0.00000041095685
C           -1.94432674643066       -2.11340687595586        0.00000019302460
O           -1.65608893078966       -3.29451435415559        0.00000195530102
N           -3.26384804963393       -1.72262532262564       -0.00000135837544
C           -3.68481728510614       -0.41926816767520       -0.00000074636847
C           -5.02297567547574        0.03951513009159        0.00000018510556
C           -5.08972924869658        1.39606019712269        0.00000031989213
S           -3.54578104955249        2.15372336240221        0.00000095346342
C           -2.75948271054698        0.60930702784325       -0.00000071389757
C           -1.36119610942993        0.34353105377171       -0.00000076632005
C           -0.38617892730295        1.33763231772691       -0.00000102046844
C            0.96105293226255        1.01580879411200       -0.00000034173857
H            3.95264061568935        2.46437420404532       -0.00000159835902
H            5.88090400342589        0.60796254004958       -0.00000213387784
H            5.96922761612354       -2.00857312793471        0.00000202491180
H            0.67004355082815       -2.37997465148489        0.00000035053488
H           -3.95264047867299       -2.46437413694146       -0.00000055939449
H           -5.88090386533407       -0.60796248670104        0.00000055949103
H           -5.96922749105254        2.00857318456712        0.00000134176628
H           -0.67004341993305        2.37997472391817       -0.00000114611044

          :  Hamiltonian                  GFN2-xTB          :
         :: gradient norm              0.000024248528 Eh/a0 ::
         :: HOMO-LUMO gap              2.389838936866 eV    ::
         :: SCC energy               -59.731472124384 Eh    ::
         :: -> dispersion             -0.042488647091 Eh    ::
         :: repulsion energy           0.849432600044 Eh    ::

    * Orbital Energies and Occupations

         #    Occupation            Energy/Eh            Energy/eV
      -------------------------------------------------------------
         1        2.0000           -0.7442321             -20.2516
       ...           ...                  ...                  ...
        41        2.0000           -0.4703527             -12.7989
        42        2.0000           -0.4630128             -12.5992
        43        2.0000           -0.4605591             -12.5325
        44        2.0000           -0.4569956             -12.4355
        45        2.0000           -0.4539755             -12.3533
        46        2.0000           -0.4407981             -11.9947
        47        2.0000           -0.4263235             -11.6009
        48        2.0000           -0.4143563             -11.2752
        49        2.0000           -0.4061093             -11.0508
        50        2.0000           -0.4014801             -10.9248
        51        2.0000           -0.4010843             -10.9141
        52        2.0000           -0.3922639             -10.6740
        53        2.0000           -0.3746296             -10.1942 (HOMO)
        54                         -0.2868046              -7.8044 (LUMO)
        55                         -0.2834531              -7.7132
        56                         -0.2575516              -7.0083
        57                         -0.2201928              -5.9918
        58                         -0.2178018              -5.9267
        59                         -0.2155289              -5.8648
        60                         -0.2154764              -5.8634
        61                         -0.1881077              -5.1187
        62                         -0.1789419              -4.8693
        63                         -0.1336617              -3.6371
        64                         -0.1320899              -3.5943
       ...                                ...                  ...
       106                          0.7121745              19.3793
      -------------------------------------------------------------
                  HL-Gap            0.0878250 Eh            2.3898 eV

     #   Z          covCN         q      C6AA      α(0)
     1   8 O        0.859    -0.433    22.359     6.340
     2   6 C        2.765     0.268    22.475     7.764
     3   7 N        2.697    -0.142    24.075     7.287
     4   6 C        3.109     0.056    26.602     8.450
     5   6 C        3.084    -0.064    29.499     8.904
     6   6 C        2.946    -0.018    28.462     8.750
     7  16 S        2.284     0.000   141.040    19.988
     8   6 C        3.004    -0.003    28.090     8.694
     9   6 C        2.992     0.012    27.742     8.640
    10   6 C        2.923    -0.026    28.657     8.779
    11   6 C        2.982    -0.020    28.492     8.756
    12   6 C        2.765     0.268    22.475     7.764
    13   8 O        0.859    -0.433    22.359     6.340
    14   7 N        2.697    -0.142    24.075     7.287
    15   6 C        3.109     0.056    26.602     8.450
    16   6 C        3.084    -0.064    29.499     8.904
    17   6 C        2.946    -0.018    28.462     8.750
    18  16 S        2.284     0.000   141.040    19.988
    19   6 C        3.004    -0.003    28.090     8.694
    20   6 C        2.992     0.012    27.742     8.640
    21   6 C        2.923    -0.026    28.657     8.779
    22   6 C        2.982    -0.020    28.492     8.756
    23   1 H        0.860     0.193     1.141     1.673
    24   1 H        0.926     0.046     2.365     2.405
    25   1 H        0.926     0.057     2.229     2.335
    26   1 H        0.926     0.073     2.049     2.238
    27   1 H        0.860     0.193     1.141     1.673
    28   1 H        0.926     0.046     2.365     2.405
    29   1 H        0.926     0.057     2.229     2.335
    30   1 H        0.926     0.073     2.049     2.238

molecular dipole:
                 x           y           z       tot (Debye)
 q only:       -0.000      -0.000      -0.000
   full:       -0.000      -0.000      -0.000       0.000

 projected vibrational frequencies (cm⁻¹)
eigval :       -0.00    -0.00    -0.00    -0.00     0.00     0.00
eigval :       33.90    58.69    85.21   102.04   102.76   119.73
eigval :      164.64   191.50   202.50   257.75   276.22   303.82
eigval :      309.06   351.64   366.57   393.75   406.33   419.65
eigval :      427.45   466.44   472.72   474.98   538.15   570.89
eigval :      590.02   601.90   602.98   622.80   628.34   639.87
eigval :      650.94   658.13   663.78   664.71   717.24   730.74
eigval :      732.51   748.10   754.08   754.10   819.92   820.03
eigval :      839.99   840.61   873.33   878.98   889.76   972.43
eigval :     1045.06  1045.37  1088.98  1094.67  1100.68  1114.16
eigval :     1175.80  1176.96  1207.45  1210.29  1251.50  1260.73
eigval :     1283.88  1283.89  1353.95  1357.31  1388.85  1429.68
eigval :     1447.08  1467.83  1475.76  1498.34  1510.10  1548.63
eigval :     1552.84  1581.09  1708.48  1711.09  3091.89  3091.96
eigval :     3134.89  3134.96  3167.90  3167.94  3406.76  3406.88

   temp. (K)  partition function   enthalpy   heat capacity  entropy
                                   cal/mol     cal/K/mol   cal/K/mol   J/K/mol
 298.15  VIB  0.185E+06             8779.151     60.760     51.643
         ROT  0.446E+07              888.752      2.981     33.409
         INT  0.827E+12             9667.903     63.741     85.051
         TR   0.565E+28             1481.254      4.968     43.206
         TOT                       11149.1573    68.7089   128.2575   536.6293

       T/K    H(0)-H(T)+PV         H(T)/Eh          T*S/Eh         G(T)/Eh
   ------------------------------------------------------------------------
    298.15    0.177673E-01    0.217711E+00    0.609393E-01    0.156772E+00
   ------------------------------------------------------------------------

         :::::::::::::::::::::::::::::::::::::::::::::::::::::
         ::                  THERMODYNAMIC                  ::
         :::::::::::::::::::::::::::::::::::::::::::::::::::::
         :: total free energy         -58.725267501415 Eh   ::
         ::.................................................::
         :: total energy              -58.882039524339 Eh   ::
         :: zero point energy           0.199943972093 Eh   ::
         :: G(RRHO) w/o ZPVE           -0.043171949169 Eh   ::
         :: G(RRHO) contrib.            0.156772022924 Eh   ::
         :::::::::::::::::::::::::::::::::::::::::::::::::::::

           -------------------------------------------------
          | TOTAL ENERGY              -58.882039524339 Eh   |
          | TOTAL ENTHALPY            -58.664328239187 Eh   |
          | TOTAL FREE ENERGY         -58.725267501415 Eh   |
          | GRADIENT NORM               0.000024226529 Eh/α |
          | HOMO-LUMO GAP               2.389839206547 eV   |
           -------------------------------------------------

 * finished run on 2025/09/02 at 22:22:14.391
