   * xtb version 6.7.1 (edcfbbe) compiled by 'albert@albert-system' on 2024-07-22

   ID    Z sym.   atoms
    1    8 O      1, 13
    2    6 C      2, 4-6, 8-12, 15-17, 19-22
    3    7 N      3, 14
    4   16 S      7, 18
    5    1 H      23-30

          program call               : xtb data2507/gas/TPTI/TPTI_gas_S0_crest.xyz --gfn 2 --ohess vtight --parallel 40 --molden --ceasefiles --namespace data2507/gas/TPTI/TPTI_gas_S0_finalOpt
          :  Hamiltonian                  GFN2-xTB          :
 * total energy  :   -58.8820340 Eh     change       -0.2901004E-09 Eh
 * total energy  :   -58.8820350 Eh     change       -0.1011355E-05 Eh
 * total energy  :   -58.8820356 Eh     change       -0.5998650E-06 Eh
 * total energy  :   -58.8820363 Eh     change       -0.6880534E-06 Eh
 * total energy  :   -58.8820368 Eh     change       -0.5842923E-06 Eh
 * total energy  :   -58.8820373 Eh     change       -0.4371479E-06 Eh
 * total energy  :   -58.8820376 Eh     change       -0.2881781E-06 Eh
 * total energy  :   -58.8820378 Eh     change       -0.2099513E-06 Eh
 * total energy  :   -58.8820380 Eh     change       -0.1815983E-06 Eh
 * total energy  :   -58.8820381 Eh     change       -0.1848704E-06 Eh
 * total energy  :   -58.8820383 Eh     change       -0.1871492E-06 Eh
 * total energy  :   -58.8820385 Eh     change       -0.1797360E-06 Eh
 * total energy  :   -58.8820386 Eh     change       -0.1418556E-06 Eh
 * total energy  :   -58.8820388 Eh     change       -0.1250009E-06 Eh
 * total energy  :   -58.8820389 Eh     change       -0.8614330E-07 Eh
   *** GEOMETRY OPTIMIZATION CONVERGED AFTER 15 ITERATIONS ***

 final structure:
================
30
 xtb: 6.7.1 (edcfbbe)
O            1.30633946500349        3.44819211863921       -0.00468163796236
C            1.71521662584567        2.30323903991481       -0.00248205109744
N            3.06809021904244        2.05109816411686        0.00099946322977
C            3.62167530331747        0.79831362856316        0.00343938644444
C            5.00011095255809        0.48045342135054        0.00858041216520
C            5.20686514281313       -0.86190368090114        0.01006918123529
S            3.74961072059615       -1.77525770138982        0.00517842890143
C            2.80774438334758       -0.32049273156781        0.00113715229489
C            1.38947249043990       -0.20083601875502       -0.00201188421843
C            0.52254679387749       -1.29048639529263       -0.00307614760769
C           -0.85075346283158       -1.10979931153607       -0.00286408143863
C           -1.71516475542899       -2.30324960067757       -0.00261699513440
O           -1.30628641378893       -3.44820152957018       -0.00495628917669
N           -3.06803886124536       -2.05110985126775        0.00092249900476
C           -3.62162444034334       -0.79832482752943        0.00352844962535
C           -5.00005953196686       -0.48046577522510        0.00877996660401
C           -5.20681415129746        0.86189116857685        0.01044744932648
S           -3.74956058454211        1.77524567558713        0.00559485902733
C           -2.80769418695202        0.32048234851902        0.00132171306493
C           -1.38942190375345        0.20082649566017       -0.00192244551758
C           -0.52249646989178        1.29047678662008       -0.00294394669630
C            0.85080438889880        1.10978976501501       -0.00281849793810
H            3.67637163089204        2.86017896094874        0.00197446975895
H            5.78645147602236        1.21320211515386        0.01124615309810
H            6.14501049047693       -1.38012348999981        0.01390745367572
H            0.91271612822552       -2.29786491178866       -0.00335593546862
H           -3.67632252742727       -2.86018901117066        0.00186816462787
H           -5.78639942667324       -1.21321549035552        0.01138335147009
H           -6.14495929157854        1.38010996908286        0.01441684170971
H           -0.91266607733612        2.29785527417882       -0.00308330510806

          :  Hamiltonian                  GFN2-xTB          :
         :: gradient norm              0.000023149501 Eh/a0 ::
         :: HOMO-LUMO gap              2.389820549092 eV    ::
         :: SCC energy               -59.731482502968 Eh    ::
         :: -> dispersion             -0.042488701193 Eh    ::
         :: repulsion energy           0.849443643974 Eh    ::

    * Orbital Energies and Occupations

         #    Occupation            Energy/Eh            Energy/eV
      -------------------------------------------------------------
         1        2.0000           -0.7442325             -20.2516
       ...           ...                  ...                  ...
        41        2.0000           -0.4703533             -12.7990
        42        2.0000           -0.4630139             -12.5992
        43        2.0000           -0.4605590             -12.5324
        44        2.0000           -0.4569960             -12.4355
        45        2.0000           -0.4539759             -12.3533
        46        2.0000           -0.4407983             -11.9947
        47        2.0000           -0.4263239             -11.6009
        48        2.0000           -0.4143567             -11.2752
        49        2.0000           -0.4061100             -11.0508
        50        2.0000           -0.4014803             -10.9248
        51        2.0000           -0.4010850             -10.9141
        52        2.0000           -0.3922636             -10.6740
        53        2.0000           -0.3746291             -10.1942 (HOMO)
        54                         -0.2868048              -7.8044 (LUMO)
        55                         -0.2834540              -7.7132
        56                         -0.2575518              -7.0083
        57                         -0.2201941              -5.9918
        58                         -0.2178012              -5.9267
        59                         -0.2155361              -5.8650
        60                         -0.2154687              -5.8632
        61                         -0.1881080              -5.1187
        62                         -0.1789414              -4.8692
        63                         -0.1336608              -3.6371
        64                         -0.1320885              -3.5943
       ...                                ...                  ...
       106                          0.7121805              19.3794
      -------------------------------------------------------------
                  HL-Gap            0.0878243 Eh            2.3898 eV

     #   Z          covCN         q      C6AA      α(0)
     1   8 O        0.859    -0.433    22.359     6.340
     2   6 C        2.765     0.268    22.475     7.764
     3   7 N        2.697    -0.142    24.075     7.287
     4   6 C        3.109     0.056    26.602     8.450
     5   6 C        3.084    -0.064    29.499     8.904
     6   6 C        2.946    -0.018    28.462     8.750
     7  16 S        2.284     0.000   141.040    19.988
     8   6 C        3.004    -0.003    28.090     8.694
     9   6 C        2.992     0.012    27.742     8.640
    10   6 C        2.923    -0.026    28.657     8.779
    11   6 C        2.982    -0.020    28.492     8.756
    12   6 C        2.765     0.268    22.475     7.764
    13   8 O        0.859    -0.433    22.359     6.340
    14   7 N        2.697    -0.142    24.075     7.287
    15   6 C        3.109     0.056    26.602     8.450
    16   6 C        3.084    -0.064    29.499     8.904
    17   6 C        2.946    -0.018    28.462     8.750
    18  16 S        2.284     0.000   141.040    19.988
    19   6 C        3.004    -0.003    28.090     8.694
    20   6 C        2.992     0.012    27.742     8.640
    21   6 C        2.923    -0.026    28.657     8.779
    22   6 C        2.982    -0.020    28.492     8.756
    23   1 H        0.860     0.193     1.141     1.673
    24   1 H        0.926     0.046     2.365     2.405
    25   1 H        0.926     0.057     2.229     2.335
    26   1 H        0.926     0.073     2.049     2.238
    27   1 H        0.860     0.193     1.141     1.673
    28   1 H        0.926     0.046     2.365     2.405
    29   1 H        0.926     0.057     2.229     2.335
    30   1 H        0.926     0.073     2.049     2.238

molecular dipole:
                 x           y           z       tot (Debye)
 q only:        0.000      -0.000       0.009
   full:        0.000      -0.000       0.010       0.026

 projected vibrational frequencies (cm⁻¹)
eigval :       -0.00    -0.00     0.00     0.00     0.00     0.00
eigval :       33.34    58.37    85.33   102.03   103.13   119.90
eigval :      164.62   191.41   202.53   257.74   275.07   303.82
eigval :      306.97   351.63   365.67   393.58   406.33   419.64
eigval :      427.37   466.49   472.72   474.98   537.97   570.89
eigval :      590.02   602.26   603.24   623.25   628.33   639.87
eigval :      651.49   658.14   664.16   664.73   717.71   731.00
eigval :      732.51   748.11   754.01   754.05   819.99   820.01
eigval :      840.00   840.59   873.35   878.99   889.68   972.46
eigval :     1045.08  1045.39  1088.98  1094.62  1100.66  1114.16
eigval :     1175.84  1176.97  1207.42  1210.29  1251.52  1260.72
eigval :     1283.93  1283.93  1353.95  1357.34  1388.85  1429.68
eigval :     1447.07  1467.83  1475.78  1498.35  1510.11  1548.63
eigval :     1552.83  1581.09  1708.46  1711.07  3091.92  3092.00
eigval :     3134.93  3135.00  3167.88  3167.91  3406.85  3406.96

   temp. (K)  partition function   enthalpy   heat capacity  entropy
                                   cal/mol     cal/K/mol   cal/K/mol   J/K/mol
 298.15  VIB  0.189E+06             8782.240     60.750     51.660
         ROT  0.446E+07              888.752      2.981     33.409
         INT  0.844E+12             9670.992     63.731     85.068
         TR   0.565E+28             1481.254      4.968     43.206
         TOT                       11152.2460    68.6990   128.2743   536.6997

       T/K    H(0)-H(T)+PV         H(T)/Eh          T*S/Eh         G(T)/Eh
   ------------------------------------------------------------------------
    298.15    0.177722E-01    0.217712E+00    0.609473E-01    0.156765E+00
   ------------------------------------------------------------------------

         :::::::::::::::::::::::::::::::::::::::::::::::::::::
         ::                  THERMODYNAMIC                  ::
         :::::::::::::::::::::::::::::::::::::::::::::::::::::
         :: total free energy         -58.725273961349 Eh   ::
         ::.................................................::
         :: total energy              -58.882038858998 Eh   ::
         :: zero point energy           0.199939920449 Eh   ::
         :: G(RRHO) w/o ZPVE           -0.043175022801 Eh   ::
         :: G(RRHO) contrib.            0.156764897649 Eh   ::
         :::::::::::::::::::::::::::::::::::::::::::::::::::::

           -------------------------------------------------
          | TOTAL ENERGY              -58.882038858998 Eh   |
          | TOTAL ENTHALPY            -58.664326703351 Eh   |
          | TOTAL FREE ENERGY         -58.725273961349 Eh   |
          | GRADIENT NORM               0.000023187742 Eh/α |
          | HOMO-LUMO GAP               2.389821266479 eV   |
           -------------------------------------------------

 * finished run on 2025/09/02 at 22:23:12.820
