   * xtb version 6.7.1 (edcfbbe) compiled by 'albert@albert-system' on 2024-07-22

   ID    Z sym.   atoms
    1    8 O      1, 13
    2    6 C      2, 4-6, 8-12, 15-17, 19-22
    3    7 N      3, 14
    4   16 S      7, 18
    5    1 H      23-30

          program call               : xtb data2507/gas/TPTI/TPTI_gas_S0_finalOpt.xtbopt.xyz --gfn 2 --spinpol --tblite --uhf 2 --ohess vtight --parallel 40 --molden --ceasefiles --namespace data2507/gas/TPTI/TPTI_gas_T1_preOpt
 * total energy  :   -58.7960884 Eh     change       -0.1658329E-08 Eh
 * total energy  :   -58.8013819 Eh     change       -0.5293496E-02 Eh
 * total energy  :   -58.8034924 Eh     change       -0.2110548E-02 Eh
 * total energy  :   -58.8036035 Eh     change       -0.1110999E-03 Eh
 * total energy  :   -58.8036532 Eh     change       -0.4967837E-04 Eh
 * total energy  :   -58.8036560 Eh     change       -0.2771637E-05 Eh
 * total energy  :   -58.8036565 Eh     change       -0.4861262E-06 Eh
 * total energy  :   -58.8036562 Eh     change        0.3241571E-06 Eh
 * total energy  :   -58.8036565 Eh     change       -0.3877621E-06 Eh
 * total energy  :   -58.8036566 Eh     change       -0.2503111E-07 Eh
   *** GEOMETRY OPTIMIZATION CONVERGED AFTER 10 ITERATIONS ***

 final structure:
================
30
 xtb: 6.7.1 (edcfbbe)
O            1.32029898602464        3.46578881503885       -0.00333735139372
C            1.72124857562064        2.31823834402969       -0.00129715104651
N            3.07469813304010        2.06560727493263        0.00118077825966
C            3.63719788883572        0.81903159530526        0.00334523204592
C            4.99086201507911        0.49016450803873        0.00678647540633
C            5.19831102428723       -0.86641291143422        0.00803685095363
S            3.72804580106924       -1.78733997453483        0.00490389280465
C            2.78203303945031       -0.32066145623592        0.00204552815324
C            1.40606473194286       -0.19490461554190       -0.00024941363473
C            0.50810905684813       -1.30801997899424       -0.00123274145578
C           -0.84426930135787       -1.12968594306101       -0.00110654523362
C           -1.72119629082106       -2.31824517937835       -0.00142947832219
O           -1.32024183792385       -3.46579414897653       -0.00360843209694
N           -3.07464432333106       -2.06561796098829        0.00115269817252
C           -3.63714633139512       -0.81904390264488        0.00347913028946
C           -4.99080871860694       -0.49018252173818        0.00703528865504
C           -5.19826379754558        0.86639425828470        0.00843809063807
S           -3.72800074705394        1.78732821805610        0.00531191832782
C           -2.78198022472313        0.32065048556350        0.00224556590889
C           -1.40601407453789        0.19489925033143       -0.00014476796566
C           -0.50805763494629        1.30801551368760       -0.00106856623325
C            0.84432091587214        1.12968046257288       -0.00104218774199
H            3.68063436603487        2.87737891349564        0.00143362895971
H            5.78885599858769        1.21056187297985        0.00839235069231
H            6.13504478714435       -1.38523420682242        0.01071262004429
H            0.91317060071151       -2.30905451765543       -0.00174466168197
H           -3.68058390335086       -2.87738743173388        0.00135918501841
H           -5.78880312013332       -1.21058011174308        0.00861464609678
H           -6.13499991195382        1.38521091483469        0.01122370384189
H           -0.91312130522392        2.30904917133374       -0.00145411194154

 projected vibrational frequencies (cm⁻¹)
eigval :       -0.00    -0.00    -0.00    -0.00     0.00     0.00
eigval :       28.66    60.23    82.26   101.28   101.56   117.66
eigval :      162.92   166.86   186.51   253.41   254.09   287.67
eigval :      306.62   326.41   347.21   374.36   395.30   411.64
eigval :      412.80   418.67   459.47   465.17   490.51   568.67
eigval :      569.70   575.21   583.23   605.98   612.79   633.18
eigval :      639.85   643.73   651.51   656.54   674.06   674.15
eigval :      707.44   709.07   713.65   718.54   807.27   808.48
eigval :      808.56   808.84   840.68   847.21   863.55   952.01
eigval :     1011.72  1024.21  1061.03  1071.44  1072.81  1085.20
eigval :     1172.30  1172.77  1194.63  1197.52  1225.53  1233.91
eigval :     1256.75  1282.11  1286.72  1289.90  1340.89  1353.92
eigval :     1408.86  1410.13  1456.10  1472.75  1489.91  1506.80
eigval :     1517.21  1565.73  1690.98  1694.85  3093.60  3093.91
eigval :     3132.22  3132.40  3174.21  3174.66  3395.47  3395.56

   temp. (K)  partition function   enthalpy   heat capacity  entropy
                                   cal/mol     cal/K/mol   cal/K/mol   J/K/mol
 298.15  VIB  0.363E+06             9158.980     62.759     53.988
         ROT  0.449E+07              888.752      2.981     33.419
         INT  0.163E+13            10047.732     65.740     87.407
         TR   0.565E+28             1481.254      4.968     43.206
         TOT                       11528.9864    70.7077   130.6129   546.4844

       T/K    H(0)-H(T)+PV         H(T)/Eh          T*S/Eh         G(T)/Eh
   ------------------------------------------------------------------------
    298.15    0.183726E-01    0.214349E+00    0.620584E-01    0.152291E+00
   ------------------------------------------------------------------------

         :::::::::::::::::::::::::::::::::::::::::::::::::::::
         ::                  THERMODYNAMIC                  ::
         :::::::::::::::::::::::::::::::::::::::::::::::::::::
         :: total free energy         -58.651365529169 Eh   ::
         ::.................................................::
         :: total energy              -58.803656572932 Eh   ::
         :: zero point energy           0.195976841998 Eh   ::
         :: G(RRHO) w/o ZPVE           -0.043685798235 Eh   ::
         :: G(RRHO) contrib.            0.152291043763 Eh   ::
         :::::::::::::::::::::::::::::::::::::::::::::::::::::

           -------------------------------------------------
          | TOTAL ENERGY              -58.803656572932 Eh   |
          | TOTAL ENTHALPY            -58.589307121695 Eh   |
          | TOTAL FREE ENERGY         -58.651365529169 Eh   |
          | GRADIENT NORM               0.000035982455 Eh/α |
           -------------------------------------------------

 * finished run on 2025/09/02 at 22:23:14.008
