   * xtb version 6.7.1 (edcfbbe) compiled by 'albert@albert-system' on 2024-07-22

   ID    Z sym.   atoms
    1    6 C      1-11, 13, 15-20, 22-53, 55-62
    2    7 N      12, 21
    3    8 O      14, 54
    4    1 H      63-104

          program call               : xtb data2507/toluene/NAI–BiFA/NAI–BiFA_toluene_S0_crest.xyz --gfn 2 --gbsa toluene --ohess vtight --parallel 40 --molden --ceasefiles --namespace data2507/toluene/NAI–BiFA/NAI–BiFA_toluene_S0_finalOpt
      * Solvation model:               GBSA
        Solvent                        toluene
        Solvent mass                       9.2140E+01 g/mol
          :  Hamiltonian                  GFN2-xTB          :
 * total energy  :  -159.7532615 Eh     change       -0.1832092E-08 Eh
 * total energy  :  -159.7534303 Eh     change       -0.1687463E-03 Eh
 * total energy  :  -159.7535141 Eh     change       -0.8385452E-04 Eh
 * total energy  :  -159.7535408 Eh     change       -0.2667306E-04 Eh
 * total energy  :  -159.7535845 Eh     change       -0.4373817E-04 Eh
 * total energy  :  -159.7536160 Eh     change       -0.3141053E-04 Eh
 * total energy  :  -159.7536446 Eh     change       -0.2864569E-04 Eh
 * total energy  :  -159.7536644 Eh     change       -0.1982377E-04 Eh
 * total energy  :  -159.7536824 Eh     change       -0.1800408E-04 Eh
 * total energy  :  -159.7536938 Eh     change       -0.1140562E-04 Eh
 * total energy  :  -159.7539236 Eh     change       -0.1349889E-05 Eh
 * total energy  :  -159.7539251 Eh     change       -0.1490957E-05 Eh
 * total energy  :  -159.7539269 Eh     change       -0.1822202E-05 Eh
 * total energy  :  -159.7539288 Eh     change       -0.1896683E-05 Eh
 * total energy  :  -159.7539306 Eh     change       -0.1773791E-05 Eh
 * total energy  :  -159.7539322 Eh     change       -0.1588010E-05 Eh
 * total energy  :  -159.7539337 Eh     change       -0.1489922E-05 Eh
 * total energy  :  -159.7539352 Eh     change       -0.1557410E-05 Eh
 * total energy  :  -159.7539352 Eh     change       -0.7307449E-08 Eh
   *** GEOMETRY OPTIMIZATION CONVERGED AFTER 68 ITERATIONS ***

 final structure:
================
104
 xtb: 6.7.1 (edcfbbe)
C            8.68906207866135        0.66452997758249       -0.55324588863674
C            7.22403093599113        0.47886099786190       -0.28419803550348
C            6.37435535627243       -0.01748737404649       -1.27751979063651
C            6.87454417787854       -0.43018823069457       -2.60593093896909
C            7.81543886127699       -1.44592661613666       -2.74315280154199
C            8.24726701512791       -1.83564683066170       -3.99839404634251
C            7.74942266872086       -1.21271695478412       -5.13100152163701
C            6.80863398134440       -0.20390684387215       -5.00359083353543
C            6.36848607957857        0.18084277447176       -3.74971749078948
C            5.00808889090389       -0.12129708899582       -1.04266047293260
C            4.47877757910908        0.27298203930618        0.17186051482010
N            3.06560913053665        0.17455355226782        0.39910368156825
C            2.64200772328060       -0.74784916822647        1.34046343480440
O            3.44814949531403       -1.45088074220281        1.92840508594019
C            1.19476478015709       -0.82637021967259        1.56936196590479
C            0.71091965440918       -1.68151775667133        2.54148836204576
C           -0.65613391916993       -1.74305068292823        2.79623880673755
C           -1.53824093709053       -1.00297259869185        2.04580508941256
C           -1.09264536572159       -0.15999642849666        1.01101162325492
C           -1.97470291656292        0.62818715118417        0.19996724817979
N           -3.34404444982142        0.47908801932086        0.27270322393733
C           -4.17798538782862        1.59647992802700        0.07609304881087
C           -3.88672872612847        2.80199939107112        0.71263517880874
C           -4.70624399063352        3.89727742926589        0.53508540068963
C           -5.84265458818621        3.82082995893268       -0.26971155929401
C           -6.71320290318285        4.99003207144311       -0.45952752733896
C           -8.09982995920193        4.85072881071334       -0.46733262460006
C           -8.91694351144767        5.95070230986486       -0.65213905372895
C           -8.36339239223695        7.20681125316224       -0.83878667790497
C           -6.98625546148536        7.35684972207772       -0.83391050058274
C           -6.16738828444481        6.25919572752914       -0.64284225886052
C           -6.13058532841427        2.60824588558756       -0.89468477669276
C           -5.30976978783649        1.51117585990160       -0.73151222343061
C           -3.93999788494192       -0.79400779524007        0.34386419882804
C           -5.11703933984052       -0.97006492240224        1.07233979727931
C           -5.72467205824788       -2.21018755846278        1.14424035803978
C           -5.14327318532902       -3.28253280755479        0.48574218675231
C           -3.96162521600707       -3.10571920642955       -0.25170012546835
C           -3.36230811487581       -1.87133248801157       -0.33390458724024
C           -3.52427391280762       -4.40690416059575       -0.88507050216474
C           -3.50612457723708       -4.30101226728606       -2.41382725998416
C           -2.14922510285356       -4.83626064410220       -0.36104135821687
C           -4.60844749149528       -5.35080809261911       -0.41236599070366
C           -4.75541480348119       -6.69733903353021       -0.66803207963257
C           -5.84007575134895       -7.36973058882298       -0.11935479738767
C           -6.76262340447340       -6.70298616339991        0.67269244643142
C           -6.62413410147263       -5.34924214025663        0.93378659658221
C           -5.54306277785883       -4.67583339149751        0.38780491133486
C           -1.43072633307802        1.56748939669323       -0.67351344574804
C           -0.06463427722247        1.69707086101885       -0.83517039864567
C            0.81644119605680        0.89123728396208       -0.12711022959833
C            0.30833517625509       -0.03408108631537        0.80844276931986
C            2.25035262498357        1.02570570973980       -0.34271701514935
O            2.74608610939343        1.83019420770058       -1.11712158128051
C            5.30707666181693        0.76556059992728        1.16320861937598
C            6.67683101717740        0.85661016965741        0.94597410274191
C            7.51614487709618        1.37933526842897        2.04569820575013
C            8.51422389322867        0.59741859552846        2.61862798270284
C            9.27280784522265        1.08673782248648        3.66683134436358
C            9.04762473799087        2.36428237925412        4.15257820466632
C            8.05255660389727        3.14755175577901        3.59156465201650
C            7.28737753622287        2.65647418419768        2.54861254026579
H            8.86160559429049        0.84332172931414       -1.61192244313200
H            9.07631142636495        1.50401363149522        0.01953904954109
H            9.25139752241592       -0.22307012176861       -0.26662096996076
H            8.19415756854781       -1.94162655448345       -1.86171282590744
H            8.97462879916974       -2.62901127976675       -4.09332091972283
H            8.09102407468161       -1.51449355549682       -6.11042372701981
H            6.41435086092899        0.28357332921067       -5.88379938925274
H            5.63504829045230        0.96836379523764       -3.64548756479881
H            4.35801987766396       -0.50889465767379       -1.81390483932212
H            1.41532190615960       -2.27582803821251        3.10419160950941
H           -1.02364699776481       -2.37764574826981        3.58767562072713
H           -2.59136893836740       -1.06001495958992        2.26890446709780
H           -3.01637589894770        2.87022542512366        1.34902496753002
H           -4.47752246674188        4.81914075657120        1.04866689239447
H           -8.53879790710811        3.87665498542147       -0.30688953077070
H           -9.99067487715666        5.82853813880487       -0.64994115285042
H           -9.00232245426687        8.06521300037075       -0.98692836883007
H           -6.54858906066405        8.33371256116415       -0.98250772160400
H           -5.09389546140812        6.38102248877278       -0.65796554603777
H           -6.99265349011411        2.53301718803695       -1.54050543003217
H           -5.53687921660101        0.58363566352360       -1.23572430344076
H           -5.54718163895623       -0.12442549657697        1.58857521913779
H           -6.63322401680856       -2.33578508514410        1.71315797377281
H           -2.46063090703936       -1.72081921163291       -0.90902570404481
H           -3.25983011388371       -5.26396312876352       -2.85448589596578
H           -4.48171301015061       -3.98980035197386       -2.78211610308838
H           -2.76383811792319       -3.57301208512581       -2.73266833464626
H           -2.16929387988469       -4.92482677090767        0.72327983008236
H           -1.87006816704431       -5.79895347717377       -0.78229223720441
H           -1.39291191384734       -4.10423867148897       -0.63548331418749
H           -4.04355535978735       -7.22869888962873       -1.28292408545035
H           -5.96612165833024       -8.42560485808306       -0.31149435606923
H           -7.59824106360405       -7.24637665805800        1.09022287042596
H           -7.34418221199045       -4.83232272540633        1.55086308544880
H           -2.09463197915702        2.18055504626492       -1.26386930879915
H            0.34163393329233        2.40755215800565       -1.53952417738650
H            4.89169876393000        1.06621608875780        2.11433160048474
H            8.68067335598731       -0.40371974997661        2.24955651932396
H           10.04223933734062        0.46882528401485        4.10690148700551
H            9.64342251224412        2.74743568669392        4.96821301147897
H            7.87045143617366        4.14391793528221        3.96833289709797
H            6.51214859427082        3.26721297294846        2.10719150116241

          :  Hamiltonian                  GFN2-xTB          :
         :: gradient norm              0.000062719654 Eh/a0 ::
         :: HOMO-LUMO gap              1.418876043030 eV    ::
         :: SCC energy              -162.643875610095 Eh    ::
         :: -> dispersion             -0.146565478767 Eh    ::
         :: -> Gsolv                  -0.072471249394 Eh    ::
         :: repulsion energy           2.889940370272 Eh    ::

    * Orbital Energies and Occupations

         #    Occupation            Energy/Eh            Energy/eV
      -------------------------------------------------------------
         1        2.0000           -0.7167447             -19.5036
       ...           ...                  ...                  ...
       136        2.0000           -0.4096234             -11.1464
       137        2.0000           -0.4092456             -11.1361
       138        2.0000           -0.4076140             -11.0917
       139        2.0000           -0.4056578             -11.0385
       140        2.0000           -0.4041029             -10.9962
       141        2.0000           -0.4037366             -10.9862
       142        2.0000           -0.4020386             -10.9400
       143        2.0000           -0.3994051             -10.8684
       144        2.0000           -0.3967797             -10.7969
       145        2.0000           -0.3892084             -10.5909
       146        2.0000           -0.3882200             -10.5640
       147        2.0000           -0.3872757             -10.5383
       148        2.0000           -0.3619593              -9.8494 (HOMO)
       149                         -0.3098166              -8.4305 (LUMO)
       150                         -0.2579930              -7.0203
       151                         -0.2554688              -6.9517
       152                         -0.2503378              -6.8120
       153                         -0.2435424              -6.6271
       154                         -0.2421144              -6.5883
       155                         -0.2355163              -6.4087
       156                         -0.2330078              -6.3405
       157                         -0.2292383              -6.2379
       158                         -0.2271166              -6.1802
       159                         -0.2237077              -6.0874
       ...                                ...                  ...
       290                          0.7266397              19.7729
      -------------------------------------------------------------
                  HL-Gap            0.0521427 Eh            1.4189 eV

     #   Z          covCN         q      C6AA      α(0)
     1   6 C        3.757    -0.108    22.621     6.781
     2   6 C        2.969     0.011    27.769     8.644
     3   6 C        2.981     0.003    27.960     8.674
     4   6 C        2.979     0.014    27.704     8.634
     5   6 C        2.924    -0.032    28.809     8.802
     6   6 C        2.919    -0.031    28.762     8.795
     7   6 C        2.920    -0.032    28.799     8.800
     8   6 C        2.918    -0.030    28.751     8.793
     9   6 C        2.925    -0.033    28.829     8.805
    10   6 C        2.928    -0.040    28.987     8.829
    11   6 C        2.931     0.081    26.200     8.395
    12   7 N        2.747    -0.123    23.669     7.226
    13   6 C        2.776     0.276    22.338     7.741
    14   8 O        0.859    -0.454    22.791     6.401
    15   6 C        2.978    -0.032    28.786     8.801
    16   6 C        2.922    -0.011    28.288     8.722
    17   6 C        2.914    -0.026    28.664     8.779
    18   6 C        2.918    -0.022    28.547     8.762
    19   6 C        2.980     0.003    27.941     8.671
    20   6 C        2.919     0.072    26.396     8.425
    21   7 N        2.752    -0.047    22.150     6.990
    22   6 C        2.929     0.058    26.702     8.474
    23   6 C        2.920    -0.044    29.099     8.846
    24   6 C        2.924    -0.032    28.803     8.801
    25   6 C        2.976     0.008    27.825     8.653
    26   6 C        2.976     0.010    27.794     8.648
    27   6 C        2.925    -0.035    28.863     8.810
    28   6 C        2.918    -0.030    28.754     8.793
    29   6 C        2.920    -0.031    28.784     8.798
    30   6 C        2.918    -0.030    28.753     8.793
    31   6 C        2.925    -0.035    28.861     8.810
    32   6 C        2.924    -0.032    28.805     8.801
    33   6 C        2.919    -0.043    29.074     8.842
    34   6 C        2.927     0.057    26.724     8.478
    35   6 C        2.923    -0.048    29.203     8.862
    36   6 C        2.914    -0.033    28.833     8.805
    37   6 C        3.036    -0.003    28.069     8.690
    38   6 C        3.055     0.002    27.917     8.665
    39   6 C        2.917    -0.049    29.217     8.864
    40   6 C        3.935     0.019    20.183     6.384
    41   6 C        3.758    -0.100    22.451     6.755
    42   6 C        3.758    -0.099    22.437     6.753
    43   6 C        3.055    -0.001    28.005     8.679
    44   6 C        2.915    -0.034    28.846     8.807
    45   6 C        2.922    -0.033    28.833     8.806
    46   6 C        2.921    -0.034    28.847     8.808
    47   6 C        2.914    -0.035    28.880     8.812
    48   6 C        3.036    -0.001    28.012     8.681
    49   6 C        2.918    -0.050    29.248     8.869
    50   6 C        2.919    -0.013    28.328     8.728
    51   6 C        2.976    -0.045    29.118     8.851
    52   6 C        2.993     0.009    27.815     8.651
    53   6 C        2.776     0.274    22.362     7.745
    54   8 O        0.859    -0.460    22.917     6.418
    55   6 C        2.927    -0.040    28.984     8.829
    56   6 C        2.981     0.003    27.957     8.673
    57   6 C        2.979     0.014    27.690     8.632
    58   6 C        2.924    -0.031    28.783     8.798
    59   6 C        2.919    -0.030    28.752     8.793
    60   6 C        2.920    -0.032    28.798     8.800
    61   6 C        2.918    -0.030    28.756     8.794
    62   6 C        2.925    -0.034    28.844     8.807
    63   1 H        0.925     0.050     2.314     2.379
    64   1 H        0.925     0.050     2.322     2.383
    65   1 H        0.925     0.057     2.234     2.337
    66   1 H        0.926     0.036     2.498     2.472
    67   1 H        0.926     0.035     2.515     2.480
    68   1 H        0.926     0.034     2.536     2.490
    69   1 H        0.926     0.032     2.553     2.499
    70   1 H        0.926     0.030     2.589     2.516
    71   1 H        0.926     0.033     2.545     2.495
    72   1 H        0.926     0.061     2.191     2.315
    73   1 H        0.926     0.057     2.230     2.335
    74   1 H        0.926     0.060     2.197     2.318
    75   1 H        0.926     0.037     2.486     2.466
    76   1 H        0.926     0.042     2.417     2.431
    77   1 H        0.926     0.035     2.519     2.482
    78   1 H        0.926     0.032     2.558     2.501
    79   1 H        0.926     0.031     2.572     2.508
    80   1 H        0.926     0.031     2.568     2.506
    81   1 H        0.926     0.033     2.538     2.491
    82   1 H        0.926     0.044     2.402     2.423
    83   1 H        0.926     0.042     2.429     2.437
    84   1 H        0.926     0.040     2.447     2.446
    85   1 H        0.926     0.041     2.432     2.439
    86   1 H        0.926     0.032     2.563     2.503
    87   1 H        0.925     0.045     2.380     2.412
    88   1 H        0.925     0.037     2.485     2.465
    89   1 H        0.925     0.043     2.410     2.428
    90   1 H        0.925     0.036     2.498     2.472
    91   1 H        0.925     0.046     2.374     2.409
    92   1 H        0.925     0.040     2.451     2.448
    93   1 H        0.926     0.031     2.572     2.508
    94   1 H        0.926     0.030     2.582     2.513
    95   1 H        0.926     0.030     2.586     2.515
    96   1 H        0.926     0.032     2.555     2.499
    97   1 H        0.926     0.053     2.282     2.362
    98   1 H        0.926     0.059     2.211     2.325
    99   1 H        0.926     0.033     2.548     2.496
   100   1 H        0.926     0.036     2.507     2.476
   101   1 H        0.926     0.035     2.513     2.479
   102   1 H        0.926     0.034     2.534     2.489
   103   1 H        0.926     0.033     2.549     2.497
   104   1 H        0.926     0.028     2.619     2.531

molecular dipole:
                 x           y           z       tot (Debye)
 q only:       -2.916      -0.349      -0.039
   full:       -3.091      -0.318      -0.003       7.897

 projected vibrational frequencies (cm⁻¹)
eigval :       -0.00    -0.00    -0.00     0.00     0.00     0.00
eigval :        5.50     6.91    13.02    15.11    18.22    20.97
eigval :       25.61    28.75    35.13    36.44    39.76    45.38
eigval :       60.82    61.84    63.98    72.75    75.32    81.52
eigval :       91.16   100.32   101.99   110.29   124.65   127.58
eigval :      130.43   141.54   150.59   156.68   158.80   169.97
eigval :      180.37   184.69   192.33   194.49   225.26   227.17
eigval :      239.62   243.25   256.73   259.43   267.41   270.00
eigval :      279.79   284.42   290.04   303.07   309.90   320.35
eigval :      325.63   326.69   334.30   352.56   367.46   368.13
eigval :      369.42   376.26   382.60   384.18   388.82   392.52
eigval :      402.72   415.20   423.37   428.44   440.39   452.22
eigval :      465.56   467.22   479.54   485.07   493.72   503.15
eigval :      518.53   526.76   538.74   541.45   546.92   560.02
eigval :      564.62   567.09   578.50   579.45   582.59   588.41
eigval :      589.22   590.99   598.78   605.45   609.15   617.84
eigval :      620.69   626.41   637.65   663.60   665.15   676.46
eigval :      681.61   684.28   685.25   692.16   693.75   699.98
eigval :      704.65   721.21   724.10   740.24   745.57   753.06
eigval :      754.91   765.60   769.20   775.94   778.78   793.12
eigval :      804.50   814.19   819.75   828.58   830.71   842.26
eigval :      847.15   864.78   869.62   876.54   876.77   878.84
eigval :      880.17   883.31   887.92   899.39   902.26   905.14
eigval :      906.03   908.05   909.72   913.57   919.14   920.94
eigval :      925.23   925.73   926.97   928.78   930.09   930.51
eigval :      931.44   931.58   931.96   942.05   950.60   963.93
eigval :      965.90   977.73   979.14   985.30   996.84  1012.59
eigval :     1016.35  1024.87  1026.41  1044.54  1060.65  1068.21
eigval :     1074.26  1076.62  1082.20  1083.41  1086.16  1104.94
eigval :     1111.46  1116.93  1118.04  1119.92  1134.72  1140.03
eigval :     1145.02  1148.76  1154.79  1172.33  1176.89  1179.07
eigval :     1179.42  1179.98  1180.97  1185.25  1186.26  1193.04
eigval :     1195.30  1198.71  1200.66  1202.75  1213.32  1219.30
eigval :     1223.81  1225.01  1229.49  1239.84  1242.72  1254.50
eigval :     1266.97  1270.15  1270.46  1278.79  1279.09  1279.32
eigval :     1284.78  1293.66  1307.42  1310.07  1313.15  1314.06
eigval :     1315.26  1316.21  1317.23  1328.37  1331.86  1349.56
eigval :     1362.72  1376.13  1390.35  1392.76  1401.47  1403.38
eigval :     1409.08  1412.49  1418.09  1424.46  1430.07  1430.91
eigval :     1431.74  1433.34  1440.69  1453.98  1454.57  1460.28
eigval :     1470.48  1470.99  1479.59  1483.20  1483.28  1485.70
eigval :     1490.75  1494.36  1495.28  1499.03  1510.89  1539.85
eigval :     1547.11  1558.74  1573.90  1575.36  1576.83  1580.47
eigval :     1581.66  1583.37  1584.33  1587.71  1591.73  1596.86
eigval :     1598.66  1599.39  1600.25  1606.56  1641.37  1662.05
eigval :     3006.40  3026.34  3029.13  3030.80  3032.21  3037.59
eigval :     3037.83  3040.35  3040.94  3065.66  3066.87  3067.03
eigval :     3067.52  3069.18  3069.57  3070.66  3071.46  3075.37
eigval :     3076.43  3077.23  3078.52  3078.99  3079.62  3080.92
eigval :     3081.75  3081.79  3082.80  3083.16  3083.65  3083.93
eigval :     3087.11  3089.01  3090.48  3090.78  3090.85  3091.30
eigval :     3091.35  3094.08  3095.01  3099.13  3100.70  3114.57

   temp. (K)  partition function   enthalpy   heat capacity  entropy
                                   cal/mol     cal/K/mol   cal/K/mol   J/K/mol
 298.15  VIB  0.287E+26            30789.809    189.291    194.333
         ROT  0.250E+09              888.752      2.981     41.405
         INT  0.716E+34            31678.562    192.272    235.739
         TR   0.218E+29             1481.254      4.968     45.892
         TOT                       33159.8157   197.2398   281.6303  1178.3412

       T/K    H(0)-H(T)+PV         H(T)/Eh          T*S/Eh         G(T)/Eh
   ------------------------------------------------------------------------
    298.15    0.528435E-01    0.861219E+00    0.133812E+00    0.727407E+00
   ------------------------------------------------------------------------

         :::::::::::::::::::::::::::::::::::::::::::::::::::::
         ::                  THERMODYNAMIC                  ::
         :::::::::::::::::::::::::::::::::::::::::::::::::::::
         :: total free energy        -159.026527944836 Eh   ::
         ::.................................................::
         :: total energy             -159.753935242766 Eh   ::
         :: zero point energy           0.808375414340 Eh   ::
         :: G(RRHO) w/o ZPVE           -0.080968116409 Eh   ::
         :: G(RRHO) contrib.            0.727407297930 Eh   ::
         :::::::::::::::::::::::::::::::::::::::::::::::::::::

           -------------------------------------------------
          | TOTAL ENERGY             -159.753935242766 Eh   |
          | TOTAL ENTHALPY           -158.892716298459 Eh   |
          | TOTAL FREE ENERGY        -159.026527944836 Eh   |
          | GRADIENT NORM               0.000062736971 Eh/α |
          | HOMO-LUMO GAP               1.418876002337 eV   |
           -------------------------------------------------

 * finished run on 2025/09/05 at 05:02:45.167
