   * xtb version 6.7.1 (edcfbbe) compiled by 'albert@albert-system' on 2024-07-22

   ID    Z sym.   atoms
    1    6 C      1-11, 13, 15-20, 22-53, 55-62
    2    7 N      12, 21
    3    8 O      14, 54
    4    1 H      63-104

          program call               : xtb data2507/toluene/NAI–BiFA/NAI–BiFA.xyz --gfn 2 --gbsa toluene --ohess vtight --parallel 40 --molden --ceasefiles --namespace data2507/toluene/NAI–BiFA/NAI–BiFA_toluene_S0_preOpt
      * Solvation model:               GBSA
        Solvent                        toluene
        Solvent mass                       9.2140E+01 g/mol
          :  Hamiltonian                  GFN2-xTB          :
 * total energy  :  -159.7187369 Eh     change       -0.2169202E-08 Eh
 * total energy  :  -159.7354319 Eh     change       -0.1669504E-01 Eh
 * total energy  :  -159.7409862 Eh     change       -0.5554270E-02 Eh
 * total energy  :  -159.7435025 Eh     change       -0.2516302E-02 Eh
 * total energy  :  -159.7457068 Eh     change       -0.2204320E-02 Eh
 * total energy  :  -159.7469711 Eh     change       -0.1264295E-02 Eh
 * total energy  :  -159.7477003 Eh     change       -0.7291848E-03 Eh
 * total energy  :  -159.7482881 Eh     change       -0.5878419E-03 Eh
 * total energy  :  -159.7488691 Eh     change       -0.5810088E-03 Eh
 * total energy  :  -159.7494685 Eh     change       -0.5993166E-03 Eh
 * total energy  :  -159.7536019 Eh     change       -0.9667509E-06 Eh
 * total energy  :  -159.7536028 Eh     change       -0.8876584E-06 Eh
 * total energy  :  -159.7536036 Eh     change       -0.8024974E-06 Eh
 * total energy  :  -159.7536043 Eh     change       -0.6976026E-06 Eh
 * total energy  :  -159.7536049 Eh     change       -0.6117023E-06 Eh
 * total energy  :  -159.7536054 Eh     change       -0.5536004E-06 Eh
 * total energy  :  -159.7536060 Eh     change       -0.5818034E-06 Eh
 * total energy  :  -159.7536067 Eh     change       -0.7209975E-06 Eh
 * total energy  :  -159.7536067 Eh     change       -0.3811181E-08 Eh
   *** GEOMETRY OPTIMIZATION CONVERGED AFTER 94 ITERATIONS ***

 final structure:
================
104
 xtb: 6.7.1 (edcfbbe)
C            9.21734194409166       -0.37961508485798       -0.64087880214547
C            7.74092286487223       -0.31321159683282       -0.37751275521479
C            7.24622554687363       -0.35876008253047        0.92971075470668
C            8.13244316638520       -0.53330459160300        2.09968333797224
C            8.12930627291799        0.42287571098584        3.11152602514688
C            8.94030041496023        0.27172533141990        4.22211180598341
C            9.75554368826846       -0.84184386254876        4.34184256337986
C            9.75292232078043       -1.80567355726367        3.34700353449591
C            8.94839816160848       -1.65262368000840        2.23193119593170
C            5.88344861579320       -0.21954648332862        1.16811899200348
C            5.00932339447402       -0.02298941775166        0.11552123260395
N            3.60752342852183        0.14541497243002        0.36772283773659
C            3.22728237349533        1.27291366351883        1.07558629702412
O            4.05980643094022        2.08438238754015        1.44830488135794
C            1.79079156161138        1.42864023498845        1.33069255789531
C            1.35139371274841        2.49779918049309        2.08853656797849
C           -0.00485896127959        2.64411716522703        2.36570044064820
C           -0.92147767582318        1.76570285004112        1.83925068399139
C           -0.52259568143043        0.69529661861772        1.01767691173155
C           -1.44155597016433       -0.24250975228957        0.44120972762924
N           -2.80554678103539       -0.05666364923880        0.52098108192600
C           -3.39406281047487        1.20376445100789        0.31633524130056
C           -2.84503351360111        2.10539313463834       -0.59427742757531
C           -3.43668500720638        3.33525112470567       -0.79608638827366
C           -4.59250401307411        3.69986300421179       -0.10636312465657
C           -5.21710205589477        5.01390180728080       -0.31918874936250
C           -5.72187499570420        5.74143385630747        0.75718676425728
C           -6.30813571235653        6.97787200644649        0.55900107193576
C           -6.40475941662895        7.50694085981373       -0.71767015554942
C           -5.90819997789631        6.79195233158223       -1.79524971475129
C           -5.31639239200574        5.55790339621420       -1.59839884312189
C           -5.14255188042220        2.78553074870290        0.79132364810957
C           -4.55623732849909        1.55454784990662        1.00202922799593
C           -3.65614449805342       -1.17742243631900        0.61630223778470
C           -3.35544274069602       -2.19259872834504        1.52488289679772
C           -4.18211259225909       -3.29337132349869        1.65418232710821
C           -5.32438264015423       -3.37094410989088        0.87207414431088
C           -5.63002017098536       -2.34807973222438       -0.03928151615860
C           -4.80363013843703       -1.25727069540324       -0.17543586040434
C           -6.91676846530296       -2.64871669633620       -0.77364699890289
C           -7.97226798010586       -1.57365108152403       -0.49098501189633
C           -6.67645138174198       -2.77903860606252       -2.28173074458549
C           -7.30707225698364       -3.97722454640641       -0.16366236851278
C           -8.40580383556198       -4.76420710992832       -0.43490810922287
C           -8.56118848302519       -5.95984884520350        0.25478507833824
C           -7.62934396964778       -6.36075979776319        1.20029746368268
C           -6.52158733082482       -5.57656402182002        1.47961955481193
C           -6.36463454559212       -4.38245670686024        0.79413729845707
C           -0.93991456345248       -1.37170803567766       -0.20265645145993
C            0.41796549945465       -1.56556423634497       -0.36748905866864
C            1.33291242201576       -0.63466716836660        0.10516612508340
C            0.86878008948898        0.49670511471751        0.80755478571270
C            2.75691714876148       -0.84845208487581       -0.11151051637906
O            3.21596172084228       -1.83175626439881       -0.67219931920455
C            5.48440238336854        0.01991900825477       -1.18242080938279
C            6.84179808303541       -0.13928945335005       -1.43438181416649
C            7.28962067468808       -0.09737999339311       -2.84289113951155
C            7.03536324983285        1.02897773959605       -3.61948591903491
C            7.42802763837658        1.07082359432459       -4.94555820870625
C            8.06870241231776       -0.01690164381882       -5.51549084345567
C            8.31363833580663       -1.14724577972951       -4.75320164189928
C            7.92939074041338       -1.18727542044770       -3.42490073879941
H            9.53777040134478       -1.40767148472333       -0.80352199018170
H            9.46932386026389        0.19259780972568       -1.53082817032112
H            9.77268045989873        0.01448351512995        0.20692619469828
H            7.49370205414062        1.29192397579909        3.01369468861860
H            8.93473079542103        1.02489869156105        4.99704897520720
H           10.38756284483835       -0.95959688902349        5.21004749172947
H           10.37962818856660       -2.68094685202062        3.44034523214948
H            8.93673939801030       -2.41219510369274        1.46455027003331
H            5.50839753943339       -0.25925752575730        2.18064731994043
H            2.08162731637373        3.19510698526377        2.47140582728042
H           -0.33619959592137        3.45379255123851        2.99713089809766
H           -1.96517897296407        1.89269522203335        2.07762695729147
H           -1.95213819954216        1.83636660024555       -1.13964868234287
H           -2.98888487017473        4.02825875567624       -1.49247674968967
H           -5.63442526017135        5.34345791192564        1.75782429173140
H           -6.68971101464217        7.53329317492491        1.40387245024494
H           -6.86498999174100        8.47200533895675       -0.87218639760852
H           -5.98424035923180        7.19779267732143       -2.79400907744545
H           -4.94626170423317        4.99917861322341       -2.44589250066507
H           -6.04875184138451        3.03750732300446        1.32149117129170
H           -4.99218024128350        0.85722760443211        1.70219608987072
H           -2.46526552614313       -2.10812379762045        2.13128739989611
H           -3.94044614792102       -4.07175717057716        2.36181808247082
H           -5.02394886949595       -0.47043808396631       -0.88109236883628
H           -8.14339378007322       -1.48545947412909        0.58007167395589
H           -7.64035219986859       -0.61053871686934       -0.87156305567817
H           -8.91196670210845       -1.83386914797952       -0.97195115038443
H           -5.92664949406896       -3.54259906396024       -2.47971070563405
H           -7.59772273731774       -3.05881738583714       -2.78677036004327
H           -6.32810898708433       -1.83379839595453       -2.69098713094174
H           -9.13852710217171       -4.46378979889419       -1.16974463406328
H           -9.41840217304210       -6.58568771072324        0.05185695116241
H           -7.76949657111995       -7.29552981356652        1.72424621137823
H           -5.79720681081137       -5.89166229452472        2.21629695630717
H           -1.63188050691659       -2.09206954647221       -0.61167232578484
H            0.79132545460358       -2.43096631646763       -0.89437802928183
H            4.79762984214397        0.16235188312852       -2.00436239292943
H            6.53788513212295        1.87793678877768       -3.17145344891513
H            7.23147757613186        1.95431986359497       -5.53604111921999
H            8.37287225194848        0.01529753452651       -6.55157008926743
H            8.80495880273805       -2.00191710676616       -5.19556659655547
H            8.10789821100755       -2.07430900767918       -2.83548542236745

          :  Hamiltonian                  GFN2-xTB          :
         :: gradient norm              0.000050323146 Eh/a0 ::
         :: HOMO-LUMO gap              1.424417312691 eV    ::
         :: SCC energy              -162.643287699641 Eh    ::
         :: -> dispersion             -0.146227593569 Eh    ::
         :: -> Gsolv                  -0.072893788525 Eh    ::
         :: repulsion energy           2.889680967073 Eh    ::

    * Orbital Energies and Occupations

         #    Occupation            Energy/Eh            Energy/eV
      -------------------------------------------------------------
         1        2.0000           -0.7167562             -19.5039
       ...           ...                  ...                  ...
       136        2.0000           -0.4098184             -11.1517
       137        2.0000           -0.4083933             -11.1129
       138        2.0000           -0.4074084             -11.0861
       139        2.0000           -0.4056998             -11.0397
       140        2.0000           -0.4040221             -10.9940
       141        2.0000           -0.4034387             -10.9781
       142        2.0000           -0.4017671             -10.9326
       143        2.0000           -0.3992592             -10.8644
       144        2.0000           -0.3958030             -10.7703
       145        2.0000           -0.3887898             -10.5795
       146        2.0000           -0.3875888             -10.5468
       147        2.0000           -0.3872783             -10.5384
       148        2.0000           -0.3619801              -9.8500 (HOMO)
       149                         -0.3096338              -8.4256 (LUMO)
       150                         -0.2576865              -7.0120
       151                         -0.2558869              -6.9630
       152                         -0.2501297              -6.8064
       153                         -0.2436586              -6.6303
       154                         -0.2422948              -6.5932
       155                         -0.2353524              -6.4043
       156                         -0.2332277              -6.3464
       157                         -0.2296221              -6.2483
       158                         -0.2265120              -6.1637
       159                         -0.2237520              -6.0886
       ...                                ...                  ...
       290                          0.7263598              19.7653
      -------------------------------------------------------------
                  HL-Gap            0.0523464 Eh            1.4244 eV

     #   Z          covCN         q      C6AA      α(0)
     1   6 C        3.757    -0.108    22.621     6.781
     2   6 C        2.969     0.011    27.773     8.644
     3   6 C        2.981     0.002    27.964     8.674
     4   6 C        2.979     0.014    27.706     8.634
     5   6 C        2.925    -0.033    28.829     8.805
     6   6 C        2.918    -0.030    28.752     8.793
     7   6 C        2.920    -0.032    28.799     8.800
     8   6 C        2.919    -0.031    28.765     8.795
     9   6 C        2.924    -0.033    28.811     8.802
    10   6 C        2.928    -0.039    28.981     8.828
    11   6 C        2.931     0.080    26.211     8.396
    12   7 N        2.747    -0.123    23.665     7.225
    13   6 C        2.777     0.276    22.338     7.741
    14   8 O        0.859    -0.455    22.804     6.402
    15   6 C        2.978    -0.032    28.788     8.801
    16   6 C        2.922    -0.011    28.293     8.723
    17   6 C        2.914    -0.027    28.677     8.781
    18   6 C        2.918    -0.022    28.560     8.764
    19   6 C        2.980     0.003    27.952     8.672
    20   6 C        2.919     0.072    26.400     8.426
    21   7 N        2.752    -0.047    22.152     6.990
    22   6 C        2.925     0.060    26.661     8.468
    23   6 C        2.919    -0.045    29.124     8.850
    24   6 C        2.924    -0.032    28.794     8.800
    25   6 C        2.975     0.008    27.838     8.655
    26   6 C        2.976     0.010    27.793     8.648
    27   6 C        2.925    -0.035    28.866     8.811
    28   6 C        2.918    -0.030    28.754     8.793
    29   6 C        2.920    -0.032    28.786     8.798
    30   6 C        2.918    -0.030    28.755     8.793
    31   6 C        2.925    -0.035    28.863     8.810
    32   6 C        2.924    -0.032    28.808     8.802
    33   6 C        2.920    -0.045    29.109     8.848
    34   6 C        2.931     0.055    26.761     8.484
    35   6 C        2.923    -0.048    29.180     8.858
    36   6 C        2.914    -0.033    28.829     8.805
    37   6 C        3.035    -0.003    28.058     8.688
    38   6 C        3.055     0.003    27.913     8.664
    39   6 C        2.917    -0.047    29.176     8.858
    40   6 C        3.935     0.020    20.180     6.384
    41   6 C        3.758    -0.100    22.465     6.757
    42   6 C        3.758    -0.100    22.464     6.757
    43   6 C        3.055    -0.001    27.997     8.678
    44   6 C        2.915    -0.034    28.848     8.807
    45   6 C        2.921    -0.033    28.834     8.806
    46   6 C        2.921    -0.034    28.848     8.808
    47   6 C        2.914    -0.035    28.878     8.812
    48   6 C        3.036    -0.001    28.019     8.682
    49   6 C        2.918    -0.050    29.243     8.868
    50   6 C        2.919    -0.013    28.327     8.728
    51   6 C        2.976    -0.045    29.117     8.851
    52   6 C        2.993     0.009    27.816     8.652
    53   6 C        2.776     0.274    22.364     7.745
    54   8 O        0.859    -0.459    22.891     6.415
    55   6 C        2.928    -0.040    28.988     8.830
    56   6 C        2.981     0.003    27.962     8.674
    57   6 C        2.979     0.014    27.690     8.632
    58   6 C        2.925    -0.034    28.846     8.808
    59   6 C        2.918    -0.030    28.757     8.794
    60   6 C        2.920    -0.032    28.798     8.800
    61   6 C        2.919    -0.030    28.752     8.793
    62   6 C        2.924    -0.031    28.783     8.798
    63   1 H        0.925     0.057     2.235     2.338
    64   1 H        0.925     0.050     2.322     2.383
    65   1 H        0.925     0.050     2.315     2.379
    66   1 H        0.926     0.030     2.585     2.514
    67   1 H        0.926     0.032     2.555     2.500
    68   1 H        0.926     0.033     2.537     2.491
    69   1 H        0.926     0.035     2.516     2.481
    70   1 H        0.926     0.036     2.497     2.471
    71   1 H        0.926     0.033     2.540     2.492
    72   1 H        0.926     0.061     2.192     2.315
    73   1 H        0.926     0.058     2.225     2.332
    74   1 H        0.926     0.060     2.199     2.319
    75   1 H        0.926     0.032     2.559     2.501
    76   1 H        0.926     0.041     2.439     2.442
    77   1 H        0.926     0.035     2.517     2.481
    78   1 H        0.926     0.032     2.561     2.502
    79   1 H        0.926     0.031     2.576     2.510
    80   1 H        0.926     0.031     2.571     2.507
    81   1 H        0.926     0.033     2.541     2.493
    82   1 H        0.926     0.045     2.389     2.417
    83   1 H        0.926     0.043     2.413     2.429
    84   1 H        0.926     0.035     2.514     2.480
    85   1 H        0.926     0.039     2.459     2.452
    86   1 H        0.926     0.041     2.438     2.442
    87   1 H        0.925     0.037     2.493     2.469
    88   1 H        0.925     0.046     2.372     2.408
    89   1 H        0.925     0.046     2.373     2.409
    90   1 H        0.925     0.036     2.508     2.477
    91   1 H        0.925     0.046     2.372     2.409
    92   1 H        0.925     0.045     2.380     2.412
    93   1 H        0.926     0.032     2.555     2.500
    94   1 H        0.926     0.030     2.581     2.512
    95   1 H        0.926     0.029     2.597     2.520
    96   1 H        0.926     0.031     2.578     2.511
    97   1 H        0.926     0.054     2.276     2.359
    98   1 H        0.926     0.059     2.211     2.325
    99   1 H        0.926     0.033     2.543     2.494
   100   1 H        0.926     0.028     2.620     2.531
   101   1 H        0.926     0.033     2.549     2.496
   102   1 H        0.926     0.034     2.533     2.489
   103   1 H        0.926     0.035     2.514     2.480
   104   1 H        0.926     0.036     2.506     2.476

molecular dipole:
                 x           y           z       tot (Debye)
 q only:       -3.498       0.315      -0.078
   full:       -3.618       0.321      -0.028       9.232

 projected vibrational frequencies (cm⁻¹)
eigval :       -0.00    -0.00    -0.00     0.00     0.00     0.00
eigval :        6.77     8.80    12.02    15.50    18.62    24.00
eigval :       28.82    30.88    36.66    38.11    39.55    46.08
eigval :       59.97    62.27    67.02    70.76    76.90    87.71
eigval :       89.57   101.44   102.25   108.49   118.90   126.95
eigval :      131.44   141.17   150.75   157.60   167.42   172.26
eigval :      182.37   183.83   200.04   210.52   212.88   222.39
eigval :      226.82   245.77   255.32   258.18   265.04   269.36
eigval :      282.21   288.76   292.29   299.82   311.88   318.68
eigval :      324.30   326.45   333.80   359.20   368.93   369.53
eigval :      371.49   377.26   378.28   382.45   389.87   392.68
eigval :      401.85   422.77   425.21   429.84   437.69   446.85
eigval :      460.83   467.86   478.66   488.21   492.56   503.73
eigval :      517.91   527.79   540.39   541.44   545.83   564.46
eigval :      565.03   568.85   577.81   578.81   580.94   587.95
eigval :      590.26   592.01   597.54   601.67   606.79   614.29
eigval :      618.62   632.98   637.75   664.59   666.32   676.57
eigval :      681.89   683.15   685.86   689.66   693.64   697.23
eigval :      704.30   724.72   725.74   740.14   744.62   753.66
eigval :      754.47   766.01   768.73   776.31   779.82   792.55
eigval :      803.38   811.98   819.97   822.93   828.16   844.49
eigval :      847.64   868.16   871.86   876.78   877.41   878.15
eigval :      879.96   880.06   886.00   900.38   904.23   906.27
eigval :      907.46   908.09   910.19   911.16   916.83   920.49
eigval :      925.08   925.55   925.77   929.02   930.69   931.81
eigval :      932.48   933.52   933.90   936.13   951.30   965.11
eigval :      966.14   973.77   979.17   985.60   997.02  1011.32
eigval :     1013.72  1025.01  1033.09  1044.89  1060.57  1067.82
eigval :     1073.98  1076.92  1082.29  1083.95  1086.13  1105.24
eigval :     1110.59  1116.71  1120.05  1120.14  1134.12  1138.81
eigval :     1143.95  1150.16  1154.21  1172.40  1176.01  1177.62
eigval :     1179.97  1181.73  1181.84  1185.23  1186.71  1191.33
eigval :     1195.92  1199.46  1199.92  1202.63  1213.24  1218.65
eigval :     1223.87  1224.31  1227.77  1240.47  1242.42  1248.43
eigval :     1267.12  1270.11  1273.06  1278.17  1279.43  1280.48
eigval :     1285.72  1293.60  1309.47  1310.05  1313.28  1313.39
eigval :     1314.23  1314.48  1316.78  1328.60  1333.38  1349.10
eigval :     1366.10  1375.32  1390.02  1392.21  1402.52  1405.29
eigval :     1408.58  1413.28  1417.65  1424.07  1429.03  1430.87
eigval :     1432.21  1433.28  1440.98  1453.70  1454.68  1459.93
eigval :     1470.98  1473.66  1480.10  1482.47  1483.83  1485.19
eigval :     1491.30  1493.06  1494.54  1497.84  1511.83  1540.28
eigval :     1546.87  1557.94  1574.19  1575.11  1576.39  1580.96
eigval :     1581.75  1583.24  1584.35  1588.61  1591.83  1596.56
eigval :     1598.37  1599.00  1600.23  1606.33  1641.61  1661.87
eigval :     3007.23  3026.63  3029.94  3031.46  3033.73  3037.69
eigval :     3038.09  3040.92  3041.20  3064.98  3066.52  3067.15
eigval :     3067.39  3068.90  3069.13  3070.63  3071.46  3074.96
eigval :     3076.50  3077.07  3078.12  3078.23  3079.35  3079.60
eigval :     3080.68  3081.92  3082.34  3083.06  3084.33  3086.39
eigval :     3088.41  3088.56  3090.48  3090.88  3091.08  3091.16
eigval :     3091.61  3092.64  3094.40  3099.47  3101.44  3115.01

   temp. (K)  partition function   enthalpy   heat capacity  entropy
                                   cal/mol     cal/K/mol   cal/K/mol   J/K/mol
 298.15  VIB  0.117E+26            30752.974    189.482    193.532
         ROT  0.257E+09              888.752      2.981     41.460
         INT  0.300E+34            31641.726    192.463    234.993
         TR   0.218E+29             1481.254      4.968     45.892
         TOT                       33122.9800   197.4310   280.8845  1175.2206

       T/K    H(0)-H(T)+PV         H(T)/Eh          T*S/Eh         G(T)/Eh
   ------------------------------------------------------------------------
    298.15    0.527848E-01    0.861223E+00    0.133457E+00    0.727765E+00
   ------------------------------------------------------------------------

         :::::::::::::::::::::::::::::::::::::::::::::::::::::
         ::                  THERMODYNAMIC                  ::
         :::::::::::::::::::::::::::::::::::::::::::::::::::::
         :: total free energy        -159.025841458012 Eh   ::
         ::.................................................::
         :: total energy             -159.753606729815 Eh   ::
         :: zero point energy           0.808437712491 Eh   ::
         :: G(RRHO) w/o ZPVE           -0.080672440688 Eh   ::
         :: G(RRHO) contrib.            0.727765271803 Eh   ::
         :::::::::::::::::::::::::::::::::::::::::::::::::::::

           -------------------------------------------------
          | TOTAL ENERGY             -159.753606729815 Eh   |
          | TOTAL ENTHALPY           -158.892384188847 Eh   |
          | TOTAL FREE ENERGY        -159.025841458012 Eh   |
          | GRADIENT NORM               0.000050322697 Eh/α |
          | HOMO-LUMO GAP               1.424417403540 eV   |
           -------------------------------------------------

 * finished run on 2025/09/05 at 04:49:14.666
