   * xtb version 6.7.1 (edcfbbe) compiled by 'albert@albert-system' on 2024-07-22

   ID    Z sym.   atoms
    1    6 C      1-11, 13, 15-20, 22-53, 55-62
    2    7 N      12, 21
    3    8 O      14, 54
    4    1 H      63-104

          program call               : xtb data2507/toluene/NAI–BiFA/NAI–BiFA_toluene_S0_finalOpt.xtbopt.xyz --gfn 2 --uhf 2 --gbsa toluene --ohess vtight --parallel 40 --molden --ceasefiles --namespace data2507/toluene/NAI–BiFA/NAI–BiFA_toluene_T1_preOpt
      * Solvation model:               GBSA
        Solvent                        toluene
        Solvent mass                       9.2140E+01 g/mol
          :  Hamiltonian                  GFN2-xTB          :
 * total energy  :  -159.6889266 Eh     change       -0.7781779E-08 Eh
 * total energy  :  -159.6918847 Eh     change       -0.2958065E-02 Eh
 * total energy  :  -159.6926523 Eh     change       -0.7675651E-03 Eh
 * total energy  :  -159.6927889 Eh     change       -0.1366508E-03 Eh
 * total energy  :  -159.6929029 Eh     change       -0.1139957E-03 Eh
 * total energy  :  -159.6929693 Eh     change       -0.6644513E-04 Eh
 * total energy  :  -159.6930402 Eh     change       -0.7085789E-04 Eh
 * total energy  :  -159.6931035 Eh     change       -0.6332710E-04 Eh
 * total energy  :  -159.6931607 Eh     change       -0.5716933E-04 Eh
 * total energy  :  -159.6932177 Eh     change       -0.5695488E-04 Eh
 * total energy  :  -159.6938572 Eh     change       -0.4368399E-06 Eh
 * total energy  :  -159.6938576 Eh     change       -0.3841964E-06 Eh
 * total energy  :  -159.6938580 Eh     change       -0.3496740E-06 Eh
 * total energy  :  -159.6938583 Eh     change       -0.3693981E-06 Eh
 * total energy  :  -159.6938588 Eh     change       -0.4215776E-06 Eh
 * total energy  :  -159.6938592 Eh     change       -0.4535014E-06 Eh
 * total energy  :  -159.6938597 Eh     change       -0.4979444E-06 Eh
 * total energy  :  -159.6938603 Eh     change       -0.5828066E-06 Eh
 * total energy  :  -159.6938603 Eh     change       -0.2437758E-08 Eh
   *** GEOMETRY OPTIMIZATION CONVERGED AFTER 68 ITERATIONS ***

 final structure:
================
104
 xtb: 6.7.1 (edcfbbe)
C            8.59820054943175        0.70837946839922       -0.53039054557419
C            7.13126894047456        0.51076940526697       -0.27592050811161
C            6.30272557227433       -0.03182566302543       -1.26283507083425
C            6.82822431947538       -0.48819207875810       -2.56676644556253
C            7.79335773280493       -1.48696236814692       -2.65139142513184
C            8.25074035391833       -1.91733994775735       -3.88406551931544
C            7.75370092799910       -1.35313363077469       -5.04731412571729
C            6.78770253515964       -0.36302180911265       -4.97268814338039
C            6.32303171097788        0.06279393844397       -3.74116620638839
C            4.93466489574419       -0.14456348854573       -1.04421454730186
C            4.37787277065428        0.28941428653971        0.14504447938407
N            2.96734579502062        0.18366558138993        0.35207516265154
C            2.53635447215807       -0.65114434488283        1.37660907422239
O            3.35709206634447       -1.28230486057367        2.04740116115729
C            1.10519640090599       -0.73997066035904        1.57619973446208
C            0.60451629345968       -1.52630212379705        2.62775080941720
C           -0.75149598699581       -1.59334406224949        2.84910220283212
C           -1.64411214320176       -0.92734024434719        2.01584844342399
C           -1.18870790076883       -0.17266672723576        0.92654005166497
C           -2.05076804137193        0.53033365019097        0.03023125590657
N           -3.44146760007830        0.39610168978725        0.09301773840454
C           -4.21631496672054        1.54433777333590       -0.00162931742460
C           -3.76445613075185        2.74142105110137        0.57040851104313
C           -4.51128223971252        3.89103008263871        0.45882291659694
C           -5.73240277127712        3.89607075920215       -0.22439487201886
C           -6.52267141948865        5.12330015774254       -0.34594470237138
C           -7.91544931869023        5.08558399152085       -0.25902981457924
C           -8.65857171992380        6.24545485642469       -0.36901469799080
C           -8.02719357865066        7.46114077404668       -0.58039242401480
C           -6.64515044813525        7.51038352744866       -0.67475531834063
C           -5.89788476836200        6.35422153863765       -0.55375073036921
C           -6.17553815723008        2.69836337857479       -0.79626531690278
C           -5.43548086628094        1.54349253263971       -0.69354768477497
C           -4.02073250192477       -0.85742244598402        0.16056907970246
C           -5.25797258096249       -1.03888947525734        0.80492278451536
C           -5.83020973732121       -2.28764607667094        0.89802722111533
C           -5.16663242207231       -3.37941550878704        0.34493038789299
C           -3.92312529790884       -3.20439577604385       -0.29792248542226
C           -3.35027439178221       -1.96436944637320       -0.39249257401979
C           -3.40160293398086       -4.52490142035823       -0.81648893716962
C           -3.25546467758029       -4.50331956486829       -2.34214424549231
C           -2.06593472291715       -4.88373267376304       -0.15512342445510
C           -4.49806064357743       -5.47204945938447       -0.38264580997905
C           -4.58851119098909       -6.83458272492187       -0.56648682606777
C           -5.70241991073801       -7.50470479340368       -0.07513803848277
C           -6.71177007304188       -6.82090868635086        0.59083755997824
C           -6.63194314729612       -5.45307161888500        0.78195869929924
C           -5.51950941088726       -4.77879583315804        0.29295670731536
C           -1.51271716395492        1.37898011958769       -0.95832565242404
C           -0.16209846011016        1.50973209265296       -1.11879095242785
C            0.72619098075505        0.78792648237463       -0.28839351600592
C            0.21811441539324       -0.04566166808274        0.72967864266892
C            2.14909372516543        0.92949018500627       -0.48894598709554
O            2.64508427772275        1.67177418519947       -1.34340012924424
C            5.18758121393613        0.82815311933127        1.12866719898113
C            6.55981582684948        0.92498798671737        0.93104299339570
C            7.37501342728524        1.49279713305721        2.02625969798344
C            8.37891592828911        0.74529889176849        2.63411844290341
C            9.11363247071656        1.27606809402476        3.67910919885290
C            8.85848921038957        2.56147769836325        4.12773285267256
C            7.85719637663940        3.31078843669908        3.53250970998882
C            7.11661177715616        2.77833149092512        2.49216464941264
H            8.78323239551900        0.85262395096966       -1.59229399205268
H            8.96418564619555        1.57380334187252        0.01738001824148
H            9.16976291398395       -0.15958717691007       -0.20445572451549
H            8.17090262479057       -1.93761939603868       -1.74551947786881
H            8.99745782342498       -2.69661107675395       -3.93695115447015
H            8.11496702644752       -1.68630808518174       -6.00937830932053
H            6.39293599131985        0.07827236513374       -5.87681226466699
H            5.56939227719603        0.83550789243279       -3.67745858274434
H            4.30099278076344       -0.56911436155209       -1.80976116634393
H            1.31324008770974       -2.04933087437168        3.25143863338076
H           -1.13464539386926       -2.17741440843110        3.67284170519989
H           -2.69987597864084       -0.99889378828144        2.22303944544493
H           -2.83565665437503        2.74281221912839        1.12113879882465
H           -4.16241430762437        4.79568703129624        0.93275101491168
H           -8.41390969990624        4.14525903586625       -0.07560012243627
H           -9.73519284751957        6.20358351145967       -0.28957337469588
H           -8.60926799571580        8.36641740349696       -0.67070922864998
H           -6.14878830634372        8.45481904661582       -0.84513089838869
H           -4.82283970525536        6.39840307062699       -0.64818534456406
H           -7.09495124161236        2.68864555362509       -1.36125972545918
H           -5.77092892039962        0.63854735159823       -1.17741583105163
H           -5.73912721509213       -0.18822628503444        1.26363850716683
H           -6.77206753811153       -2.41642151610278        1.40803533312447
H           -2.40875684660023       -1.81448647643514       -0.89799999824318
H           -2.94336512372636       -5.48026562976369       -2.70210252565953
H           -4.20349839404508       -4.24638978447527       -2.81034698987933
H           -2.50849976817403       -3.77063237939842       -2.63772388808028
H           -2.17263389785428       -4.91002069035599        0.92734587816756
H           -1.72958371811364       -5.86029312820722       -0.49414315493136
H           -1.30614147961082       -4.14807679821813       -0.40860890265218
H           -3.81147621255974       -7.37944400262887       -1.08159453118373
H           -5.78490054145009       -8.57290518243849       -0.21316159205880
H           -7.56681927132178       -7.36581252347311        0.96336590415865
H           -7.41603418292125       -4.92250377901371        1.30057497323064
H           -2.19107762209528        1.89218855340861       -1.62403985086432
H            0.26262967587592        2.13983916101138       -1.88427429935582
H            4.75317910622572        1.15736108283984        2.06183314648406
H            8.56756439234534       -0.26244077127560        2.29467029102596
H            9.88744875054916        0.68394418936236        4.14627887654052
H            9.43524459243306        2.97668880982746        4.94139590286519
H            7.65064883144561        4.31289399088854        3.88051754791080
H            6.33578195140816        3.36162802776648        2.02405483544533

          :  Hamiltonian                  GFN2-xTB          :
         :: gradient norm              0.000046933940 Eh/a0 ::
         :: HOMO-LUMO gap              0.769756479472 eV    ::
         :: SCC energy              -162.569117562967 Eh    ::
         :: -> dispersion             -0.146697831913 Eh    ::
         :: -> Gsolv                  -0.085934223964 Eh    ::
         :: repulsion energy           2.875257267689 Eh    ::

    * Orbital Energies and Occupations

         #    Occupation            Energy/Eh            Energy/eV
      -------------------------------------------------------------
         1        2.0000           -0.6948445             -18.9077
       ...           ...                  ...                  ...
       137        2.0000           -0.4059588             -11.0467
       138        2.0000           -0.4044673             -11.0061
       139        2.0000           -0.4021124             -10.9420
       140        2.0000           -0.4017356             -10.9318
       141        2.0000           -0.3991669             -10.8619
       142        2.0000           -0.3975875             -10.8189
       143        2.0000           -0.3915382             -10.6543
       144        2.0000           -0.3887340             -10.5780
       145        2.0000           -0.3870969             -10.5334
       146        2.0000           -0.3841689             -10.4538
       147        1.9997           -0.3818035             -10.3894
       148        1.0003           -0.3664869              -9.9726
       149        1.0000           -0.2992914              -8.1441 (HOMO)
       150        0.0000           -0.2710033              -7.3744 (LUMO)
       151                         -0.2558811              -6.9629
       152                         -0.2444294              -6.6513
       153                         -0.2413671              -6.5679
       154                         -0.2391016              -6.5063
       155                         -0.2380381              -6.4773
       156                         -0.2329243              -6.3382
       157                         -0.2303431              -6.2680
       158                         -0.2295724              -6.2470
       159                         -0.2294230              -6.2429
       160                         -0.2203101              -5.9949
       ...                                ...                  ...
       290                          0.7139264              19.4269
      -------------------------------------------------------------
                  HL-Gap            0.0282881 Eh            0.7698 eV

     #   Z          covCN         q      C6AA      α(0)
     1   6 C        3.757    -0.107    22.595     6.777
     2   6 C        2.969     0.008    27.848     8.656
     3   6 C        2.981    -0.000    28.030     8.685
     4   6 C        2.979     0.014    27.702     8.633
     5   6 C        2.924    -0.033    28.816     8.803
     6   6 C        2.919    -0.031    28.774     8.796
     7   6 C        2.920    -0.033    28.814     8.803
     8   6 C        2.918    -0.030    28.758     8.794
     9   6 C        2.925    -0.033    28.822     8.804
    10   6 C        2.929    -0.039    28.978     8.828
    11   6 C        2.931     0.089    26.031     8.367
    12   7 N        2.748    -0.138    23.982     7.273
    13   6 C        2.777     0.260    22.620     7.790
    14   8 O        0.858    -0.507    23.934     6.559
    15   6 C        2.978    -0.042    29.046     8.840
    16   6 C        2.918    -0.034    28.852     8.808
    17   6 C        2.912    -0.030    28.745     8.792
    18   6 C        2.917    -0.053    29.308     8.878
    19   6 C        2.975     0.006    27.892     8.663
    20   6 C        2.928     0.026    27.434     8.590
    21   7 N        2.754     0.012    21.053     6.815
    22   6 C        2.931     0.060    26.645     8.465
    23   6 C        2.918    -0.035    28.865     8.810
    24   6 C        2.922    -0.027    28.688     8.783
    25   6 C        2.975     0.021    27.531     8.607
    26   6 C        2.976     0.013    27.726     8.637
    27   6 C        2.924    -0.032    28.792     8.800
    28   6 C        2.917    -0.028    28.697     8.785
    29   6 C        2.920    -0.027    28.668     8.780
    30   6 C        2.917    -0.028    28.692     8.784
    31   6 C        2.924    -0.031    28.783     8.798
    32   6 C        2.922    -0.028    28.705     8.786
    33   6 C        2.917    -0.038    28.938     8.821
    34   6 C        2.928     0.062    26.604     8.459
    35   6 C        2.920    -0.041    29.012     8.833
    36   6 C        2.911    -0.028    28.711     8.786
    37   6 C        3.036     0.011    27.736     8.638
    38   6 C        3.052     0.010    27.735     8.637
    39   6 C        2.916    -0.040    28.983     8.828
    40   6 C        3.934     0.022    20.148     6.379
    41   6 C        3.758    -0.102    22.507     6.764
    42   6 C        3.758    -0.100    22.466     6.757
    43   6 C        3.056     0.006    27.836     8.652
    44   6 C        2.914    -0.031    28.763     8.794
    45   6 C        2.922    -0.026    28.641     8.776
    46   6 C        2.920    -0.030    28.750     8.793
    47   6 C        2.913    -0.030    28.749     8.792
    48   6 C        3.035     0.005    27.879     8.660
    49   6 C        2.913    -0.038    28.935     8.821
    50   6 C        2.915    -0.037    28.927     8.820
    51   6 C        2.977    -0.038    28.934     8.823
    52   6 C        2.989     0.005    27.895     8.664
    53   6 C        2.777     0.258    22.659     7.797
    54   8 O        0.858    -0.509    23.992     6.567
    55   6 C        2.928    -0.039    28.970     8.827
    56   6 C        2.981    -0.000    28.029     8.684
    57   6 C        2.979     0.014    27.687     8.631
    58   6 C        2.924    -0.031    28.785     8.798
    59   6 C        2.919    -0.031    28.762     8.795
    60   6 C        2.920    -0.033    28.814     8.803
    61   6 C        2.918    -0.031    28.766     8.795
    62   6 C        2.925    -0.034    28.844     8.807
    63   1 H        0.925     0.049     2.333     2.388
    64   1 H        0.925     0.048     2.343     2.394
    65   1 H        0.925     0.055     2.259     2.351
    66   1 H        0.926     0.035     2.516     2.480
    67   1 H        0.926     0.035     2.517     2.481
    68   1 H        0.926     0.034     2.533     2.489
    69   1 H        0.926     0.032     2.559     2.502
    70   1 H        0.925     0.028     2.609     2.526
    71   1 H        0.926     0.029     2.595     2.519
    72   1 H        0.926     0.035     2.511     2.478
    73   1 H        0.926     0.037     2.493     2.469
    74   1 H        0.926     0.035     2.517     2.481
    75   1 H        0.926     0.049     2.332     2.388
    76   1 H        0.926     0.053     2.277     2.360
    77   1 H        0.926     0.042     2.417     2.431
    78   1 H        0.926     0.038     2.478     2.461
    79   1 H        0.926     0.036     2.497     2.471
    80   1 H        0.926     0.036     2.502     2.474
    81   1 H        0.926     0.039     2.462     2.454
    82   1 H        0.926     0.058     2.224     2.332
    83   1 H        0.926     0.057     2.239     2.340
    84   1 H        0.926     0.056     2.247     2.344
    85   1 H        0.926     0.056     2.240     2.341
    86   1 H        0.926     0.046     2.366     2.406
    87   1 H        0.925     0.050     2.321     2.382
    88   1 H        0.925     0.042     2.424     2.435
    89   1 H        0.925     0.046     2.368     2.406
    90   1 H        0.925     0.039     2.468     2.457
    91   1 H        0.925     0.050     2.323     2.383
    92   1 H        0.925     0.042     2.417     2.431
    93   1 H        0.926     0.039     2.456     2.450
    94   1 H        0.926     0.040     2.450     2.448
    95   1 H        0.926     0.039     2.458     2.452
    96   1 H        0.926     0.043     2.410     2.428
    97   1 H        0.926     0.046     2.368     2.406
    98   1 H        0.926     0.045     2.389     2.417
    99   1 H        0.926     0.029     2.603     2.523
   100   1 H        0.926     0.034     2.526     2.486
   101   1 H        0.926     0.035     2.517     2.481
   102   1 H        0.926     0.034     2.532     2.488
   103   1 H        0.926     0.032     2.554     2.499
   104   1 H        0.925     0.026     2.647     2.544

molecular dipole:
                 x           y           z       tot (Debye)
 q only:       -7.343      -0.516      -0.716
   full:       -7.420      -0.472      -0.632      18.966

 projected vibrational frequencies (cm⁻¹)
eigval :       -0.00    -0.00    -0.00     0.00     0.00     0.00
eigval :        6.62     7.55    13.97    18.34    21.35    23.07
eigval :       28.62    33.90    35.90    38.40    46.21    51.99
eigval :       60.81    64.82    67.78    74.30    78.51    87.72
eigval :       96.82   100.72   103.14   113.66   126.20   131.84
eigval :      136.15   140.93   149.13   157.47   165.62   168.96
eigval :      180.07   186.64   191.83   192.45   223.76   225.82
eigval :      237.43   243.27   257.68   260.73   264.23   269.03
eigval :      277.81   283.26   290.60   301.78   308.95   321.80
eigval :      323.47   326.00   335.36   349.55   370.20   370.94
eigval :      371.29   374.15   375.76   386.05   387.00   391.53
eigval :      396.56   412.45   418.66   425.65   444.17   459.14
eigval :      463.90   470.21   478.10   481.63   493.10   505.34
eigval :      513.41   520.41   527.51   534.72   545.06   555.16
eigval :      561.75   564.17   573.43   578.67   579.89   585.62
eigval :      587.02   590.30   593.95   601.10   604.25   612.86
eigval :      618.41   623.42   636.74   661.53   664.83   665.51
eigval :      670.34   676.86   680.68   685.47   691.06   693.98
eigval :      701.37   717.75   721.18   725.36   740.77   753.04
eigval :      756.19   765.95   767.54   772.41   772.99   777.43
eigval :      791.34   806.06   813.71   819.70   826.77   831.76
eigval :      842.24   850.73   859.15   861.26   872.20   873.99
eigval :      877.10   878.70   880.12   888.29   890.98   900.06
eigval :      902.48   905.09   905.22   909.76   911.68   912.81
eigval :      918.75   925.05   926.24   928.47   930.86   931.24
eigval :      931.41   932.35   932.44   941.14   948.98   961.86
eigval :      967.16   976.85   979.17   982.20   991.19  1008.14
eigval :     1012.95  1024.34  1027.37  1037.98  1060.17  1065.66
eigval :     1069.40  1072.91  1082.10  1083.36  1084.07  1100.92
eigval :     1107.00  1117.65  1118.47  1120.07  1127.63  1138.81
eigval :     1140.18  1145.16  1151.74  1160.19  1170.58  1174.92
eigval :     1178.98  1179.50  1179.90  1180.39  1185.83  1188.32
eigval :     1192.69  1196.38  1198.27  1199.28  1199.62  1212.75
eigval :     1217.12  1221.07  1227.71  1236.31  1240.93  1248.12
eigval :     1262.29  1268.15  1273.56  1278.76  1279.09  1279.57
eigval :     1281.12  1295.86  1297.88  1310.02  1311.96  1313.90
eigval :     1314.47  1318.12  1321.41  1334.26  1342.71  1351.09
eigval :     1358.63  1363.01  1378.42  1394.69  1401.50  1403.02
eigval :     1408.86  1410.30  1411.75  1417.54  1419.67  1424.66
eigval :     1430.05  1431.01  1432.63  1445.37  1447.85  1451.39
eigval :     1455.95  1464.64  1473.00  1480.80  1480.94  1483.11
eigval :     1483.90  1484.53  1491.33  1492.54  1497.05  1498.46
eigval :     1515.09  1524.97  1536.89  1550.10  1558.90  1570.60
eigval :     1572.28  1576.30  1577.88  1579.23  1582.02  1582.32
eigval :     1584.15  1593.73  1597.53  1598.55  1599.54  1609.69
eigval :     3004.80  3029.77  3032.83  3034.39  3036.35  3036.55
eigval :     3038.82  3041.58  3044.57  3064.50  3065.66  3068.84
eigval :     3068.93  3071.51  3073.91  3074.47  3075.20  3075.37
eigval :     3077.55  3078.16  3079.78  3080.61  3080.71  3081.99
eigval :     3082.21  3082.46  3086.01  3087.53  3087.87  3088.36
eigval :     3089.71  3089.98  3090.46  3092.85  3093.94  3095.05
eigval :     3095.76  3099.66  3100.94  3101.88  3103.46  3104.31

   temp. (K)  partition function   enthalpy   heat capacity  entropy
                                   cal/mol     cal/K/mol   cal/K/mol   J/K/mol
 298.15  VIB  0.576E+25            30807.182    190.834    193.377
         ROT  0.248E+09              888.752      2.981     41.393
         INT  0.143E+34            31695.934    193.815    234.770
         TR   0.218E+29             1481.254      4.968     45.892
         TOT                       33177.1882   198.7833   280.6619  1174.2895

       T/K    H(0)-H(T)+PV         H(T)/Eh          T*S/Eh         G(T)/Eh
   ------------------------------------------------------------------------
    298.15    0.528712E-01    0.859113E+00    0.133352E+00    0.725762E+00
   ------------------------------------------------------------------------

         :::::::::::::::::::::::::::::::::::::::::::::::::::::
         ::                  THERMODYNAMIC                  ::
         :::::::::::::::::::::::::::::::::::::::::::::::::::::
         :: total free energy        -158.968098694769 Eh   ::
         ::.................................................::
         :: total energy             -159.693860292118 Eh   ::
         :: zero point energy           0.806241924672 Eh   ::
         :: G(RRHO) w/o ZPVE           -0.080480327323 Eh   ::
         :: G(RRHO) contrib.            0.725761597349 Eh   ::
         :::::::::::::::::::::::::::::::::::::::::::::::::::::

           -------------------------------------------------
          | TOTAL ENERGY             -159.693860292118 Eh   |
          | TOTAL ENTHALPY           -158.834747152661 Eh   |
          | TOTAL FREE ENERGY        -158.968098694769 Eh   |
          | GRADIENT NORM               0.000046941468 Eh/α |
          | HOMO-LUMO GAP               0.769758069292 eV   |
           -------------------------------------------------

 * finished run on 2025/09/05 at 05:02:59.977
