   * xtb version 6.7.1 (edcfbbe) compiled by 'albert@albert-system' on 2024-07-22

   ID    Z sym.   atoms
    1    6 C      1-11, 13, 15-20, 22-53, 55-62
    2    7 N      12, 21
    3    8 O      14, 54
    4    1 H      63-104

          program call               : xtb data2507/toluene/NAI–BiFA/NAI–BiFA_toluene_T1_crest.xyz --gfn 2 --uhf 2 --gbsa toluene --ohess vtight --parallel 40 --molden --ceasefiles --namespace data2507/toluene/NAI–BiFA/NAI–BiFA_toluene_T1_finalOpt
      * Solvation model:               GBSA
        Solvent                        toluene
        Solvent mass                       9.2140E+01 g/mol
          :  Hamiltonian                  GFN2-xTB          :
 * total energy  :  -159.6930981 Eh     change       -0.9216137E-08 Eh
 * total energy  :  -159.6933697 Eh     change       -0.2715836E-03 Eh
 * total energy  :  -159.6934786 Eh     change       -0.1089764E-03 Eh
 * total energy  :  -159.6935117 Eh     change       -0.3302254E-04 Eh
 * total energy  :  -159.6935646 Eh     change       -0.5291458E-04 Eh
 * total energy  :  -159.6936006 Eh     change       -0.3601871E-04 Eh
 * total energy  :  -159.6936330 Eh     change       -0.3238921E-04 Eh
 * total energy  :  -159.6936574 Eh     change       -0.2446007E-04 Eh
 * total energy  :  -159.6936795 Eh     change       -0.2206890E-04 Eh
 * total energy  :  -159.6936799 Eh     change       -0.3992782E-06 Eh
 * total energy  :  -159.6937821 Eh     change       -0.9946060E-06 Eh
 * total energy  :  -159.6937829 Eh     change       -0.8569050E-06 Eh
 * total energy  :  -159.6937837 Eh     change       -0.8113696E-06 Eh
 * total energy  :  -159.6937846 Eh     change       -0.9084630E-06 Eh
 * total energy  :  -159.6937858 Eh     change       -0.1136179E-05 Eh
 * total energy  :  -159.6937869 Eh     change       -0.1167036E-05 Eh
 * total energy  :  -159.6937881 Eh     change       -0.1126302E-05 Eh
 * total energy  :  -159.6937891 Eh     change       -0.9993356E-06 Eh
 * total energy  :  -159.6937891 Eh     change       -0.4501487E-08 Eh
   *** GEOMETRY OPTIMIZATION CONVERGED AFTER 44 ITERATIONS ***

 final structure:
================
104
 xtb: 6.7.1 (edcfbbe)
C            8.61987262988622        0.59649101104649       -0.54752878920968
C            7.15051895489090        0.41652236694135       -0.29408996074406
C            6.31583994713366       -0.11658068361148       -1.28091813884682
C            6.83602976269200       -0.57925272966797       -2.58477632720700
C            7.78823346029213       -1.59031645251303       -2.66963789607542
C            8.23978379348373       -2.02637587422991       -3.90248851206088
C            7.75009111939598       -1.45540289139139       -5.06555289782909
C            6.79747329204505       -0.45242868246697       -4.99062417171605
C            6.33825408132632       -0.02112831289056       -3.75898169333544
C            4.94650661261413       -0.21362799079033       -1.06257462990071
C            4.39398535962800        0.22905077276404        0.12555502070549
N            2.98241824159773        0.14259503759963        0.33242049651256
C            2.54079930173080       -0.66016216224496        1.37827974823521
O            3.35254282044519       -1.28992954382249        2.06115393613350
C            1.10929140005195       -0.71812608989466        1.58648986981448
C            0.60027391240116       -1.46048398112553        2.66569697579823
C           -0.75558013207691       -1.49614780693311        2.89523012919595
C           -1.64066746478843       -0.84291648318610        2.04402866736774
C           -1.17775063479498       -0.13358444934168        0.92774360090292
C           -2.03203817774180        0.55305463585141        0.01145357603092
N           -3.42432088227233        0.44363519873593        0.08395236370111
C           -4.18169036804759        1.59974468477911       -0.04877545329145
C           -3.70973084966664        2.80954388979644        0.47845453248939
C           -4.43912540540167        3.96570867100341        0.32687293288292
C           -5.66144892635320        3.96523441859177       -0.35424470143087
C           -6.43179875461546        5.19974737155327       -0.52110061871334
C           -7.82522566407902        5.18774396737593       -0.43680089845355
C           -8.54938341253646        6.35407813647881       -0.59420331021234
C           -7.89807411018739        7.55062698298234       -0.84976974143431
C           -6.51512576863157        7.57431732934592       -0.94064973213754
C           -5.78682714808853        6.41195632533540       -0.77290398497860
C           -6.12517660609470        2.75435472367030       -0.88029000763484
C           -5.40307995397764        1.59256647840330       -0.73671977856869
C           -4.02383347020992       -0.79689363115903        0.19964491950440
C           -5.25862773428262       -0.93401964960933        0.85941305919891
C           -5.84983367262879       -2.16899051335805        1.00363364326897
C           -5.20854219884715       -3.29110212646784        0.48612391169860
C           -3.96932201097314       -3.15990220161060       -0.17517242247873
C           -3.37683674920386       -1.93389542999162       -0.31907145984234
C           -3.47595075277815       -4.50634583339182       -0.65297801306875
C           -3.35544829463510       -4.54174237794228       -2.18080751045392
C           -2.13519032165116       -4.86302819447103       -0.00122382511720
C           -4.58015141861377       -5.41964734971214       -0.16931169497962
C           -4.69251320225415       -6.78669120299930       -0.29960785528288
C           -5.80944492079452       -7.42098298332668        0.23092840418090
C           -6.80021043163348       -6.69735464633566        0.88256787006315
C           -6.69846891370138       -5.32443003229583        1.01952322849374
C           -5.58301316835963       -4.68586918505993        0.49108553738426
C           -1.48410796703143        1.35939970275336       -1.00671087438051
C           -0.13213433477677        1.46424848435287       -1.17465844893498
C            0.74778236819283        0.75696506583096       -0.32309535162159
C            0.23012658592709       -0.03619438109514        0.72193991863653
C            2.17215450383041        0.87565789171298       -0.52791015710060
O            2.67552622961253        1.59031837728180       -1.40133278222915
C            5.21000832135967        0.75943184715879        1.10882453964728
C            6.58343465025810        0.83833317604200        0.91233094041862
C            7.40556380150619        1.39417684975452        2.00856790216867
C            8.39674709517720        0.63077278816823        2.61756389046083
C            9.13821352853988        1.14938124949889        3.66385245332984
C            8.90251379469774        2.43836555969778        4.11284333597791
C            7.91402488132738        3.20357265524418        3.51649852261752
C            7.16672866658656        2.68335896193341        2.47472687718788
H            8.80803363987819        0.73397404789378       -1.60976608183118
H            8.99465545778194        1.46022602933957       -0.00299160040046
H            9.18127854674010       -0.27628488378354       -0.21680527050619
H            8.16018969816070       -2.04584664145664       -1.76387599234573
H            8.97612969295133       -2.81543568348672       -3.95572869702978
H            8.10679289204052       -1.79315027743896       -6.02773143558187
H            6.40862394941640       -0.00560117974184       -5.89460064866847
H            5.59467494989012        0.76122261690040       -3.69499976914785
H            4.30864924407238       -0.63179298765847       -1.82805360069207
H            1.30281806534341       -1.97504260883267        3.30326833851560
H           -1.14476639258268       -2.04543229959460        3.73982788351858
H           -2.69644154592220       -0.88915983445275        2.25807206689975
H           -2.77946827825610        2.81645041202125        1.02666356034256
H           -4.07509766021482        4.88140641273817        0.76692492852073
H           -8.33931581247822        4.26324895380954       -0.21924750120218
H           -9.62677303337866        6.33230963550566       -0.51712230249324
H           -8.46538626265984        8.46077860257524       -0.97726971485330
H           -6.00317917445498        8.50359178468304       -1.14486545995811
H           -4.71098808621475        6.43562155203896       -0.86549069413143
H           -7.04616280832197        2.73835186960842       -1.44253745473136
H           -5.75425657392128        0.67555308620010       -1.18545883982591
H           -5.72201396143852       -0.05905176780272        1.28981916520292
H           -6.78901226295959       -2.26357901024560        1.52591756821580
H           -2.43771254441431       -1.81807377344010       -0.83780404163683
H           -3.06737599677181       -5.53680093936085       -2.51006374480150
H           -4.30661318821827       -4.28439038670751       -2.64240222054804
H           -2.60065617532146       -3.83395130250208       -2.51464472910786
H           -2.22419635996710       -4.85041338346957        1.08307699035081
H           -1.81936114514178       -5.85585393428831       -0.31154028357165
H           -1.36858079756568       -4.14860545323140       -0.29218179070497
H           -3.92997142480966       -7.36235105176539       -0.80274166704930
H           -5.90882924070957       -8.49237677015675        0.13517524734766
H           -7.65793706110871       -7.21473285544876        1.28686098348701
H           -7.46796990956478       -4.76286584120773        1.52726500060038
H           -2.15642385023882        1.86054721964432       -1.68756062717052
H            0.29970415546555        2.06259595454101       -1.96136728715593
H            4.77948930370605        1.09545721454378        2.04130385627075
H            8.56997167983205       -0.37969536255118        2.27800276579985
H            9.90185174643138        0.54485680638189        4.13188924725709
H            9.48434773508218        2.84402289724525        4.92769680191715
H            7.72283045360933        4.20863545591689        3.86477180217676
H            6.39601611373285        3.27930726378024        2.00584251358100

          :  Hamiltonian                  GFN2-xTB          :
         :: gradient norm              0.000053394457 Eh/a0 ::
         :: HOMO-LUMO gap              0.769925494968 eV    ::
         :: SCC energy              -162.569032960480 Eh    ::
         :: -> dispersion             -0.146713893872 Eh    ::
         :: -> Gsolv                  -0.085826714329 Eh    ::
         :: repulsion energy           2.875243882953 Eh    ::

    * Orbital Energies and Occupations

         #    Occupation            Energy/Eh            Energy/eV
      -------------------------------------------------------------
         1        2.0000           -0.6948258             -18.9072
       ...           ...                  ...                  ...
       137        2.0000           -0.4059594             -11.0467
       138        2.0000           -0.4044566             -11.0058
       139        2.0000           -0.4020669             -10.9408
       140        2.0000           -0.4016650             -10.9299
       141        2.0000           -0.3990541             -10.8588
       142        2.0000           -0.3975509             -10.8179
       143        2.0000           -0.3914985             -10.6532
       144        2.0000           -0.3887829             -10.5793
       145        2.0000           -0.3871080             -10.5337
       146        2.0000           -0.3840312             -10.4500
       147        1.9997           -0.3815574             -10.3827
       148        1.0004           -0.3664638              -9.9720
       149        1.0000           -0.2992947              -8.1442 (HOMO)
       150        0.0000           -0.2710003              -7.3743 (LUMO)
       151                         -0.2559477              -6.9647
       152                         -0.2444233              -6.6511
       153                         -0.2414981              -6.5715
       154                         -0.2391788              -6.5084
       155                         -0.2378863              -6.4732
       156                         -0.2329320              -6.3384
       157                         -0.2301681              -6.2632
       158                         -0.2295298              -6.2458
       159                         -0.2294075              -6.2425
       160                         -0.2202666              -5.9938
       ...                                ...                  ...
       290                          0.7139349              19.4272
      -------------------------------------------------------------
                  HL-Gap            0.0282944 Eh            0.7699 eV

     #   Z          covCN         q      C6AA      α(0)
     1   6 C        3.757    -0.107    22.594     6.777
     2   6 C        2.969     0.007    27.850     8.656
     3   6 C        2.981    -0.000    28.033     8.685
     4   6 C        2.979     0.014    27.702     8.633
     5   6 C        2.924    -0.033    28.817     8.803
     6   6 C        2.919    -0.031    28.775     8.797
     7   6 C        2.920    -0.033    28.815     8.803
     8   6 C        2.918    -0.030    28.758     8.794
     9   6 C        2.925    -0.033    28.821     8.804
    10   6 C        2.929    -0.039    28.976     8.828
    11   6 C        2.931     0.088    26.039     8.369
    12   7 N        2.748    -0.138    23.979     7.273
    13   6 C        2.777     0.260    22.620     7.790
    14   8 O        0.858    -0.506    23.925     6.558
    15   6 C        2.978    -0.042    29.045     8.840
    16   6 C        2.918    -0.034    28.852     8.808
    17   6 C        2.912    -0.030    28.745     8.792
    18   6 C        2.917    -0.053    29.308     8.878
    19   6 C        2.975     0.006    27.892     8.663
    20   6 C        2.928     0.026    27.432     8.589
    21   7 N        2.754     0.012    21.055     6.815
    22   6 C        2.931     0.060    26.646     8.466
    23   6 C        2.918    -0.035    28.865     8.810
    24   6 C        2.922    -0.028    28.688     8.783
    25   6 C        2.975     0.021    27.531     8.607
    26   6 C        2.976     0.013    27.726     8.637
    27   6 C        2.924    -0.032    28.792     8.800
    28   6 C        2.917    -0.028    28.697     8.785
    29   6 C        2.920    -0.027    28.668     8.780
    30   6 C        2.917    -0.028    28.692     8.784
    31   6 C        2.924    -0.031    28.783     8.798
    32   6 C        2.922    -0.028    28.705     8.786
    33   6 C        2.917    -0.038    28.938     8.821
    34   6 C        2.928     0.062    26.604     8.459
    35   6 C        2.921    -0.041    29.011     8.833
    36   6 C        2.911    -0.028    28.711     8.786
    37   6 C        3.036     0.011    27.736     8.638
    38   6 C        3.052     0.010    27.735     8.637
    39   6 C        2.916    -0.040    28.983     8.828
    40   6 C        3.934     0.022    20.148     6.379
    41   6 C        3.758    -0.102    22.506     6.764
    42   6 C        3.758    -0.100    22.467     6.758
    43   6 C        3.056     0.006    27.836     8.652
    44   6 C        2.914    -0.031    28.763     8.794
    45   6 C        2.922    -0.026    28.642     8.776
    46   6 C        2.920    -0.030    28.750     8.793
    47   6 C        2.913    -0.030    28.750     8.792
    48   6 C        3.035     0.005    27.879     8.661
    49   6 C        2.913    -0.038    28.935     8.821
    50   6 C        2.915    -0.037    28.927     8.819
    51   6 C        2.977    -0.038    28.933     8.823
    52   6 C        2.989     0.005    27.895     8.664
    53   6 C        2.777     0.258    22.660     7.797
    54   8 O        0.858    -0.509    23.984     6.566
    55   6 C        2.928    -0.039    28.971     8.827
    56   6 C        2.981    -0.000    28.032     8.685
    57   6 C        2.979     0.014    27.686     8.631
    58   6 C        2.924    -0.031    28.784     8.798
    59   6 C        2.919    -0.031    28.762     8.795
    60   6 C        2.920    -0.033    28.815     8.803
    61   6 C        2.918    -0.031    28.766     8.795
    62   6 C        2.925    -0.034    28.844     8.807
    63   1 H        0.925     0.049     2.333     2.389
    64   1 H        0.925     0.048     2.345     2.395
    65   1 H        0.925     0.055     2.260     2.351
    66   1 H        0.926     0.035     2.516     2.481
    67   1 H        0.926     0.035     2.517     2.481
    68   1 H        0.926     0.034     2.534     2.489
    69   1 H        0.926     0.032     2.560     2.502
    70   1 H        0.925     0.029     2.607     2.525
    71   1 H        0.926     0.030     2.590     2.517
    72   1 H        0.926     0.035     2.511     2.478
    73   1 H        0.926     0.037     2.493     2.469
    74   1 H        0.926     0.035     2.516     2.481
    75   1 H        0.926     0.049     2.333     2.388
    76   1 H        0.926     0.053     2.277     2.360
    77   1 H        0.926     0.042     2.416     2.431
    78   1 H        0.926     0.038     2.478     2.461
    79   1 H        0.926     0.036     2.497     2.471
    80   1 H        0.926     0.036     2.502     2.474
    81   1 H        0.926     0.039     2.462     2.454
    82   1 H        0.926     0.058     2.224     2.332
    83   1 H        0.926     0.057     2.240     2.341
    84   1 H        0.926     0.056     2.248     2.345
    85   1 H        0.926     0.056     2.241     2.341
    86   1 H        0.926     0.046     2.366     2.406
    87   1 H        0.925     0.050     2.320     2.382
    88   1 H        0.925     0.042     2.424     2.435
    89   1 H        0.925     0.046     2.366     2.406
    90   1 H        0.925     0.038     2.469     2.457
    91   1 H        0.925     0.050     2.323     2.384
    92   1 H        0.925     0.042     2.417     2.431
    93   1 H        0.926     0.039     2.456     2.451
    94   1 H        0.926     0.040     2.450     2.448
    95   1 H        0.926     0.039     2.458     2.452
    96   1 H        0.926     0.043     2.411     2.428
    97   1 H        0.926     0.046     2.368     2.406
    98   1 H        0.926     0.045     2.389     2.417
    99   1 H        0.926     0.029     2.600     2.522
   100   1 H        0.926     0.034     2.528     2.486
   101   1 H        0.926     0.035     2.518     2.481
   102   1 H        0.926     0.034     2.532     2.488
   103   1 H        0.926     0.032     2.554     2.499
   104   1 H        0.926     0.026     2.647     2.544

molecular dipole:
                 x           y           z       tot (Debye)
 q only:       -7.354      -0.415      -0.671
   full:       -7.429      -0.369      -0.589      18.966

 projected vibrational frequencies (cm⁻¹)
eigval :       -0.00    -0.00    -0.00     0.00     0.00     0.00
eigval :        5.73     7.66    13.74    19.01    20.73    24.20
eigval :       28.01    33.14    34.96    38.22    45.31    50.81
eigval :       60.70    63.18    66.79    72.84    78.24    87.42
eigval :       96.88   101.38   104.14   113.55   125.95   132.13
eigval :      135.61   141.13   149.40   156.77   166.98   167.59
eigval :      179.19   186.19   191.74   195.43   225.27   226.49
eigval :      237.12   242.88   257.74   261.11   265.14   268.54
eigval :      277.66   283.51   291.23   301.51   308.87   322.58
eigval :      323.15   325.93   334.38   349.00   368.40   368.83
eigval :      369.60   374.11   376.22   386.08   387.24   391.49
eigval :      396.47   412.65   418.59   425.55   443.49   458.53
eigval :      463.28   469.72   477.90   481.37   492.98   505.17
eigval :      513.05   519.97   527.20   534.21   544.61   555.07
eigval :      561.35   563.81   573.18   578.71   580.01   585.71
eigval :      587.43   590.23   593.92   601.31   604.19   612.64
eigval :      618.48   623.27   636.73   661.41   664.17   664.95
eigval :      670.01   676.64   680.73   685.10   691.28   693.68
eigval :      701.31   717.58   720.69   724.67   740.72   752.76
eigval :      756.37   765.52   767.09   768.60   774.91   777.42
eigval :      791.36   805.68   813.37   819.62   826.35   831.21
eigval :      843.07   848.64   858.41   861.51   871.13   874.37
eigval :      877.14   877.93   879.32   889.70   890.33   899.97
eigval :      902.74   904.69   905.14   905.48   909.75   912.58
eigval :      920.42   925.92   927.01   928.22   929.37   931.37
eigval :      931.62   931.99   933.06   941.00   948.86   962.10
eigval :      966.94   977.02   979.17   982.18   991.08  1008.40
eigval :     1012.30  1024.39  1027.03  1037.95  1060.15  1065.69
eigval :     1069.53  1073.56  1082.02  1083.24  1084.97  1100.68
eigval :     1106.78  1117.05  1117.89  1122.21  1126.95  1139.92
eigval :     1142.33  1145.25  1151.18  1159.28  1170.63  1175.69
eigval :     1179.33  1179.85  1179.94  1181.01  1185.80  1190.91
eigval :     1191.49  1195.54  1198.73  1199.01  1201.43  1212.85
eigval :     1217.34  1220.94  1227.70  1235.96  1241.13  1247.99
eigval :     1262.77  1268.35  1273.49  1278.87  1279.16  1279.45
eigval :     1280.69  1295.54  1297.84  1310.19  1311.90  1313.89
eigval :     1314.49  1318.11  1321.48  1334.15  1342.47  1350.86
eigval :     1358.42  1362.87  1378.25  1393.77  1401.25  1402.99
eigval :     1408.91  1410.41  1411.41  1417.54  1419.59  1424.75
eigval :     1429.99  1431.08  1432.58  1445.39  1447.73  1451.49
eigval :     1455.95  1464.59  1473.11  1480.64  1480.86  1483.29
eigval :     1484.04  1484.40  1491.37  1492.33  1497.30  1498.33
eigval :     1514.91  1524.85  1536.84  1549.99  1558.79  1570.40
eigval :     1572.17  1576.16  1577.78  1579.29  1582.04  1582.29
eigval :     1584.08  1593.72  1597.42  1598.50  1599.62  1609.60
eigval :     3004.61  3029.31  3032.34  3034.70  3036.18  3036.53
eigval :     3038.90  3042.05  3045.13  3064.71  3065.43  3068.54
eigval :     3069.18  3072.66  3074.58  3075.06  3075.21  3075.44
eigval :     3077.37  3078.29  3080.49  3080.50  3080.93  3081.92
eigval :     3082.25  3082.85  3086.32  3087.08  3087.87  3088.60
eigval :     3089.52  3089.79  3089.83  3093.04  3093.86  3094.98
eigval :     3095.89  3099.60  3100.65  3101.34  3103.45  3104.32

   temp. (K)  partition function   enthalpy   heat capacity  entropy
                                   cal/mol     cal/K/mol   cal/K/mol   J/K/mol
 298.15  VIB  0.739E+25            30823.553    190.761    193.583
         ROT  0.248E+09              888.752      2.981     41.395
         INT  0.184E+34            31712.306    193.742    234.978
         TR   0.218E+29             1481.254      4.968     45.892
         TOT                       33193.5597   198.7102   280.8700  1175.1601

       T/K    H(0)-H(T)+PV         H(T)/Eh          T*S/Eh         G(T)/Eh
   ------------------------------------------------------------------------
    298.15    0.528973E-01    0.859077E+00    0.133450E+00    0.725627E+00
   ------------------------------------------------------------------------

         :::::::::::::::::::::::::::::::::::::::::::::::::::::
         ::                  THERMODYNAMIC                  ::
         :::::::::::::::::::::::::::::::::::::::::::::::::::::
         :: total free energy        -158.968162205171 Eh   ::
         ::.................................................::
         :: total energy             -159.693789076808 Eh   ::
         :: zero point energy           0.806179968349 Eh   ::
         :: G(RRHO) w/o ZPVE           -0.080553096712 Eh   ::
         :: G(RRHO) contrib.            0.725626871637 Eh   ::
         :::::::::::::::::::::::::::::::::::::::::::::::::::::

           -------------------------------------------------
          | TOTAL ENERGY             -159.693789076808 Eh   |
          | TOTAL ENTHALPY           -158.834711803974 Eh   |
          | TOTAL FREE ENERGY        -158.968162205171 Eh   |
          | GRADIENT NORM               0.000053371849 Eh/α |
          | HOMO-LUMO GAP               0.769929392393 eV   |
           -------------------------------------------------

 * finished run on 2025/09/05 at 05:26:17.686
