   * xtb version 6.7.1 (edcfbbe) compiled by 'albert@albert-system' on 2024-07-22

   ID    Z sym.   atoms
    1    6 C      1-9, 11-28, 30-43, 45-50
    2    7 N      10
    3    8 O      29, 44
    4    1 H      51-83

          program call               : xtb data2507/gas/DpAn-BzAc/DpAn-BzAc_gas_S0_finalOpt.xtbopt.xyz --gfn 2 --spinpol --tblite --uhf 2 --ohess vtight --parallel 40 --molden --ceasefiles --namespace data2507/gas/DpAn-BzAc/DpAn-BzAc_gas_T1_preOpt
 * total energy  :  -128.5052910 Eh     change       -0.3743344E-07 Eh
 * total energy  :  -128.5086548 Eh     change       -0.3363778E-02 Eh
 * total energy  :  -128.5095010 Eh     change       -0.8462119E-03 Eh
 * total energy  :  -128.5096154 Eh     change       -0.1143678E-03 Eh
 * total energy  :  -128.5097070 Eh     change       -0.9166802E-04 Eh
 * total energy  :  -128.5097542 Eh     change       -0.4713785E-04 Eh
 * total energy  :  -128.5097876 Eh     change       -0.3345874E-04 Eh
 * total energy  :  -128.5098067 Eh     change       -0.1908142E-04 Eh
 * total energy  :  -128.5098186 Eh     change       -0.1188523E-04 Eh
 * total energy  :  -128.5098356 Eh     change       -0.1699499E-04 Eh
 * total energy  :  -128.5099350 Eh     change       -0.9482571E-06 Eh
 * total energy  :  -128.5099359 Eh     change       -0.9078574E-06 Eh
 * total energy  :  -128.5099368 Eh     change       -0.8986229E-06 Eh
 * total energy  :  -128.5099380 Eh     change       -0.1196019E-05 Eh
 * total energy  :  -128.5099390 Eh     change       -0.1043120E-05 Eh
 * total energy  :  -128.5099398 Eh     change       -0.8218591E-06 Eh
 * total energy  :  -128.5099406 Eh     change       -0.7292396E-06 Eh
 * total energy  :  -128.5099412 Eh     change       -0.6826804E-06 Eh
 * total energy  :  -128.5099413 Eh     change       -0.4172608E-07 Eh
   *** GEOMETRY OPTIMIZATION CONVERGED AFTER 44 ITERATIONS ***

 final structure:
================
83
 xtb: 6.7.1 (edcfbbe)
C            6.53399180787709        1.01385644054544       -1.31547230622280
C            5.64430643959592        1.06088366399617       -0.05875328438323
C            6.51506418498187        1.16756503106280        1.20771016055464
C            4.76139961128171        2.28995874148795       -0.13823323660750
C            5.34046210514085        3.54887988377902       -0.22053272563302
C            4.58006917809109        4.70196197261466       -0.28680380722703
C            3.19789518874964        4.61014095368828       -0.26725631404759
C            2.59500398129617        3.37486260886350       -0.18497195145335
C            3.36294955869391        2.20544432805361       -0.12368209929187
N            2.72907455907754        0.98221667062204       -0.04480352863816
C            1.30473080885363        0.93863856431118        0.00575875784548
C            0.56211872714509        0.92844010204929       -1.16367363671950
C           -0.81849695959370        0.86682073567403       -1.10473215079700
C           -1.47921647960863        0.81431535429212        0.11656446246414
C           -2.99944650509970        0.68153166050269        0.20528892900437
C           -3.62556280555488        1.72509823512823        1.11311397430571
C           -2.97223534501995        2.89384650579705        1.48187577208631
C           -3.60840436240053        3.83613491347244        2.27267179901195
C           -4.90838575080187        3.62892155802613        2.69742720280920
C           -5.57573487430466        2.47654661075932        2.31556084211210
C           -4.94135555836859        1.53680989868613        1.52601267304516
C           -3.61629239098408        0.82315799713071       -1.17333449247431
C           -3.94014473191739        2.07611559897271       -1.66676088101449
C           -4.41280482882302        2.24259389669319       -2.95960627203597
C           -4.55199482913710        1.13794909842028       -3.79017640429252
C           -4.23492264983444       -0.11632130569897       -3.32782973317386
C           -3.77756002767282       -0.29543371022920       -2.00875626041903
C           -3.51335196893124       -1.64051309940644       -1.55144144374184
O           -3.50704031538483       -2.62603973620969       -2.34434998766532
C           -3.36858431281647       -1.80945543553847       -0.12573452187077
C           -3.42679850736358       -3.11676240604865        0.39851030184019
C           -3.38973123732417       -3.32604023175223        1.75521079189210
C           -3.30344718850456       -2.24469570589697        2.62319383612040
C           -3.22196179566972       -0.95798690801114        2.11339050698563
C           -3.23332520665999       -0.71857231188553        0.74922925720164
C           -0.71743689835316        0.82626025399717        1.28215462882960
C            0.65957602051620        0.89673454124327        1.23418527949573
C            3.43468578232405       -0.19894768859988        0.01129269122561
C            4.83749625140686       -0.22124900075259        0.01282767391065
C            5.51183007956278       -1.44018862175919        0.07978855816914
C            4.86275622399547       -2.65571171069146        0.13994682494040
C            3.47417223954204       -2.65342994915870        0.12828444360695
C            2.77585337660545       -1.43666617228952        0.06412274821012
O            1.42884157407189       -1.63915309415923        0.05715012549161
C            1.23813163015300       -2.98394708604246        0.11564609878449
C            0.01982553635529       -3.63861785260328        0.12884976571802
C            0.05138584813124       -5.01913367009142        0.19341153621796
C            1.25518378244352       -5.72011408557255        0.24235449379155
C            2.46979917095083       -5.06329061116065        0.22829302298886
C            2.46313158265999       -3.67565027011200        0.16422351755490
H            7.19958955688321        0.15626796299626       -1.28878666986675
H            5.91277591460747        0.93904669650776       -2.20571271083864
H            7.14009960302986        1.91158529387568       -1.39416498386015
H            7.11806030674158        2.07070088518821        1.18680910515524
H            7.18181043104434        0.31461383773783        1.29333179734483
H            5.88084826425810        1.19807740403059        2.09149180152059
H            6.41568121275457        3.64006681108729       -0.23259481561179
H            5.06337116568431        5.66448488227531       -0.35127042199533
H            2.59005066735945        5.50061512360935       -0.31573111161987
H            1.51897544143631        3.30191384535657       -0.16853906972569
H            1.06655384801438        0.96126997364137       -2.11818207058543
H           -1.37846804499899        0.85950778826230       -2.02648751331058
H           -1.96181195530749        3.07843834453049        1.14631303277190
H           -3.08427814060212        4.73859994124382        2.55297797008891
H           -5.40204243839068        4.36418141152614        3.31558001031289
H           -6.59531586088880        2.31150013864115        2.63150383939300
H           -5.46653792970496        0.64219351183760        1.22380882923746
H           -3.80810057372672        2.94312625318773       -1.03559944432556
H           -4.65983350417788        3.23086522576076       -3.31685813852255
H           -4.91278098481498        1.26055332086318       -4.80124533123822
H           -4.33892683271576       -0.99007965484963       -3.95246464372085
H           -3.51936943716982       -3.93685155130375       -0.29730896429916
H           -3.44031460871804       -4.33244799997923        2.14501754118208
H           -3.29445599460987       -2.39978545636979        3.69141504701448
H           -3.15915602714753       -0.12508272651412        2.79936151714446
H           -1.20455178978911        0.78155048925789        2.24326699809833
H            1.24130125836989        0.90757387874108        2.14442467320887
H            6.59037121581364       -1.43888203880215        0.08508093405629
H            5.41378181552810       -3.58072453903894        0.19119892127324
H           -0.90620989698553       -3.08947557267502        0.08932931313018
H           -0.87956899189811       -5.56442129727408        0.20353946245426
H            1.23437215149327       -6.79855736418818        0.29069422697827
H            3.40095811130878       -5.60759319470640        0.26484429610778

 projected vibrational frequencies (cm⁻¹)
eigval :       -0.00    -0.00     0.00     0.00     0.00     0.00
eigval :        2.84    13.17    20.29    28.61    37.46    39.63
eigval :       44.75    45.68    56.32    65.64    71.70    80.76
eigval :       87.39   109.10   113.06   119.12   122.52   129.98
eigval :      136.13   157.41   169.86   187.37   188.90   211.32
eigval :      226.85   235.04   240.59   246.91   251.41   260.50
eigval :      272.59   280.86   286.02   303.06   307.18   308.73
eigval :      313.13   336.95   349.01   366.69   371.25   378.76
eigval :      386.70   389.76   391.96   400.19   404.34   411.64
eigval :      435.10   437.04   471.89   474.14   476.58   480.67
eigval :      497.31   510.05   518.24   519.68   523.86   527.68
eigval :      539.87   543.18   553.80   568.59   583.45   588.81
eigval :      591.14   600.84   603.72   612.17   619.02   625.84
eigval :      626.47   659.56   663.68   674.32   676.48   685.03
eigval :      694.30   694.73   705.12   711.67   715.02   746.67
eigval :      757.19   761.86   765.39   776.14   779.03   789.72
eigval :      802.44   818.86   823.79   852.73   855.39   856.89
eigval :      864.87   868.89   874.95   880.73   882.07   884.04
eigval :      896.23   901.83   904.25   905.60   906.35   907.42
eigval :      909.10   909.70   912.75   915.75   916.37   922.80
eigval :      925.81   925.97   933.16   933.80   934.32   938.71
eigval :      945.83   957.52   989.50   994.55  1013.53  1022.01
eigval :     1060.59  1081.00  1086.65  1089.20  1090.65  1095.12
eigval :     1097.22  1108.87  1109.19  1126.71  1127.75  1142.61
eigval :     1149.65  1153.92  1166.69  1168.39  1171.33  1175.59
eigval :     1177.84  1181.38  1182.38  1184.23  1190.69  1193.15
eigval :     1197.43  1200.51  1204.76  1205.92  1216.19  1218.22
eigval :     1235.53  1240.92  1248.09  1251.49  1253.37  1259.49
eigval :     1274.14  1287.85  1289.27  1296.77  1313.52  1318.50
eigval :     1322.24  1330.56  1334.54  1335.26  1337.45  1349.18
eigval :     1362.39  1384.67  1397.15  1401.44  1402.37  1407.36
eigval :     1419.47  1420.25  1431.59  1433.35  1434.90  1438.40
eigval :     1454.54  1467.66  1472.87  1474.62  1479.46  1487.06
eigval :     1487.67  1488.35  1497.70  1500.81  1519.77  1526.71
eigval :     1553.31  1559.99  1566.52  1567.72  1573.27  1574.46
eigval :     1586.55  1588.82  1591.65  1594.16  1599.94  1610.12
eigval :     3031.10  3033.29  3046.07  3048.66  3054.67  3058.85
eigval :     3067.41  3070.31  3071.48  3072.12  3075.38  3077.25
eigval :     3081.19  3081.67  3084.81  3084.99  3085.99  3086.18
eigval :     3088.80  3090.32  3091.05  3093.32  3094.44  3096.70
eigval :     3096.88  3100.51  3100.97  3102.85  3108.03  3108.76
eigval :     3109.23  3109.66  3121.65

   temp. (K)  partition function   enthalpy   heat capacity  entropy
                                   cal/mol     cal/K/mol   cal/K/mol   J/K/mol
 298.15  VIB  0.875E+18            23448.089    150.925    145.261
         ROT  0.665E+08              888.752      2.981     38.778
         INT  0.582E+26            24336.842    153.905    184.038
         TR   0.158E+29             1481.254      4.968     45.248
         TOT                       25818.0957   158.8736   229.2867   959.3354

       T/K    H(0)-H(T)+PV         H(T)/Eh          T*S/Eh         G(T)/Eh
   ------------------------------------------------------------------------
    298.15    0.411438E-01    0.683009E+00    0.108941E+00    0.574068E+00
   ------------------------------------------------------------------------

         :::::::::::::::::::::::::::::::::::::::::::::::::::::
         ::                  THERMODYNAMIC                  ::
         :::::::::::::::::::::::::::::::::::::::::::::::::::::
         :: total free energy        -127.935873632911 Eh   ::
         ::.................................................::
         :: total energy             -128.509941287553 Eh   ::
         :: zero point energy           0.641865395295 Eh   ::
         :: G(RRHO) w/o ZPVE           -0.067797740653 Eh   ::
         :: G(RRHO) contrib.            0.574067654642 Eh   ::
         :::::::::::::::::::::::::::::::::::::::::::::::::::::

           -------------------------------------------------
          | TOTAL ENERGY             -128.509941287553 Eh   |
          | TOTAL ENTHALPY           -127.826932137826 Eh   |
          | TOTAL FREE ENERGY        -127.935873632911 Eh   |
          | GRADIENT NORM               0.000134414732 Eh/α |
           -------------------------------------------------

 * finished run on 2025/09/04 at 17:22:55.421
