   * xtb version 6.7.1 (edcfbbe) compiled by 'albert@albert-system' on 2024-07-22

   ID    Z sym.   atoms
    1    6 C      1-9, 11-28, 30-43, 45-50
    2    7 N      10
    3    8 O      29, 44
    4    1 H      51-83

          program call               : xtb data2507/gas/DpAn-BzAc/DpAn-BzAc.xyz --gfn 2 --ohess vtight --parallel 40 --molden --ceasefiles --namespace data2507/gas/DpAn-BzAc/DpAn-BzAc_gas_S0_preOpt
          :  Hamiltonian                  GFN2-xTB          :
 * total energy  :  -128.5560591 Eh     change       -0.5304628E-08 Eh
 * total energy  :  -128.5756403 Eh     change       -0.1958126E-01 Eh
 * total energy  :  -128.5835847 Eh     change       -0.7944392E-02 Eh
 * total energy  :  -128.5860522 Eh     change       -0.2467454E-02 Eh
 * total energy  :  -128.5872584 Eh     change       -0.1206285E-02 Eh
 * total energy  :  -128.5877887 Eh     change       -0.5302055E-03 Eh
 * total energy  :  -128.5880199 Eh     change       -0.2312461E-03 Eh
 * total energy  :  -128.5881436 Eh     change       -0.1237078E-03 Eh
 * total energy  :  -128.5882280 Eh     change       -0.8437664E-04 Eh
 * total energy  :  -128.5883122 Eh     change       -0.8422753E-04 Eh
 * total energy  :  -128.5889773 Eh     change       -0.3932010E-06 Eh
 * total energy  :  -128.5889777 Eh     change       -0.3394308E-06 Eh
 * total energy  :  -128.5889781 Eh     change       -0.4315666E-06 Eh
 * total energy  :  -128.5889786 Eh     change       -0.4885923E-06 Eh
 * total energy  :  -128.5889792 Eh     change       -0.6287931E-06 Eh
 * total energy  :  -128.5889799 Eh     change       -0.7224311E-06 Eh
 * total energy  :  -128.5889808 Eh     change       -0.8807822E-06 Eh
 * total energy  :  -128.5889819 Eh     change       -0.1056973E-05 Eh
 * total energy  :  -128.5889819 Eh     change       -0.4448736E-08 Eh
   *** GEOMETRY OPTIMIZATION CONVERGED AFTER 94 ITERATIONS ***

 final structure:
================
83
 xtb: 6.7.1 (edcfbbe)
C            6.40118752155614        0.86149610762886       -1.21575470853344
C            5.47940932071137        0.88492058969598        0.01748089664753
C            6.31600148838262        0.95445639047165        1.30837878007627
C            4.60456697813187        2.12306013959323       -0.05516781928509
C            5.19722998456790        3.37796972671800       -0.08372566524984
C            4.45199899950135        4.54170052202969       -0.13255101718501
C            3.07130280264604        4.46138041294525       -0.14558245510094
C            2.45581612423813        3.22796371736887       -0.11815935757789
C            3.20826425515612        2.05068193823424       -0.08234049596103
N            2.56078587698188        0.82716991835966       -0.06224580744487
C            1.14021088784710        0.78655808477374       -0.03335161375819
C            0.40706301329665        0.91519122702146       -1.20271676085649
C           -0.97383554692699        0.84440229884326       -1.16897377254949
C           -1.64703706160961        0.64699240164297        0.02970212444947
C           -3.17052290960395        0.50642242084656        0.08153362028468
C           -3.80766637992234        1.35055825493096        1.17634083519099
C           -3.17663801994115        2.45181338663276        1.73956721692084
C           -3.82183726611875        3.21864374327758        2.69546099798476
C           -5.10900232568153        2.90364842368799        3.09229572576777
C           -5.75523250029311        1.82250343212698        2.51666129433881
C           -5.11165106171016        1.05706444097975        1.56247981174786
C           -3.77731949471267        0.94875087107247       -1.23528272730798
C           -4.04225596562772        2.29380686831670       -1.46757293479499
C           -4.56298391186907        2.71895694531871       -2.67632640692601
C           -4.81693064540783        1.80786005891041       -3.69055661860451
C           -4.53821482151699        0.47381772705775       -3.48365097149835
C           -4.02116751146044        0.03635903188487       -2.26410386928466
C           -3.74020185249816       -1.40423230412931       -2.10323535956293
O           -3.67649593082227       -2.16492910216841       -3.05085185900339
C           -3.60929304259222       -1.86402463832727       -0.70731110984915
C           -3.74424993850853       -3.23015140958837       -0.45412154375712
C           -3.69349745873177       -3.71484990946617        0.83524931088021
C           -3.51018302412242       -2.82732033379885        1.88499438452191
C           -3.36714567706392       -1.47394180180815        1.64060056093644
C           -3.41107841400346       -0.96892398709973        0.34527305228649
C           -0.90041239902830        0.52071170463905        1.19723202345328
C            0.47718638535110        0.60014174251985        1.17197663034842
C            3.26352744606968       -0.36298426318879       -0.01707774235886
C            4.66045270828107       -0.39377595493461        0.03407672376258
C            5.32822963858112       -1.61899719270824        0.09090233566892
C            4.67598827480775       -2.83210459849394        0.09250977781870
C            3.28937861966235       -2.81930334082345        0.02050256976435
C            2.60274851910847       -1.59711872281272       -0.03810526831128
O            1.24858313716164       -1.79328508198625       -0.12189263801442
C            1.05457398484870       -3.13672994340901       -0.11494368234866
C           -0.16409405537056       -3.78648537339620       -0.18421030804509
C           -0.14322231617656       -5.16891678143006       -0.15801290517721
C            1.05315869429815       -5.87659669993966       -0.06680451227229
C            2.26897787752079       -5.22451629610813       -0.00043703751343
C            2.27263052832193       -3.83606417315017       -0.02455400647531
H            7.06212606059334       -0.00020280896886       -1.19262682004415
H            5.80202883430043        0.81011708659798       -2.12279617000951
H            7.01329041170256        1.75790975665042       -1.25940893970163
H            6.92778456606412        1.85203957559602        1.32560497747066
H            6.97274568361024        0.09340533177573        1.39390819538773
H            5.65738799625956        0.97132451354448        2.17467716173450
H            6.27365988616592        3.45763929700734       -0.06532920575936
H            4.94642948477406        5.50082138361648       -0.15527735988446
H            2.47045509268584        5.35818836488794       -0.17575674979690
H            1.37816042489245        3.16851424846261       -0.12356594002822
H            0.92104260176838        1.06127643544884       -2.14114054968896
H           -1.52016890220563        0.93894342148433       -2.09472004093841
H           -2.17637717373308        2.71953769988860        1.43153941174928
H           -3.31444356459667        4.06901251640867        3.12713399386785
H           -5.60930115569477        3.50145363173231        3.83943927308284
H           -6.76534131113948        1.57623480787929        2.80883892393689
H           -5.62417415055157        0.21956675776976        1.11058470839061
H           -3.84058148366701        3.01938285833764       -0.69396950734090
H           -4.76829449718976        3.76841623315754       -2.82790009698756
H           -5.22180940312471        2.14120367393662       -4.63413693593800
H           -4.70879198062255       -0.26331142303780       -4.25429022035271
H           -3.89193503273902       -3.88740956468198       -1.29843026289580
H           -3.79869613558487       -4.77177851893422        1.02745874172484
H           -3.47914154380920       -3.19116974939368        2.90134737293042
H           -3.24276621904972       -0.80084919308239        2.47550133639196
H           -1.39554590640267        0.36309435733313        2.14248273774318
H            1.04709308592038        0.49916905530625        2.08396414849410
H            6.40615459983632       -1.62099831660360        0.13594078753759
H            5.22017251327584       -3.76147973081629        0.14019906142451
H           -1.08338546496524       -3.22914655530436       -0.25844167823245
H           -1.07587601639075       -5.70969657363158       -0.21228784197997
H            1.02611472026470       -6.95606135728617       -0.04997109731521
H            3.19488244365057       -5.77490083380060        0.06782588674667

          :  Hamiltonian                  GFN2-xTB          :
         :: gradient norm              0.000049308347 Eh/a0 ::
         :: HOMO-LUMO gap              1.445373879653 eV    ::
         :: SCC energy              -130.890080410852 Eh    ::
         :: -> dispersion             -0.128882002075 Eh    ::
         :: repulsion energy           2.301098537566 Eh    ::

    * Orbital Energies and Occupations

         #    Occupation            Energy/Eh            Energy/eV
      -------------------------------------------------------------
         1        2.0000           -0.7289200             -19.8349
       ...           ...                  ...                  ...
       107        2.0000           -0.4140271             -11.2663
       108        2.0000           -0.4126962             -11.2300
       109        2.0000           -0.4114160             -11.1952
       110        2.0000           -0.4094539             -11.1418
       111        2.0000           -0.4063433             -11.0572
       112        2.0000           -0.4054361             -11.0325
       113        2.0000           -0.4025362             -10.9536
       114        2.0000           -0.3982673             -10.8374
       115        2.0000           -0.3937127             -10.7135
       116        2.0000           -0.3868264             -10.5261
       117        2.0000           -0.3835744             -10.4376
       118        2.0000           -0.3785862             -10.3019
       119        2.0000           -0.3426582              -9.3242 (HOMO)
       120                         -0.2895418              -7.8788 (LUMO)
       121                         -0.2452010              -6.6723
       122                         -0.2436871              -6.6311
       123                         -0.2374724              -6.4620
       124                         -0.2339264              -6.3655
       125                         -0.2334243              -6.3518
       126                         -0.2313662              -6.2958
       127                         -0.2283260              -6.2131
       128                         -0.2260592              -6.1514
       129                         -0.2243110              -6.1038
       130                         -0.2166176              -5.8945
       ...                                ...                  ...
       233                          0.7481793              20.3590
      -------------------------------------------------------------
                  HL-Gap            0.0531164 Eh            1.4454 eV

     #   Z          covCN         q      C6AA      α(0)
     1   6 C        3.761    -0.105    22.545     6.769
     2   6 C        3.909     0.023    20.134     6.378
     3   6 C        3.761    -0.104    22.539     6.768
     4   6 C        2.979    -0.014    28.361     8.736
     5   6 C        2.928    -0.036    28.896     8.816
     6   6 C        2.917    -0.045    29.117     8.849
     7   6 C        2.920    -0.033    28.819     8.803
     8   6 C        2.924    -0.058    29.446     8.899
     9   6 C        2.929     0.058    26.694     8.473
    10   7 N        2.753    -0.064    22.487     7.043
    11   6 C        2.929     0.074    26.348     8.418
    12   6 C        2.922    -0.033    28.833     8.806
    13   6 C        2.924    -0.034    28.841     8.807
    14   6 C        2.984     0.016    27.655     8.626
    15   6 C        3.920     0.009    20.372     6.415
    16   6 C        2.980     0.014    27.699     8.633
    17   6 C        2.923    -0.036    28.888     8.814
    18   6 C        2.920    -0.030    28.752     8.793
    19   6 C        2.920    -0.031    28.775     8.797
    20   6 C        2.919    -0.029    28.727     8.789
    21   6 C        2.925    -0.033    28.825     8.805
    22   6 C        2.983     0.016    27.654     8.626
    23   6 C        2.923    -0.035    28.871     8.811
    24   6 C        2.920    -0.024    28.597     8.769
    25   6 C        2.917    -0.030    28.746     8.792
    26   6 C        2.926    -0.020    28.500     8.755
    27   6 C        2.979    -0.020    28.499     8.757
    28   6 C        2.833     0.225    23.266     7.904
    29   8 O        0.858    -0.381    21.309     6.189
    30   6 C        2.979    -0.021    28.529     8.762
    31   6 C        2.926    -0.019    28.479     8.752
    32   6 C        2.917    -0.029    28.727     8.789
    33   6 C        2.920    -0.023    28.590     8.768
    34   6 C        2.923    -0.032    28.808     8.802
    35   6 C        2.987     0.017    27.623     8.621
    36   6 C        2.925    -0.032    28.786     8.799
    37   6 C        2.921    -0.034    28.838     8.806
    38   6 C        2.920     0.041    27.089     8.535
    39   6 C        2.983    -0.020    28.494     8.756
    40   6 C        2.928    -0.046    29.135     8.852
    41   6 C        2.910    -0.051    29.255     8.869
    42   6 C        3.059    -0.023    28.517     8.757
    43   6 C        3.091     0.103    25.618     8.296
    44   8 O        1.715    -0.238    17.936     5.718
    45   6 C        3.096     0.129    25.060     8.204
    46   6 C        2.908    -0.053    29.313     8.878
    47   6 C        2.927    -0.032    28.803     8.801
    48   6 C        2.921    -0.039    28.982     8.828
    49   6 C        2.913    -0.034    28.855     8.808
    50   6 C        3.056    -0.020    28.445     8.747
    51   1 H        0.925     0.040     2.448     2.447
    52   1 H        0.925     0.033     2.551     2.498
    53   1 H        0.925     0.041     2.441     2.443
    54   1 H        0.925     0.041     2.442     2.444
    55   1 H        0.925     0.040     2.448     2.447
    56   1 H        0.925     0.032     2.564     2.504
    57   1 H        0.926     0.030     2.585     2.514
    58   1 H        0.926     0.026     2.642     2.542
    59   1 H        0.926     0.027     2.632     2.537
    60   1 H        0.926     0.023     2.688     2.564
    61   1 H        0.926     0.043     2.403     2.424
    62   1 H        0.926     0.038     2.480     2.463
    63   1 H        0.926     0.032     2.558     2.501
    64   1 H        0.926     0.032     2.554     2.499
    65   1 H        0.926     0.033     2.550     2.497
    66   1 H        0.926     0.033     2.551     2.498
    67   1 H        0.926     0.028     2.620     2.531
    68   1 H        0.926     0.037     2.494     2.470
    69   1 H        0.926     0.038     2.476     2.461
    70   1 H        0.926     0.039     2.456     2.451
    71   1 H        0.926     0.060     2.194     2.316
    72   1 H        0.926     0.060     2.194     2.316
    73   1 H        0.926     0.039     2.464     2.455
    74   1 H        0.926     0.038     2.477     2.461
    75   1 H        0.926     0.035     2.517     2.481
    76   1 H        0.926     0.041     2.438     2.442
    77   1 H        0.926     0.040     2.446     2.446
    78   1 H        0.926     0.036     2.499     2.472
    79   1 H        0.926     0.034     2.531     2.488
    80   1 H        0.926     0.040     2.451     2.448
    81   1 H        0.926     0.037     2.484     2.465
    82   1 H        0.926     0.035     2.515     2.480
    83   1 H        0.926     0.037     2.491     2.468

molecular dipole:
                 x           y           z       tot (Debye)
 q only:       -0.126       0.736       1.070
   full:       -0.245       0.833       1.191       3.746

 projected vibrational frequencies (cm⁻¹)
eigval :       -0.00     0.00     0.00     0.00     0.00     0.00
eigval :        4.71    11.84    17.04    27.74    34.66    40.27
eigval :       44.43    46.07    55.07    67.23    69.22    82.19
eigval :       88.38   108.15   111.98   116.63   123.12   129.09
eigval :      133.67   150.47   172.46   186.81   189.20   211.50
eigval :      227.93   230.16   240.82   244.48   252.03   258.78
eigval :      266.20   280.26   291.98   306.39   308.97   312.03
eigval :      315.51   339.51   352.84   370.20   373.77   383.20
eigval :      389.44   391.36   394.32   402.81   406.55   408.74
eigval :      435.25   437.42   472.83   473.43   475.34   482.94
eigval :      500.41   513.77   515.91   527.24   531.26   541.31
eigval :      552.17   554.83   568.97   588.92   591.67   599.49
eigval :      602.72   610.17   620.26   622.92   626.02   632.80
eigval :      652.54   662.49   678.94   680.57   687.58   689.55
eigval :      693.84   706.31   710.33   712.30   740.07   747.06
eigval :      759.17   777.24   777.51   778.00   790.81   798.24
eigval :      802.66   820.97   821.22   853.49   865.29   868.31
eigval :      871.89   882.57   885.62   892.44   893.53   896.47
eigval :      902.55   905.99   908.57   911.40   913.27   913.31
eigval :      916.64   920.64   922.40   923.44   924.49   928.25
eigval :      932.34   933.36   935.13   937.90   941.18   947.42
eigval :      953.01   956.64   987.81   995.00  1014.21  1024.03
eigval :     1062.25  1081.50  1088.44  1094.93  1096.98  1098.81
eigval :     1103.49  1112.03  1115.71  1127.36  1129.26  1144.22
eigval :     1151.49  1160.26  1168.59  1173.28  1176.62  1178.95
eigval :     1182.05  1183.08  1185.87  1186.50  1189.80  1196.34
eigval :     1204.51  1211.04  1216.02  1222.67  1224.39  1235.36
eigval :     1244.26  1253.28  1254.09  1256.45  1261.95  1270.45
eigval :     1276.63  1288.29  1290.61  1297.72  1312.15  1320.22
eigval :     1325.22  1329.96  1330.65  1331.13  1346.72  1350.72
eigval :     1363.39  1399.84  1402.43  1403.44  1420.82  1424.48
eigval :     1427.04  1428.30  1433.87  1441.02  1458.54  1467.07
eigval :     1473.33  1475.27  1483.61  1488.79  1489.68  1490.44
eigval :     1500.12  1504.16  1504.88  1568.83  1570.30  1572.04
eigval :     1581.22  1581.49  1588.13  1588.73  1589.85  1591.72
eigval :     1596.80  1597.79  1600.48  1602.12  1614.37  1691.22
eigval :     3028.09  3030.58  3041.12  3043.84  3049.96  3053.97
eigval :     3073.33  3075.41  3077.46  3079.42  3079.82  3080.51
eigval :     3082.49  3082.74  3084.15  3086.67  3087.77  3088.10
eigval :     3088.23  3089.80  3091.74  3092.36  3093.28  3095.03
eigval :     3095.74  3097.35  3098.50  3099.18  3099.25  3102.75
eigval :     3105.28  3105.88  3119.27

   temp. (K)  partition function   enthalpy   heat capacity  entropy
                                   cal/mol     cal/K/mol   cal/K/mol   J/K/mol
 298.15  VIB  0.717E+18            23302.547    149.523    144.381
         ROT  0.669E+08              888.752      2.981     38.790
         INT  0.480E+26            24191.300    152.504    183.171
         TR   0.158E+29             1481.254      4.968     45.248
         TOT                       25672.5538   157.4725   228.4188   955.7042

       T/K    H(0)-H(T)+PV         H(T)/Eh          T*S/Eh         G(T)/Eh
   ------------------------------------------------------------------------
    298.15    0.409118E-01    0.685978E+00    0.108529E+00    0.577449E+00
   ------------------------------------------------------------------------

         :::::::::::::::::::::::::::::::::::::::::::::::::::::
         ::                  THERMODYNAMIC                  ::
         :::::::::::::::::::::::::::::::::::::::::::::::::::::
         :: total free energy        -128.011533156312 Eh   ::
         ::.................................................::
         :: total energy             -128.588981873283 Eh   ::
         :: zero point energy           0.645066037966 Eh   ::
         :: G(RRHO) w/o ZPVE           -0.067617320994 Eh   ::
         :: G(RRHO) contrib.            0.577448716972 Eh   ::
         :::::::::::::::::::::::::::::::::::::::::::::::::::::

           -------------------------------------------------
          | TOTAL ENERGY             -128.588981873283 Eh   |
          | TOTAL ENTHALPY           -127.903004016742 Eh   |
          | TOTAL FREE ENERGY        -128.011533156312 Eh   |
          | GRADIENT NORM               0.000049300472 Eh/α |
          | HOMO-LUMO GAP               1.445371922839 eV   |
           -------------------------------------------------

 * finished run on 2025/09/04 at 17:17:54.898
