   * xtb version 6.7.1 (edcfbbe) compiled by 'albert@albert-system' on 2024-07-22

   ID    Z sym.   atoms
    1    6 C      1-9, 11-28, 30-43, 45-50
    2    7 N      10
    3    8 O      29, 44
    4    1 H      51-83

          program call               : xtb data2507/gas/DpAn-BzAc/DpAn-BzAc_gas_S0_crest.xyz --gfn 2 --ohess vtight --parallel 40 --molden --ceasefiles --namespace data2507/gas/DpAn-BzAc/DpAn-BzAc_gas_S0_finalOpt
          :  Hamiltonian                  GFN2-xTB          :
 * total energy  :  -128.5889899 Eh     change       -0.4074110E-08 Eh
 * total energy  :  -128.5889910 Eh     change       -0.1096987E-05 Eh
 * total energy  :  -128.5889921 Eh     change       -0.1148697E-05 Eh
 * total energy  :  -128.5889946 Eh     change       -0.2515718E-05 Eh
 * total energy  :  -128.5889955 Eh     change       -0.8997973E-06 Eh
 * total energy  :  -128.5889965 Eh     change       -0.9944776E-06 Eh
 * total energy  :  -128.5889978 Eh     change       -0.1327279E-05 Eh
 * total energy  :  -128.5889989 Eh     change       -0.1083228E-05 Eh
 * total energy  :  -128.5889997 Eh     change       -0.7425091E-06 Eh
 * total energy  :  -128.5890003 Eh     change       -0.6293193E-06 Eh
 * total energy  :  -128.5890025 Eh     change       -0.4659838E-06 Eh
 * total energy  :  -128.5890029 Eh     change       -0.4326323E-06 Eh
 * total energy  :  -128.5890034 Eh     change       -0.4329380E-06 Eh
 * total energy  :  -128.5890038 Eh     change       -0.4710704E-06 Eh
 * total energy  :  -128.5890043 Eh     change       -0.5004322E-06 Eh
 * total energy  :  -128.5890049 Eh     change       -0.5203577E-06 Eh
 * total energy  :  -128.5890054 Eh     change       -0.5285056E-06 Eh
 * total energy  :  -128.5890059 Eh     change       -0.5209198E-06 Eh
 * total energy  :  -128.5890059 Eh     change       -0.3652360E-08 Eh
   *** GEOMETRY OPTIMIZATION CONVERGED AFTER 22 ITERATIONS ***

 final structure:
================
83
 xtb: 6.7.1 (edcfbbe)
C            6.58981990269359        0.97094308142889       -1.21825149920230
C            5.64565179575360        1.07061659028512       -0.00600282970393
C            6.45806330203244        1.23557728675310        1.29175357968964
C            4.76279345511657        2.29328606704962       -0.17652452435357
C            5.34741474133549        3.54768253174467       -0.28464028727063
C            4.59523731735229        4.70027185002225       -0.41725019878679
C            3.21526940582620        4.60938010310500       -0.43331865895150
C            2.60777965692938        3.37619927095144       -0.32800242026734
C            3.36724050379824        2.20870063933297       -0.21046230211263
N            2.72836680022548        0.98367305608956       -0.11656241200677
C            1.30958638433874        0.93616535547705       -0.05495222931299
C            0.54668112957859        1.02691083318995       -1.20862704452588
C           -0.83318226757149        0.95523152447820       -1.13818749869666
C           -1.47443115207580        0.78966246712162        0.08218228888224
C           -2.99684416128522        0.66612998920687        0.19346968589918
C           -3.59580025786919        1.70990122017568        1.12417657722888
C           -2.90374973290048        2.83995296711832        1.53656460751510
C           -3.51489180818936        3.77825227374677        2.35207845017389
C           -4.82583265838888        3.60460344378754        2.75744676849815
C           -5.53019274793526        2.48974766971570        2.33326523827824
C           -4.92118894299248        1.55365596548423        1.51940956622175
C           -3.63155047414836        0.83657488494186       -1.17172258445616
C           -3.99816311585669        2.09563679073683       -1.63235590042399
C           -4.53477499542898        2.26054338475281       -2.89700896994914
C           -4.69870643649416        1.17033717492079       -3.73809122166849
C           -4.31974364099874       -0.08219277390217       -3.30276980904356
C           -3.79043452436333       -0.25774453713985       -2.02498726635635
C           -3.41611662838487       -1.62164968902397       -1.60026711182286
O           -3.23983100096902       -2.52935129955983       -2.39047870989317
C           -3.35138798420792       -1.81434690421093       -0.13803558422210
C           -3.46251003829872       -3.11287683223279        0.35989976852545
C           -3.47033010065545       -3.34500257742236        1.71879087765008
C           -3.38011194732046       -2.27006061096888        2.58968573851581
C           -3.26123671461540       -0.98063552692075        2.10286214906851
C           -3.23706424197525       -0.73135490702000        0.73533036846676
C           -0.69839968478622        0.70410891808976        1.23433092430859
C            0.67740747354158        0.78634770087043        1.17226810790637
C            3.44019627350762       -0.19553755515702        0.01231354480219
C            4.83635523837028       -0.21107602967211        0.08340319866310
C            5.51294591624800       -1.42419174473465        0.22824322715602
C            4.87004767112090       -2.64021072669710        0.29719381877937
C            3.48489556848019       -2.64425658280239        0.20084829652268
C            2.78926885831949       -1.43447510823764        0.05514745127216
O            1.43882226697908       -1.64824657767741       -0.04194859203874
C            1.25579610139276       -2.99120217462715        0.04346824104892
C            0.04492829918534       -3.65718935099057       -0.00899202053619
C            0.07832687012127       -5.03502476395805        0.10322771848220
C            1.27909641232066       -5.72348161687100        0.26036261716220
C            2.48713915452368       -5.05584053271613        0.30892330754792
C            2.47792397389344       -3.67147468560161        0.19972203802453
H            7.26012383920671        0.12166387492872       -1.12198153840309
H            6.00776776650198        0.84717126534747       -2.12941619428108
H            7.19258171864909        1.86941719597444       -1.31565495029153
H            7.06416829509721        2.13655385676538        1.25733168264114
H            7.11786510597645        0.38699104727090        1.44878298508906
H            5.78356928333179        1.30809752207105        2.14286227937078
H            6.42307917458911        3.63608127889360       -0.26188376504663
H            5.08351940776153        5.65918988166271       -0.50063457378635
H            2.60856035553282        5.49793101871095       -0.52607696079709
H            1.53060497176971        3.31019637580409       -0.33467597267899
H            1.03617168540544        1.14630489849796       -2.16377125492630
H           -1.40255616275032        1.02506854009148       -2.05210656338348
H           -1.88339314852100        2.99652902885930        1.21906356409912
H           -2.96131634546631        4.65064509191722        2.66722890039884
H           -5.29936061729279        4.33653519316060        3.39461490300285
H           -6.55780139306752        2.35062085837927        2.63497642439773
H           -5.47571780860983        0.68818252041633        1.18472626756794
H           -3.86306943321117        2.95782217898276       -0.99645843188181
H           -4.82177043892514        3.24749932716299       -3.22875022367648
H           -5.11323301367903        1.30216629918521       -4.72612375270328
H           -4.42182672063581       -0.95242680561314       -3.93404219752761
H           -3.54638458767792       -3.92211277577585       -0.35078699807742
H           -3.55240226743852       -4.35104136583765        2.10114816406799
H           -3.40209696291356       -2.43578671401953        3.65675875017316
H           -3.20741767167250       -0.15791569805447        2.80081874469749
H           -1.17134703466224        0.57514359182281        2.19518889594877
H            1.27040122655842        0.71697020627467        2.07246496768238
H            6.58997601369599       -1.41373477860993        0.29031503813789
H            5.42037655587719       -3.55995757278340        0.41291928373986
H           -0.87828058496169       -3.11659062276585       -0.13690642479882
H           -0.84776178192885       -5.58819157147093        0.06459853461634
H            1.26171589263057       -6.80014210996052        0.34301740608193
H            3.41696100805753       -5.59088546712135        0.42779011976021

          :  Hamiltonian                  GFN2-xTB          :
         :: gradient norm              0.000045864025 Eh/a0 ::
         :: HOMO-LUMO gap              1.433477881872 eV    ::
         :: SCC energy              -130.890259315966 Eh    ::
         :: -> dispersion             -0.128832589247 Eh    ::
         :: repulsion energy           2.301253398780 Eh    ::

    * Orbital Energies and Occupations

         #    Occupation            Energy/Eh            Energy/eV
      -------------------------------------------------------------
         1        2.0000           -0.7276368             -19.8000
       ...           ...                  ...                  ...
       107        2.0000           -0.4129432             -11.2368
       108        2.0000           -0.4124659             -11.2238
       109        2.0000           -0.4111390             -11.1877
       110        2.0000           -0.4091372             -11.1332
       111        2.0000           -0.4059787             -11.0472
       112        2.0000           -0.4053464             -11.0300
       113        2.0000           -0.4026906             -10.9578
       114        2.0000           -0.3979927             -10.8299
       115        2.0000           -0.3932916             -10.7020
       116        2.0000           -0.3856604             -10.4944
       117        2.0000           -0.3838573             -10.4453
       118        2.0000           -0.3774246             -10.2702
       119        2.0000           -0.3421581              -9.3106 (HOMO)
       120                         -0.2894788              -7.8771 (LUMO)
       121                         -0.2440457              -6.6408
       122                         -0.2423645              -6.5951
       123                         -0.2370226              -6.4497
       124                         -0.2345111              -6.3814
       125                         -0.2329043              -6.3376
       126                         -0.2314991              -6.2994
       127                         -0.2284114              -6.2154
       128                         -0.2265989              -6.1661
       129                         -0.2234217              -6.0796
       130                         -0.2162568              -5.8846
       ...                                ...                  ...
       233                          0.7492687              20.3886
      -------------------------------------------------------------
                  HL-Gap            0.0526793 Eh            1.4335 eV

     #   Z          covCN         q      C6AA      α(0)
     1   6 C        3.761    -0.105    22.546     6.769
     2   6 C        3.909     0.023    20.134     6.378
     3   6 C        3.761    -0.104    22.536     6.767
     4   6 C        2.979    -0.014    28.360     8.735
     5   6 C        2.928    -0.036    28.897     8.816
     6   6 C        2.917    -0.045    29.118     8.849
     7   6 C        2.920    -0.033    28.821     8.804
     8   6 C        2.924    -0.058    29.450     8.899
     9   6 C        2.929     0.058    26.693     8.473
    10   7 N        2.753    -0.065    22.489     7.043
    11   6 C        2.929     0.074    26.344     8.417
    12   6 C        2.922    -0.034    28.836     8.806
    13   6 C        2.923    -0.034    28.840     8.807
    14   6 C        2.983     0.015    27.659     8.627
    15   6 C        3.921     0.008    20.376     6.415
    16   6 C        2.979     0.014    27.701     8.633
    17   6 C        2.922    -0.036    28.892     8.815
    18   6 C        2.920    -0.030    28.746     8.792
    19   6 C        2.920    -0.031    28.777     8.797
    20   6 C        2.919    -0.029    28.729     8.790
    21   6 C        2.926    -0.033    28.815     8.803
    22   6 C        2.982     0.016    27.658     8.627
    23   6 C        2.922    -0.034    28.858     8.809
    24   6 C        2.920    -0.024    28.604     8.770
    25   6 C        2.917    -0.030    28.748     8.792
    26   6 C        2.925    -0.020    28.495     8.754
    27   6 C        2.980    -0.020    28.496     8.756
    28   6 C        2.832     0.226    23.253     7.902
    29   8 O        0.858    -0.380    21.280     6.185
    30   6 C        2.980    -0.021    28.532     8.762
    31   6 C        2.926    -0.019    28.471     8.750
    32   6 C        2.917    -0.030    28.738     8.791
    33   6 C        2.920    -0.024    28.597     8.769
    34   6 C        2.922    -0.033    28.814     8.803
    35   6 C        2.987     0.017    27.632     8.623
    36   6 C        2.925    -0.032    28.794     8.800
    37   6 C        2.922    -0.034    28.836     8.806
    38   6 C        2.920     0.040    27.094     8.536
    39   6 C        2.983    -0.020    28.497     8.757
    40   6 C        2.928    -0.046    29.138     8.852
    41   6 C        2.910    -0.051    29.254     8.869
    42   6 C        3.059    -0.023    28.518     8.758
    43   6 C        3.090     0.103    25.615     8.296
    44   8 O        1.715    -0.238    17.940     5.719
    45   6 C        3.096     0.129    25.065     8.205
    46   6 C        2.909    -0.052    29.293     8.875
    47   6 C        2.927    -0.032    28.789     8.799
    48   6 C        2.921    -0.040    28.984     8.829
    49   6 C        2.913    -0.035    28.860     8.809
    50   6 C        3.056    -0.020    28.451     8.747
    51   1 H        0.925     0.040     2.448     2.447
    52   1 H        0.925     0.033     2.550     2.497
    53   1 H        0.925     0.040     2.443     2.444
    54   1 H        0.925     0.040     2.443     2.444
    55   1 H        0.925     0.040     2.449     2.447
    56   1 H        0.925     0.031     2.566     2.505
    57   1 H        0.926     0.030     2.586     2.515
    58   1 H        0.926     0.026     2.644     2.543
    59   1 H        0.926     0.027     2.634     2.538
    60   1 H        0.926     0.023     2.687     2.563
    61   1 H        0.926     0.044     2.397     2.421
    62   1 H        0.926     0.038     2.478     2.461
    63   1 H        0.926     0.031     2.565     2.505
    64   1 H        0.926     0.032     2.553     2.499
    65   1 H        0.926     0.032     2.551     2.498
    66   1 H        0.926     0.032     2.553     2.498
    67   1 H        0.926     0.028     2.621     2.532
    68   1 H        0.926     0.036     2.502     2.474
    69   1 H        0.926     0.038     2.476     2.461
    70   1 H        0.926     0.039     2.456     2.451
    71   1 H        0.926     0.059     2.206     2.323
    72   1 H        0.926     0.059     2.207     2.323
    73   1 H        0.926     0.039     2.458     2.452
    74   1 H        0.926     0.038     2.478     2.462
    75   1 H        0.926     0.035     2.517     2.481
    76   1 H        0.926     0.041     2.440     2.443
    77   1 H        0.926     0.040     2.454     2.450
    78   1 H        0.926     0.036     2.502     2.474
    79   1 H        0.926     0.034     2.533     2.489
    80   1 H        0.926     0.043     2.409     2.427
    81   1 H        0.926     0.039     2.467     2.456
    82   1 H        0.926     0.035     2.521     2.483
    83   1 H        0.926     0.036     2.499     2.472

molecular dipole:
                 x           y           z       tot (Debye)
 q only:       -0.267       0.866       0.914
   full:       -0.396       0.982       1.018       3.735

 projected vibrational frequencies (cm⁻¹)
eigval :       -0.00    -0.00    -0.00    -0.00     0.00     0.00
eigval :       -3.21    10.69    21.84    27.83    35.75    38.05
eigval :       44.73    45.43    54.76    63.63    66.75    77.65
eigval :       87.22   108.08   112.37   117.06   122.96   129.70
eigval :      137.72   151.40   168.19   186.69   188.71   210.57
eigval :      227.80   230.44   241.06   245.13   251.51   256.93
eigval :      266.91   280.54   291.64   306.82   308.21   310.10
eigval :      315.26   339.60   351.33   369.04   374.15   378.90
eigval :      389.26   392.06   396.26   402.72   406.77   409.77
eigval :      437.00   437.31   472.91   473.59   476.21   484.52
eigval :      501.25   512.77   515.76   526.73   531.22   541.00
eigval :      552.33   554.84   568.98   588.96   591.95   599.15
eigval :      602.09   610.98   619.73   623.01   626.63   632.04
eigval :      654.28   662.91   678.01   680.63   689.12   689.62
eigval :      694.40   705.14   710.31   712.40   740.96   746.87
eigval :      758.21   776.65   777.25   778.90   790.43   798.68
eigval :      802.38   820.53   821.12   853.13   865.32   868.24
eigval :      870.51   881.43   885.60   892.84   895.17   897.24
eigval :      901.99   905.86   907.54   911.65   912.89   913.36
eigval :      916.55   920.64   922.24   923.79   924.87   927.70
eigval :      932.51   933.19   934.54   935.96   939.54   947.19
eigval :      953.02   956.64   987.82   995.27  1014.23  1024.24
eigval :     1062.26  1081.48  1088.10  1094.70  1096.14  1098.85
eigval :     1102.89  1112.27  1115.10  1127.13  1129.43  1144.72
eigval :     1151.90  1160.20  1168.76  1173.33  1176.68  1179.12
eigval :     1181.90  1182.98  1186.00  1186.68  1189.94  1196.94
eigval :     1204.05  1211.25  1215.86  1222.21  1223.79  1237.80
eigval :     1244.23  1252.91  1254.52  1256.60  1261.19  1268.54
eigval :     1276.90  1287.95  1290.76  1297.65  1313.03  1319.93
eigval :     1323.86  1329.68  1330.59  1330.81  1346.57  1350.59
eigval :     1363.26  1399.63  1402.48  1403.89  1420.83  1425.45
eigval :     1427.67  1428.34  1434.00  1440.93  1457.19  1466.73
eigval :     1473.36  1475.39  1483.48  1488.57  1489.72  1490.48
eigval :     1500.18  1504.00  1504.77  1569.59  1570.30  1572.02
eigval :     1581.32  1581.59  1587.79  1588.93  1589.72  1591.55
eigval :     1596.70  1597.82  1600.60  1602.36  1614.48  1694.67
eigval :     3027.82  3030.67  3040.99  3043.84  3049.80  3054.03
eigval :     3072.22  3076.24  3076.56  3077.39  3079.65  3080.17
eigval :     3082.50  3083.25  3083.89  3084.48  3087.64  3088.20
eigval :     3089.18  3089.87  3090.07  3091.64  3093.61  3094.32
eigval :     3095.89  3097.18  3098.02  3098.99  3099.67  3103.23
eigval :     3105.68  3106.55  3120.34

   temp. (K)  partition function   enthalpy   heat capacity  entropy
                                   cal/mol     cal/K/mol   cal/K/mol   J/K/mol
 298.15  VIB  0.107E+19            23318.913    149.433    144.850
         ROT  0.665E+08              888.752      2.981     38.778
         INT  0.715E+26            24207.665    152.414    183.628
         TR   0.158E+29             1481.254      4.968     45.248
         TOT                       25688.9189   157.3822   228.8764   957.6187

       T/K    H(0)-H(T)+PV         H(T)/Eh          T*S/Eh         G(T)/Eh
   ------------------------------------------------------------------------
    298.15    0.409379E-01    0.685951E+00    0.108747E+00    0.577204E+00
   ------------------------------------------------------------------------

         :::::::::::::::::::::::::::::::::::::::::::::::::::::
         ::                  THERMODYNAMIC                  ::
         :::::::::::::::::::::::::::::::::::::::::::::::::::::
         :: total free energy        -128.011801943900 Eh   ::
         ::.................................................::
         :: total energy             -128.589005917185 Eh   ::
         :: zero point energy           0.645012616962 Eh   ::
         :: G(RRHO) w/o ZPVE           -0.067808643676 Eh   ::
         :: G(RRHO) contrib.            0.577203973286 Eh   ::
         :::::::::::::::::::::::::::::::::::::::::::::::::::::

           -------------------------------------------------
          | TOTAL ENERGY             -128.589005917185 Eh   |
          | TOTAL ENTHALPY           -127.903055402148 Eh   |
          | TOTAL FREE ENERGY        -128.011801943900 Eh   |
          | GRADIENT NORM               0.000045863921 Eh/α |
          | HOMO-LUMO GAP               1.433477973083 eV   |
           -------------------------------------------------

 * finished run on 2025/09/04 at 17:22:43.622
