   * xtb version 6.7.1 (edcfbbe) compiled by 'albert@albert-system' on 2024-07-22

   ID    Z sym.   atoms
    1    6 C      1-9, 11-28, 30-43, 45-50
    2    7 N      10
    3    8 O      29, 44
    4    1 H      51-83

          program call               : xtb data2507/gas/DpAn-BzAc/DpAn-BzAc_gas_T1_crest.xyz --gfn 2 --spinpol --tblite --uhf 2 --ohess vtight --parallel 40 --molden --ceasefiles --namespace data2507/gas/DpAn-BzAc/DpAn-BzAc_gas_T1_finalOpt
 * total energy  :  -128.5101029 Eh     change       -0.2122459E-07 Eh
 * total energy  :  -128.5101468 Eh     change       -0.4389549E-04 Eh
 * total energy  :  -128.5101604 Eh     change       -0.1357407E-04 Eh
 * total energy  :  -128.5101623 Eh     change       -0.1926817E-05 Eh
 * total energy  :  -128.5101638 Eh     change       -0.1539863E-05 Eh
 * total energy  :  -128.5101656 Eh     change       -0.1787320E-05 Eh
 * total energy  :  -128.5101685 Eh     change       -0.2834289E-05 Eh
 * total energy  :  -128.5101703 Eh     change       -0.1856759E-05 Eh
 * total energy  :  -128.5101713 Eh     change       -0.9852752E-06 Eh
 * total energy  :  -128.5101724 Eh     change       -0.1068176E-05 Eh
 * total energy  :  -128.5101855 Eh     change       -0.1629423E-05 Eh
 * total energy  :  -128.5101869 Eh     change       -0.1348663E-05 Eh
 * total energy  :  -128.5101877 Eh     change       -0.8039693E-06 Eh
 * total energy  :  -128.5101880 Eh     change       -0.3155316E-06 Eh
 * total energy  :  -128.5101884 Eh     change       -0.4344516E-06 Eh
 * total energy  :  -128.5101887 Eh     change       -0.2269667E-06 Eh
 * total energy  :  -128.5101889 Eh     change       -0.2513365E-06 Eh
 * total energy  :  -128.5101890 Eh     change       -0.1208693E-06 Eh
 * total energy  :  -128.5101890 Eh     change       -0.1949314E-07 Eh
   *** GEOMETRY OPTIMIZATION CONVERGED AFTER 27 ITERATIONS ***

 final structure:
================
83
 xtb: 6.7.1 (edcfbbe)
C            6.53647696471977        1.05671569110140       -1.27532614636624
C            5.62486144326952        1.10374884963469       -0.03431160909216
C            6.47290531655628        1.22338255374855        1.24631436193330
C            4.73501692593879        2.32594440224026       -0.13627073271455
C            5.30622599117430        3.58895256561829       -0.21035596446937
C            4.53884973436592        4.73591259098266       -0.29839838735892
C            3.15736284047627        4.63333539837124       -0.31222799467094
C            2.56223916925503        3.39373675838687       -0.23953337984676
C            3.33729803763229        2.23053265737287       -0.15285269658381
N            2.71107535793764        1.00286915738719       -0.08343094764571
C            1.28642964930975        0.95230138589632       -0.05125687382213
C            0.55966433809555        0.89201438282793       -1.22925572752993
C           -0.82119710139142        0.82446892659798       -1.18542264342700
C           -1.49691581418475        0.81579877707607        0.02834585176287
C           -3.02174562423395        0.70928357130653        0.10731450604560
C           -3.65246049915556        1.99105164851999        0.61875191309797
C           -2.94262255262085        3.17151366822994        0.78761380545570
C           -3.58135377603689        4.31775992522497        1.23192353068356
C           -4.93641798098799        4.30066189725415        1.50785218076476
C           -5.65529848375797        3.12915027923624        1.33091713420359
C           -5.01900522869570        1.98637110918681        0.88750076581405
C           -3.58133390846014        0.39091556262830       -1.26496205963360
C           -3.96938377505355        1.40359606893949       -2.12621764070987
C           -4.36622659285431        1.12883366359197       -3.42639094794977
C           -4.35611143230999       -0.18150059563793       -3.88830834140542
C           -3.97530983255881       -1.20513337474402       -3.05442942462680
C           -3.60448110677507       -0.93742144082379       -1.72385386934809
C           -3.30023691713916       -2.04973033226554       -0.85380577765440
O           -3.14602622279836       -3.22569779895874       -1.29665824987146
C           -3.30198633903419       -1.76230652149903        0.56173946567539
C           -3.36800468058837       -2.83899176851165        1.46682862465295
C           -3.49403612600633       -2.60691598853241        2.81455673735292
C           -3.56245568732722       -1.30509067009032        3.29456601193076
C           -3.46022115612662       -0.23965052100278        2.41240055243778
C           -3.30794649513923       -0.44535802730495        1.05162006550961
C           -0.75209838727992        0.88848285372438        1.20214112535495
C            0.62537451904394        0.96168091339709        1.16909811624521
C            3.42330875833591       -0.17292369001663       -0.00224524299550
C            4.82618014857069       -0.18388870527031        0.02980086745507
C            5.50853323552757       -1.39652679392241        0.12116799355276
C            4.86740916479058       -2.61645440307506        0.17887846450776
C            3.47955316131382       -2.62531018296341        0.13849912678147
C            2.77239927495015       -1.41511176126789        0.04833613577604
O            1.42796083890912       -1.62948536538960        0.01254294641064
C            1.24721919429181       -2.97691380385106        0.07514152372324
C            0.03665036781557       -3.64603590892978        0.05575387185648
C            0.08147057139710       -5.02580073838903        0.12541175434895
C            1.29057979115863       -5.71365020615134        0.21389709397489
C            2.49766909076202       -5.04338967442558        0.23103430763943
C            2.47726754394708       -3.65619244152841        0.15917135215887
H            7.20873337521604        0.20501810844318       -1.23157713884467
H            5.93141847084022        0.97095474274421       -2.17567915486938
H            7.13598803079365        1.95931123298456       -1.34923132454367
H            7.07026138681267        2.13035547731732        1.23080296530677
H            7.14390732931513        0.37562552291393        1.34829064931182
H            5.82337065104592        1.25436239723606        2.11887337887755
H            6.38072712529509        3.68829617033950       -0.19839523552464
H            5.01611861689211        5.70195938581505       -0.35468365194311
H            2.54404744984208        5.51883500938756       -0.37955962479063
H            1.48676350282921        3.31253988561350       -0.25039348629329
H            1.07659469840048        0.88949894582230       -2.17760775528334
H           -1.37064393047936        0.77737809397824       -2.11261331768663
H           -1.88542906886103        3.20417536155288        0.56775764665962
H           -3.01437909975374        5.22879187073103        1.35927499574847
H           -5.43196003907851        5.19550481962572        1.85447982783954
H           -6.71524893524609        3.10796682048966        1.53749836562496
H           -5.58016435639067        1.07390960841576        0.74547567665152
H           -3.94266591176944        2.42837740257187       -1.78374402709185
H           -4.66655544279229        1.93618870618843       -4.07708948633370
H           -4.65348193389649       -0.40076158829698       -4.90369114016969
H           -3.96914359629723       -2.23121336356587       -3.38836378208174
H           -3.34278447705666       -3.84198781623786        1.06903094523311
H           -3.55523278638012       -3.44125996237166        3.49829387224427
H           -3.68283133727075       -1.11676958767910        4.35081088108931
H           -3.49945155940626        0.77055110846607        2.79677966513970
H           -1.25447320279401        0.88355289825693        2.15684021390492
H            1.19504405753907        1.01539906711378        2.08541033403065
H            6.58670979690568       -1.38676808956471        0.14825434306920
H            5.42427923117428       -3.53671557532777        0.24941365060269
H           -0.89417687141737       -3.11180988026537       -0.02173685201596
H           -0.84405379540655       -5.57947985672224        0.10315217797692
H            1.28023830136742       -6.79211749778420        0.26609753904455
H            3.43382789989758       -5.57660798032200        0.29533933394682

 projected vibrational frequencies (cm⁻¹)
eigval :       -0.00    -0.00    -0.00     0.00     0.00     0.00
eigval :        6.43    13.64    23.43    27.04    36.91    41.12
eigval :       44.29    47.64    57.08    59.09    66.24    74.64
eigval :       85.90   108.89   111.04   121.29   122.46   129.57
eigval :      137.34   155.90   163.77   186.76   188.40   211.12
eigval :      226.72   234.49   240.48   248.18   251.06   257.34
eigval :      274.82   281.88   285.15   302.79   306.02   308.26
eigval :      313.05   336.85   348.46   366.74   370.79   373.61
eigval :      388.02   388.93   392.69   400.81   405.40   411.87
eigval :      434.19   436.75   472.68   474.72   476.39   482.83
eigval :      498.99   507.04   516.00   519.34   523.32   527.63
eigval :      539.91   544.66   553.30   568.30   583.91   588.72
eigval :      591.46   600.08   602.73   613.01   618.02   625.79
eigval :      626.72   660.21   665.76   674.26   674.59   684.83
eigval :      694.22   694.97   705.18   711.45   715.16   746.59
eigval :      755.42   761.74   765.18   775.48   777.36   789.33
eigval :      802.19   819.15   823.54   851.97   854.90   855.83
eigval :      865.65   867.96   871.58   878.34   881.64   883.69
eigval :      897.32   901.76   904.80   905.56   906.43   906.79
eigval :      908.80   910.12   913.07   915.22   916.17   922.26
eigval :      923.76   925.51   930.16   933.11   934.54   938.42
eigval :      945.62   957.48   989.16   994.70  1013.47  1022.39
eigval :     1058.98  1080.89  1086.51  1088.99  1089.40  1094.71
eigval :     1097.38  1108.56  1108.92  1126.15  1127.75  1142.61
eigval :     1148.69  1153.73  1166.79  1168.28  1171.12  1174.75
eigval :     1177.78  1180.81  1181.84  1184.32  1190.96  1193.15
eigval :     1197.39  1201.49  1203.36  1205.69  1214.37  1217.78
eigval :     1236.15  1239.68  1246.10  1251.78  1253.79  1257.91
eigval :     1273.49  1287.59  1289.13  1296.65  1312.96  1318.42
eigval :     1321.40  1330.46  1334.45  1335.05  1338.09  1348.96
eigval :     1362.55  1386.80  1396.66  1401.46  1402.25  1407.76
eigval :     1418.22  1419.82  1431.29  1433.41  1435.16  1437.08
eigval :     1453.80  1468.88  1472.51  1474.14  1479.23  1486.55
eigval :     1487.66  1487.74  1497.75  1500.43  1519.70  1526.11
eigval :     1552.82  1559.64  1566.10  1569.01  1572.45  1573.96
eigval :     1586.79  1588.56  1591.93  1594.25  1600.17  1609.35
eigval :     3030.92  3032.86  3045.92  3048.37  3054.52  3058.34
eigval :     3062.65  3070.48  3070.72  3071.56  3074.35  3075.15
eigval :     3081.19  3082.03  3083.82  3084.32  3085.85  3086.32
eigval :     3086.99  3089.09  3090.58  3092.81  3094.09  3096.40
eigval :     3097.69  3100.41  3100.63  3105.22  3105.44  3105.96
eigval :     3108.02  3109.17  3143.23

   temp. (K)  partition function   enthalpy   heat capacity  entropy
                                   cal/mol     cal/K/mol   cal/K/mol   J/K/mol
 298.15  VIB  0.433E+18            23478.396    150.882    144.782
         ROT  0.661E+08              888.752      2.981     38.764
         INT  0.286E+26            24367.149    153.863    183.546
         TR   0.158E+29             1481.254      4.968     45.248
         TOT                       25848.4025   158.8308   228.7946   957.2767

       T/K    H(0)-H(T)+PV         H(T)/Eh          T*S/Eh         G(T)/Eh
   ------------------------------------------------------------------------
    298.15    0.411921E-01    0.682902E+00    0.108708E+00    0.574194E+00
   ------------------------------------------------------------------------

         :::::::::::::::::::::::::::::::::::::::::::::::::::::
         ::                  THERMODYNAMIC                  ::
         :::::::::::::::::::::::::::::::::::::::::::::::::::::
         :: total free energy        -127.935994945673 Eh   ::
         ::.................................................::
         :: total energy             -128.510189030842 Eh   ::
         :: zero point energy           0.641709744897 Eh   ::
         :: G(RRHO) w/o ZPVE           -0.067515659728 Eh   ::
         :: G(RRHO) contrib.            0.574194085169 Eh   ::
         :::::::::::::::::::::::::::::::::::::::::::::::::::::

           -------------------------------------------------
          | TOTAL ENERGY             -128.510189030842 Eh   |
          | TOTAL ENTHALPY           -127.827287234520 Eh   |
          | TOTAL FREE ENERGY        -127.935994945673 Eh   |
          | GRADIENT NORM               0.000140962782 Eh/α |
           -------------------------------------------------

 * finished run on 2025/09/04 at 17:30:06.820
