   * xtb version 6.7.1 (edcfbbe) compiled by 'albert@albert-system' on 2024-07-22

   ID    Z sym.   atoms
    1    6 C      1-4, 6-11, 13-28, 30-35, 37-45, 47
    2    7 N      5, 29, 46, 48
    3   16 S      12, 36
    4    1 H      49-78

          program call               : xtb data2507/toluene/PTZ-mPYR/PTZ-mPYR_toluene_S0_crest.xyz --gfn 2 --gbsa toluene --ohess vtight --parallel 40 --molden --ceasefiles --namespace data2507/toluene/PTZ-mPYR/PTZ-mPYR_toluene_S0_finalOpt
      * Solvation model:               GBSA
        Solvent                        toluene
        Solvent mass                       9.2140E+01 g/mol
          :  Hamiltonian                  GFN2-xTB          :
 * total energy  :  -123.5141079 Eh     change       -0.4209681E-08 Eh
 * total energy  :  -123.5141490 Eh     change       -0.4111086E-04 Eh
 * total energy  :  -123.5141650 Eh     change       -0.1596840E-04 Eh
 * total energy  :  -123.5141691 Eh     change       -0.4124435E-05 Eh
 * total energy  :  -123.5141728 Eh     change       -0.3771133E-05 Eh
 * total energy  :  -123.5141775 Eh     change       -0.4672245E-05 Eh
 * total energy  :  -123.5141842 Eh     change       -0.6691425E-05 Eh
 * total energy  :  -123.5141939 Eh     change       -0.9637647E-05 Eh
 * total energy  :  -123.5142052 Eh     change       -0.1136572E-04 Eh
 * total energy  :  -123.5142144 Eh     change       -0.9163289E-05 Eh
 * total energy  :  -123.5143513 Eh     change       -0.1736125E-05 Eh
 * total energy  :  -123.5143520 Eh     change       -0.6960698E-06 Eh
 * total energy  :  -123.5143523 Eh     change       -0.3476521E-06 Eh
 * total energy  :  -123.5143535 Eh     change       -0.1143511E-05 Eh
 * total energy  :  -123.5143538 Eh     change       -0.2660937E-06 Eh
 * total energy  :  -123.5143541 Eh     change       -0.3870627E-06 Eh
 * total energy  :  -123.5143544 Eh     change       -0.2377776E-06 Eh
 * total energy  :  -123.5143545 Eh     change       -0.1445577E-06 Eh
 * total energy  :  -123.5143545 Eh     change       -0.2080627E-07 Eh
   *** GEOMETRY OPTIMIZATION CONVERGED AFTER 74 ITERATIONS ***

 final structure:
================
78
 xtb: 6.7.1 (edcfbbe)
C           -3.39463051008113       -3.35355191556690       -1.60354322479147
C           -3.54878477520166       -2.11331516342390       -0.78296024578831
C           -4.75444337708460       -1.42439084907109       -0.80552658586414
C           -4.94047495686814       -0.26574501000519       -0.06676301055056
N           -6.19989113295958        0.40462484720323       -0.12141634970220
C           -6.36288260627472        1.38155460242289       -1.09922809756481
C           -5.28453278479531        1.73090277721224       -1.91579373138566
C           -5.40350305582142        2.69083676671549       -2.90503889525947
C           -6.60568498825138        3.34256783319588       -3.10502473144448
C           -7.68561946749631        3.01497036864665       -2.30364006401015
C           -7.57243982040771        2.04635469619451       -1.31988601799030
S           -9.04743378049072        1.68583700749712       -0.40254280199163
C           -8.41790106371378        0.65135377631072        0.89401428633241
C           -9.29854270340401        0.35832221030554        1.92216160540223
C           -8.92912974993064       -0.48852524168711        2.95278464368070
C           -7.66307523429377       -1.04270798358292        2.94066709258148
C           -6.77639509414819       -0.74045385933729        1.92246656352645
C           -7.12530813390494        0.11957592064407        0.87836886343937
C           -3.90444494681333        0.23270269025082        0.71351193000307
C           -2.69772724939136       -0.43716856524067        0.73888404393272
C           -2.50491235050932       -1.60622568474760        0.00338056135831
C           -1.19689239406260       -2.27652370724534        0.08900726634535
C           -0.00944040933576       -1.54522697387569        0.09208418660119
C            1.18783110556175       -2.25149142699573        0.20564576136237
C            2.48660434257237       -1.55872937743842        0.18018808510143
C            2.66158473039723       -0.51719180972243       -0.72925108041458
C            3.86092889989927        0.16244746284928       -0.81689580423899
C            4.90446030651492       -0.19229418642570        0.02575545517799
N            6.14319871604298        0.51181691595221       -0.05768088065685
C            7.17584633081593       -0.07412089525824       -0.78567349393329
C            7.02034580748227       -1.35852665795462       -1.31185610147267
C            8.02967355695239       -1.97332187867537       -2.03133188292448
C            9.23294503108043       -1.32668527271419       -2.24242089253085
C            9.40322215086513       -0.04843050142896       -1.73959697113466
C            8.38813873853886        0.57596486847280       -1.03406779377421
S            8.69238604026229        2.24968067749425       -0.52963224990087
C            7.40041115447348        2.48827276238577        0.66208652416827
C            7.51906004323163        3.59163918783981        1.49075817475777
C            6.52934450267613        3.89722985926021        2.40893861188965
C            5.41929228943674        3.07793767780952        2.49343958011104
C            5.30756933285299        1.96427280396220        1.68010355862917
C            6.29251823094840        1.64024278831579        0.74418972192646
C            4.73460730116342       -1.22211347524151        0.94206451497443
C            3.54003956375314       -1.92277739980412        1.03191308282722
C            3.40643746380051       -3.02322186628188        2.03550727344930
N            1.18171461330688       -3.58198779474481        0.32167572378195
C            0.00817513359952       -4.17879146567913        0.29881439484948
N           -1.17303057081543       -3.60859431567852        0.18243662692132
H           -2.45570118697227       -3.34319325755728       -2.15342794326495
H           -4.21755270471392       -3.45099145677848       -2.30676413019685
H           -3.37942244708148       -4.22642428643562       -0.95357001610999
H           -5.57066556400175       -1.79427422097551       -1.40893663930900
H           -4.33652692672117        1.23616732202370       -1.77627837568795
H           -4.54598479174227        2.92550866399086       -3.51749484863841
H           -6.70992013812948        4.09292428813700       -3.87296695259752
H           -8.64017671528485        3.50153821586382       -2.43895530312526
H          -10.28525947717069        0.79647559752202        1.89464622104904
H           -9.62605148464297       -0.71270931623834        3.74499769894859
H           -7.35343380099373       -1.71562973466085        3.72595750482839
H           -5.79421346234559       -1.18571073378865        1.93362858227292
H           -4.04925277939226        1.13319368506901        1.29124745032814
H           -1.89789398071794       -0.06134214461645        1.35966180816013
H           -0.01668530377466       -0.47073486628381        0.00821407883046
H            1.85542373216581       -0.25360722309934       -1.39768825448897
H            3.99234580060314        0.96206906703695       -1.52989560192356
H            6.09004951432857       -1.88266495833287       -1.16140244189062
H            7.86630655543488       -2.96527859351094       -2.42473136075845
H           10.02782533308666       -1.80016669392902       -2.79706356935713
H           10.32452350668854        0.49099430713938       -1.90232754913271
H            8.39433387522693        4.21667940049453        1.39360097400173
H            6.62778344756434        4.76556889682760        3.04139726868680
H            4.63107123911794        3.29705639889950        3.19786375104769
H            4.43580101409762        1.33534142789016        1.76707494034925
H            5.55660667981553       -1.48117269663680        1.59415701892283
H            3.40379122545636       -3.98608210566926        1.52803212967534
H            2.46848150650575       -2.94255759061185        2.58110563378544
H            4.23226223448402       -2.99880232884106        2.74173006704690
H            0.01531070757221       -5.25927817214498        0.38361899674142

          :  Hamiltonian                  GFN2-xTB          :
         :: gradient norm              0.000136748509 Eh/a0 ::
         :: HOMO-LUMO gap              1.410099416449 eV    ::
         :: SCC energy              -125.660998244700 Eh    ::
         :: -> dispersion             -0.112058117851 Eh    ::
         :: -> Gsolv                  -0.053673886907 Eh    ::
         :: repulsion energy           2.146643696273 Eh    ::

    * Orbital Energies and Occupations

         #    Occupation            Energy/Eh            Energy/eV
      -------------------------------------------------------------
         1        2.0000           -0.7195343             -19.5795
       ...           ...                  ...                  ...
       103        2.0000           -0.4176282             -11.3642
       104        2.0000           -0.4161143             -11.3230
       105        2.0000           -0.4160274             -11.3207
       106        2.0000           -0.4141688             -11.2701
       107        2.0000           -0.4128286             -11.2336
       108        2.0000           -0.4123828             -11.2215
       109        2.0000           -0.4073915             -11.0857
       110        2.0000           -0.4054754             -11.0335
       111        2.0000           -0.3823910             -10.4054
       112        2.0000           -0.3823426             -10.4041
       113        2.0000           -0.3747082             -10.1963
       114        2.0000           -0.3418014              -9.3009
       115        2.0000           -0.3410931              -9.2816 (HOMO)
       116                         -0.2892728              -7.8715 (LUMO)
       117                         -0.2704097              -7.3582
       118                         -0.2438955              -6.6367
       119                         -0.2437535              -6.6329
       120                         -0.2401322              -6.5343
       121                         -0.2398678              -6.5271
       122                         -0.2373794              -6.4594
       123                         -0.2320590              -6.3146
       124                         -0.2319898              -6.3128
       125                         -0.2272046              -6.1826
       126                         -0.2267239              -6.1695
       ...                                ...                  ...
       232                          0.6682026              18.1827
      -------------------------------------------------------------
                  HL-Gap            0.0518202 Eh            1.4101 eV

     #   Z          covCN         q      C6AA      α(0)
     1   6 C        3.758    -0.115    22.749     6.800
     2   6 C        2.966     0.032    27.292     8.569
     3   6 C        2.928    -0.047    29.179     8.859
     4   6 C        2.930     0.069    26.447     8.434
     5   7 N        2.749    -0.076    22.723     7.080
     6   6 C        2.941     0.061    26.635     8.464
     7   6 C        2.928    -0.060    29.492     8.906
     8   6 C        2.919    -0.035    28.869     8.811
     9   6 C        2.918    -0.041    29.020     8.834
    10   6 C        2.987    -0.041    29.022     8.837
    11   6 C        2.971     0.033    27.250     8.563
    12  16 S        2.132    -0.178   148.576    20.515
    13   6 C        2.971     0.033    27.254     8.563
    14   6 C        2.988    -0.042    29.022     8.837
    15   6 C        2.918    -0.041    29.018     8.834
    16   6 C        2.919    -0.035    28.864     8.810
    17   6 C        2.928    -0.060    29.486     8.905
    18   6 C        2.940     0.061    26.633     8.464
    19   6 C        2.918    -0.043    29.061     8.840
    20   6 C        2.925    -0.033    28.811     8.802
    21   6 C        2.980    -0.008    28.203     8.711
    22   6 C        2.980     0.116    25.442     8.274
    23   6 C        2.914    -0.066    29.651     8.929
    24   6 C        2.980     0.116    25.442     8.274
    25   6 C        2.980    -0.007    28.201     8.711
    26   6 C        2.926    -0.032    28.793     8.800
    27   6 C        2.919    -0.042    29.054     8.839
    28   6 C        2.929     0.069    26.450     8.434
    29   7 N        2.749    -0.077    22.745     7.083
    30   6 C        2.941     0.061    26.634     8.464
    31   6 C        2.928    -0.060    29.486     8.905
    32   6 C        2.919    -0.035    28.860     8.810
    33   6 C        2.918    -0.041    29.017     8.833
    34   6 C        2.985    -0.041    29.018     8.836
    35   6 C        2.971     0.033    27.254     8.563
    36  16 S        2.130    -0.179   148.660    20.521
    37   6 C        2.971     0.033    27.248     8.562
    38   6 C        2.984    -0.041    29.019     8.836
    39   6 C        2.918    -0.041    29.018     8.834
    40   6 C        2.919    -0.035    28.867     8.811
    41   6 C        2.928    -0.060    29.487     8.905
    42   6 C        2.943     0.061    26.634     8.464
    43   6 C        2.927    -0.048    29.189     8.860
    44   6 C        2.966     0.031    27.316     8.573
    45   6 C        3.758    -0.115    22.742     6.799
    46   7 N        1.839    -0.263    27.697     7.799
    47   6 C        2.908     0.154    24.672     8.145
    48   7 N        1.839    -0.263    27.698     7.799
    49   1 H        0.925     0.051     2.312     2.378
    50   1 H        0.925     0.055     2.262     2.352
    51   1 H        0.925     0.075     2.035     2.231
    52   1 H        0.926     0.051     2.307     2.375
    53   1 H        0.926     0.035     2.512     2.478
    54   1 H        0.926     0.038     2.477     2.461
    55   1 H        0.926     0.038     2.480     2.462
    56   1 H        0.926     0.039     2.456     2.451
    57   1 H        0.926     0.039     2.456     2.451
    58   1 H        0.926     0.038     2.478     2.462
    59   1 H        0.926     0.038     2.473     2.459
    60   1 H        0.926     0.036     2.502     2.473
    61   1 H        0.926     0.047     2.356     2.400
    62   1 H        0.926     0.046     2.376     2.410
    63   1 H        0.926     0.046     2.365     2.405
    64   1 H        0.926     0.046     2.372     2.409
    65   1 H        0.926     0.048     2.350     2.397
    66   1 H        0.926     0.038     2.481     2.463
    67   1 H        0.926     0.039     2.465     2.455
    68   1 H        0.926     0.038     2.477     2.461
    69   1 H        0.926     0.040     2.455     2.450
    70   1 H        0.926     0.040     2.453     2.449
    71   1 H        0.926     0.038     2.478     2.462
    72   1 H        0.926     0.038     2.474     2.460
    73   1 H        0.926     0.036     2.507     2.476
    74   1 H        0.926     0.051     2.312     2.378
    75   1 H        0.925     0.074     2.040     2.234
    76   1 H        0.925     0.050     2.317     2.381
    77   1 H        0.925     0.054     2.265     2.354
    78   1 H        0.925     0.038     2.473     2.459

molecular dipole:
                 x           y           z       tot (Debye)
 q only:        0.112      -0.913       0.259
   full:        0.161      -0.749       0.340       2.131

 projected vibrational frequencies (cm⁻¹)
eigval :       -0.00    -0.00    -0.00     0.00     0.00     0.00
eigval :        8.18    10.34    13.46    21.27    22.29    24.61
eigval :       25.16    31.62    34.53    43.17    52.50    78.65
eigval :       92.47    99.34   102.67   104.00   106.63   112.01
eigval :      132.26   144.42   147.81   157.80   166.07   194.09
eigval :      214.07   215.15   222.76   228.16   229.14   229.96
eigval :      231.21   260.60   267.12   279.43   303.80   316.19
eigval :      327.26   339.07   358.68   370.30   382.38   396.49
eigval :      398.70   402.82   405.45   410.41   411.90   414.92
eigval :      421.50   423.78   427.47   429.14   461.99   465.99
eigval :      485.61   491.37   492.98   493.69   494.98   505.73
eigval :      507.47   530.41   547.16   560.30   566.45   598.80
eigval :      606.46   615.22   616.09   642.12   647.08   647.69
eigval :      648.74   650.00   651.63   654.96   678.16   686.05
eigval :      704.54   705.88   712.94   715.47   742.63   751.68
eigval :      768.62   770.61   771.13   772.52   795.87   823.32
eigval :      824.43   831.86   832.11   858.34   859.12   859.35
eigval :      861.05   861.77   884.64   886.38   900.37   900.90
eigval :      902.06   902.87   908.49   909.16   910.24   912.94
eigval :      913.86   915.65   916.08   918.87   921.64   986.57
eigval :      987.50  1006.70  1018.03  1019.70  1024.43  1025.76
eigval :     1040.75  1041.12  1050.19  1059.71  1060.72  1073.80
eigval :     1102.96  1103.75  1103.77  1104.66  1138.06  1144.64
eigval :     1149.94  1151.22  1156.19  1157.66  1173.94  1176.40
eigval :     1178.14  1178.82  1181.99  1185.53  1198.71  1225.61
eigval :     1226.65  1243.19  1245.33  1246.16  1247.55  1251.43
eigval :     1255.42  1255.64  1269.81  1275.71  1302.55  1306.38
eigval :     1308.97  1311.75  1312.62  1314.97  1317.05  1318.86
eigval :     1331.95  1332.55  1367.32  1398.33  1399.78  1404.52
eigval :     1406.70  1408.08  1410.07  1419.74  1420.81  1435.57
eigval :     1458.73  1460.18  1460.95  1462.02  1473.73  1474.37
eigval :     1475.68  1477.15  1484.60  1485.32  1506.81  1550.37
eigval :     1554.80  1555.04  1558.45  1560.85  1568.29  1568.44
eigval :     1573.87  1574.12  1586.96  1588.40  1594.47  1595.03
eigval :     3019.91  3021.38  3034.41  3035.84  3040.36  3043.91
eigval :     3044.86  3081.54  3081.64  3082.75  3082.90  3082.98
eigval :     3083.01  3083.25  3085.03  3085.13  3085.54  3085.81
eigval :     3085.97  3095.10  3097.51  3099.08  3099.36  3099.51
eigval :     3099.92  3102.63  3107.29  3108.06  3108.32  3109.29

   temp. (K)  partition function   enthalpy   heat capacity  entropy
                                   cal/mol     cal/K/mol   cal/K/mol   J/K/mol
 298.15  VIB  0.464E+20            23789.106    145.275    148.973
         ROT  0.137E+09              888.752      2.981     40.208
         INT  0.635E+28            24677.858    148.256    189.181
         TR   0.162E+29             1481.254      4.968     45.299
         TOT                       26159.1120   153.2241   234.4802   981.0652

       T/K    H(0)-H(T)+PV         H(T)/Eh          T*S/Eh         G(T)/Eh
   ------------------------------------------------------------------------
    298.15    0.416872E-01    0.630801E+00    0.111409E+00    0.519392E+00
   ------------------------------------------------------------------------

         :::::::::::::::::::::::::::::::::::::::::::::::::::::
         ::                  THERMODYNAMIC                  ::
         :::::::::::::::::::::::::::::::::::::::::::::::::::::
         :: total free energy        -122.994962606135 Eh   ::
         ::.................................................::
         :: total energy             -123.514354545024 Eh   ::
         :: zero point energy           0.589113856947 Eh   ::
         :: G(RRHO) w/o ZPVE           -0.069721918057 Eh   ::
         :: G(RRHO) contrib.            0.519391938890 Eh   ::
         :::::::::::::::::::::::::::::::::::::::::::::::::::::

           -------------------------------------------------
          | TOTAL ENERGY             -123.514354545024 Eh   |
          | TOTAL ENTHALPY           -122.883553489643 Eh   |
          | TOTAL FREE ENERGY        -122.994962606135 Eh   |
          | GRADIENT NORM               0.000136757161 Eh/α |
          | HOMO-LUMO GAP               1.410100452971 eV   |
           -------------------------------------------------

 * finished run on 2025/07/16 at 15:14:36.880
