   * xtb version 6.7.1 (edcfbbe) compiled by 'albert@albert-system' on 2024-07-22

   ID    Z sym.   atoms
    1    6 C      1-4, 6-11, 13-28, 30-35, 37-45, 47
    2    7 N      5, 29, 46, 48
    3   16 S      12, 36
    4    1 H      49-78

          program call               : xtb data2507/toluene/PTZ-mPYR/PTZ-mPYR.xyz --gfn 2 --gbsa toluene --ohess vtight --parallel 40 --molden --ceasefiles --namespace data2507/toluene/PTZ-mPYR/PTZ-mPYR_toluene_S0_preOpt
      * Solvation model:               GBSA
        Solvent                        toluene
        Solvent mass                       9.2140E+01 g/mol
          :  Hamiltonian                  GFN2-xTB          :
 * total energy  :  -123.4859057 Eh     change       -0.5142255E-08 Eh
 * total energy  :  -123.5033903 Eh     change       -0.1748461E-01 Eh
 * total energy  :  -123.5094182 Eh     change       -0.6027914E-02 Eh
 * total energy  :  -123.5107161 Eh     change       -0.1297955E-02 Eh
 * total energy  :  -123.5116112 Eh     change       -0.8950857E-03 Eh
 * total energy  :  -123.5120010 Eh     change       -0.3897996E-03 Eh
 * total energy  :  -123.5122215 Eh     change       -0.2204409E-03 Eh
 * total energy  :  -123.5123637 Eh     change       -0.1421924E-03 Eh
 * total energy  :  -123.5124752 Eh     change       -0.1115841E-03 Eh
 * total energy  :  -123.5126064 Eh     change       -0.1311275E-03 Eh
 * total energy  :  -123.5136252 Eh     change       -0.3135521E-06 Eh
 * total energy  :  -123.5136255 Eh     change       -0.3524786E-06 Eh
 * total energy  :  -123.5136258 Eh     change       -0.2716226E-06 Eh
 * total energy  :  -123.5136260 Eh     change       -0.2008697E-06 Eh
 * total energy  :  -123.5136261 Eh     change       -0.1581078E-06 Eh
 * total energy  :  -123.5136263 Eh     change       -0.1601127E-06 Eh
 * total energy  :  -123.5136265 Eh     change       -0.1686201E-06 Eh
 * total energy  :  -123.5136266 Eh     change       -0.1479646E-06 Eh
 * total energy  :  -123.5136267 Eh     change       -0.8843391E-07 Eh
   *** GEOMETRY OPTIMIZATION CONVERGED AFTER 90 ITERATIONS ***

 final structure:
================
78
 xtb: 6.7.1 (edcfbbe)
C           -3.33412886805903       -1.64357822177769       -3.02218978949092
C           -3.50634013973783       -1.15345068213313       -1.61999413432525
C           -4.71479191147318       -0.59038546466469       -1.23506043498383
C           -4.91567658561545       -0.11587232617946        0.05443482127143
N           -6.17085266308543        0.45669717353051        0.42251373201857
C           -6.33111506225662        1.82477986592485        0.22204276326567
C           -5.29904175073672        2.56518180237540       -0.35977503906492
C           -5.41390168954800        3.92705536123611       -0.57503651684947
C           -6.57251550641423        4.59447512025852       -0.22549102836106
C           -7.60843312881219        3.87938719461384        0.35005719678046
C           -7.49108706032414        2.51826901106154        0.57879756945815
S           -8.87151067049824        1.73742710140987        1.37349180703260
C           -8.44869276814791        0.02112204252526        1.22008218945327
C           -9.43604697120792       -0.88368400226505        1.57373769019777
C           -9.19339907648100       -2.24602676748372        1.54540063516844
C           -7.94421921908961       -2.69393358775680        1.15935584278612
C           -6.96044157294299       -1.79294433911157        0.79231306906174
C           -7.18717255922273       -0.41453100504837        0.80472422457717
C           -3.89231343768876       -0.19373184471297        0.98830553737249
C           -2.67971875477400       -0.74001168142686        0.61511058071155
C           -2.47187882241883       -1.22343451192362       -0.67545567147851
C           -1.15601980109130       -1.79718808449365       -1.00201361585587
C            0.02024423886253       -1.19413320773312       -0.55469117197106
C            1.22631014529339       -1.80176619617092       -0.89468537716839
C            2.53620035241825       -1.23732096166874       -0.52718106968341
C            3.49538229905218       -1.15674302030304       -1.53685129225236
C            4.73807694479793       -0.60929692950412       -1.29755512295434
C            5.04115234323526       -0.14835015491953       -0.02077371714294
N            6.31654274193447        0.42686232716709        0.26469644806095
C            7.36156051794226       -0.44244004961084        0.56669034867376
C            7.15457879684802       -1.82309193819251        0.51981304841028
C            8.16904531386551       -2.71836513011802        0.80919481799741
C            9.42956392302333       -2.26228366889673        1.14603662351995
C            9.65375683859597       -0.89773493349149        1.20579010869033
C            8.63547424170508        0.00066684204225        0.93343295282234
S            9.02928299130127        1.71905234343974        1.13320223058111
C            7.63755171868555        2.49013616467152        0.34875624008764
C            7.75043761527540        3.84641788450526        0.09161945707303
C            6.69747615269545        4.55279079618864       -0.46347362266792
C            5.52660491218287        3.88192640750654       -0.76224366914875
C            5.41697259945132        2.52389590020683       -0.52133147050951
C            6.46756502971389        1.79186346625059        0.03699257500575
C            4.10502714128653       -0.25714728402486        0.99453856892049
C            2.84544269016002       -0.79974907804022        0.76501508490611
C            1.89630102354742       -0.92525584535420        1.91846645853641
N            1.24469209229207       -2.91461446833845       -1.63531469741200
C            0.07959358682190       -3.40631448674466       -2.00217528542915
N           -1.11219230182308       -2.91711788440149       -1.72737492243457
H           -3.27292283686437       -2.73005446790128       -3.02945635853676
H           -2.41054337937001       -1.26397117053623       -3.45523693566446
H           -4.17083200706079       -1.33177434088385       -3.64176242630779
H           -5.52321654846426       -0.51915984904874       -1.94862758191668
H           -4.38772433673277        2.06439342847701       -0.64558977879460
H           -4.58948746257236        4.46124314878831       -1.02276279058316
H           -6.67433613473942        5.65541977118191       -0.39179854577326
H           -8.52476808080518        4.37202908131546        0.63985210089897
H          -10.39730168408543       -0.50086775239567        1.88320954289622
H           -9.96987274130690       -2.93945824339567        1.82801842749292
H           -7.72432964968328       -3.75065184641685        1.13885903000564
H           -5.99362715903383       -2.16620955721604        0.49426171113657
H           -4.04923639475841        0.17161751211382        1.99171050468505
H           -1.88827962861520       -0.81666484018952        1.34530970883896
H           -0.00332683641666       -0.26607332150408       -0.00895253839998
H            3.24300459521549       -1.52703183006272       -2.51873514382156
H            5.47320447577523       -0.53923442870919       -2.08506878968586
H            6.17996649284849       -2.20267469800590        0.25686854477537
H            7.96424042081803       -3.77745069557580        0.76610283968921
H           10.22911834866752       -2.95178120445612        1.36731410527691
H           10.62341264301535       -0.50915877660667        1.47970708423890
H            8.67515327606596        4.34295329455766        0.34582586185503
H            6.79494532609393        5.61052968234449       -0.65144885077563
H            4.68803326430573        4.41052783003660       -1.18987228408739
H            4.49547499726684        2.02004964618345       -0.76660569788193
H            4.36631684523559        0.08431284744855        1.98573651356226
H            1.18048371626463       -1.72762148821492        1.75901254939536
H            1.34998557950352        0.00710329606154        2.06253473493280
H            2.44944162430340       -1.12623694441896        2.83333846165745
H            0.10368334559795       -4.31160713138980       -2.59769197230477

          :  Hamiltonian                  GFN2-xTB          :
         :: gradient norm              0.000039619741 Eh/a0 ::
         :: HOMO-LUMO gap              1.430239146915 eV    ::
         :: SCC energy              -125.660224785235 Eh    ::
         :: -> dispersion             -0.112301636459 Eh    ::
         :: -> Gsolv                  -0.054166258465 Eh    ::
         :: repulsion energy           2.146598082151 Eh    ::

    * Orbital Energies and Occupations

         #    Occupation            Energy/Eh            Energy/eV
      -------------------------------------------------------------
         1        2.0000           -0.7195003             -19.5786
       ...           ...                  ...                  ...
       103        2.0000           -0.4182240             -11.3805
       104        2.0000           -0.4162719             -11.3273
       105        2.0000           -0.4156901             -11.3115
       106        2.0000           -0.4138549             -11.2616
       107        2.0000           -0.4128460             -11.2341
       108        2.0000           -0.4125478             -11.2260
       109        2.0000           -0.4101496             -11.1607
       110        2.0000           -0.4046344             -11.0107
       111        2.0000           -0.3822742             -10.4022
       112        2.0000           -0.3822578             -10.4018
       113        2.0000           -0.3755213             -10.2185
       114        2.0000           -0.3413712              -9.2892
       115        2.0000           -0.3410583              -9.2807 (HOMO)
       116                         -0.2884979              -7.8504 (LUMO)
       117                         -0.2696684              -7.3381
       118                         -0.2437615              -6.6331
       119                         -0.2436851              -6.6310
       120                         -0.2405077              -6.5445
       121                         -0.2401627              -6.5352
       122                         -0.2390118              -6.5038
       123                         -0.2319051              -6.3105
       124                         -0.2318892              -6.3100
       125                         -0.2268114              -6.1719
       126                         -0.2266330              -6.1670
       ...                                ...                  ...
       232                          0.6682947              18.1852
      -------------------------------------------------------------
                  HL-Gap            0.0525605 Eh            1.4302 eV

     #   Z          covCN         q      C6AA      α(0)
     1   6 C        3.758    -0.115    22.745     6.799
     2   6 C        2.966     0.031    27.311     8.572
     3   6 C        2.927    -0.048    29.180     8.859
     4   6 C        2.930     0.069    26.448     8.434
     5   7 N        2.749    -0.076    22.726     7.080
     6   6 C        2.941     0.061    26.635     8.464
     7   6 C        2.928    -0.060    29.495     8.906
     8   6 C        2.919    -0.035    28.871     8.811
     9   6 C        2.918    -0.041    29.021     8.834
    10   6 C        2.988    -0.042    29.022     8.837
    11   6 C        2.971     0.033    27.249     8.563
    12  16 S        2.132    -0.178   148.600    20.517
    13   6 C        2.971     0.033    27.254     8.563
    14   6 C        2.988    -0.042    29.023     8.837
    15   6 C        2.918    -0.041    29.018     8.834
    16   6 C        2.919    -0.035    28.862     8.810
    17   6 C        2.928    -0.060    29.487     8.905
    18   6 C        2.940     0.061    26.635     8.464
    19   6 C        2.919    -0.043    29.059     8.840
    20   6 C        2.926    -0.032    28.802     8.801
    21   6 C        2.981    -0.007    28.199     8.711
    22   6 C        2.980     0.116    25.438     8.273
    23   6 C        2.913    -0.066    29.635     8.927
    24   6 C        2.981     0.117    25.417     8.270
    25   6 C        2.982    -0.007    28.178     8.707
    26   6 C        2.928    -0.025    28.629     8.775
    27   6 C        2.918    -0.041    29.018     8.834
    28   6 C        2.930     0.069    26.452     8.435
    29   7 N        2.749    -0.077    22.735     7.082
    30   6 C        2.941     0.061    26.635     8.464
    31   6 C        2.928    -0.060    29.484     8.905
    32   6 C        2.919    -0.035    28.860     8.810
    33   6 C        2.918    -0.041    29.017     8.833
    34   6 C        2.986    -0.041    29.021     8.837
    35   6 C        2.971     0.033    27.254     8.563
    36  16 S        2.131    -0.178   148.618    20.518
    37   6 C        2.971     0.033    27.250     8.563
    38   6 C        2.986    -0.041    29.020     8.837
    39   6 C        2.918    -0.041    29.020     8.834
    40   6 C        2.919    -0.035    28.869     8.811
    41   6 C        2.928    -0.060    29.490     8.906
    42   6 C        2.942     0.061    26.633     8.464
    43   6 C        2.929    -0.048    29.197     8.861
    44   6 C        2.965     0.022    27.501     8.602
    45   6 C        3.758    -0.112    22.690     6.791
    46   7 N        1.841    -0.270    27.871     7.824
    47   6 C        2.908     0.155    24.637     8.139
    48   7 N        1.839    -0.264    27.703     7.800
    49   1 H        0.925     0.074     2.042     2.235
    50   1 H        0.925     0.050     2.322     2.383
    51   1 H        0.925     0.054     2.267     2.355
    52   1 H        0.926     0.050     2.322     2.383
    53   1 H        0.926     0.036     2.506     2.476
    54   1 H        0.926     0.038     2.476     2.461
    55   1 H        0.926     0.038     2.482     2.463
    56   1 H        0.926     0.039     2.458     2.452
    57   1 H        0.926     0.039     2.459     2.452
    58   1 H        0.926     0.038     2.480     2.463
    59   1 H        0.926     0.038     2.470     2.458
    60   1 H        0.926     0.037     2.490     2.468
    61   1 H        0.926     0.049     2.336     2.390
    62   1 H        0.926     0.048     2.343     2.394
    63   1 H        0.926     0.053     2.288     2.365
    64   1 H        0.926     0.052     2.299     2.371
    65   1 H        0.926     0.048     2.351     2.398
    66   1 H        0.926     0.037     2.492     2.469
    67   1 H        0.926     0.038     2.470     2.457
    68   1 H        0.926     0.038     2.478     2.462
    69   1 H        0.926     0.039     2.455     2.450
    70   1 H        0.926     0.040     2.454     2.450
    71   1 H        0.926     0.038     2.479     2.462
    72   1 H        0.926     0.038     2.477     2.461
    73   1 H        0.926     0.035     2.514     2.479
    74   1 H        0.926     0.052     2.296     2.370
    75   1 H        0.925     0.046     2.366     2.405
    76   1 H        0.925     0.062     2.179     2.308
    77   1 H        0.925     0.059     2.213     2.326
    78   1 H        0.925     0.037     2.488     2.466

molecular dipole:
                 x           y           z       tot (Debye)
 q only:       -0.219      -0.354      -0.312
   full:       -0.197      -0.297      -0.352       1.274

 projected vibrational frequencies (cm⁻¹)
eigval :       -0.00    -0.00    -0.00     0.00     0.00     0.00
eigval :        5.21     9.31    12.93    19.25    20.27    24.90
eigval :       27.84    33.43    37.14    40.46    50.52    77.70
eigval :       89.35    98.57   102.10   102.67   108.88   113.63
eigval :      144.61   146.37   158.63   163.75   176.89   196.15
eigval :      212.01   216.33   219.21   227.23   228.95   230.18
eigval :      240.29   258.70   271.48   279.09   303.68   313.89
eigval :      326.14   337.86   356.66   370.63   377.96   392.95
eigval :      398.22   402.92   406.07   409.64   411.88   414.87
eigval :      420.77   426.90   427.40   433.22   453.88   475.46
eigval :      483.03   489.16   492.66   493.63   498.31   506.09
eigval :      506.94   527.82   542.49   562.01   566.51   601.81
eigval :      606.45   613.34   617.95   643.36   646.34   647.77
eigval :      648.09   649.00   651.72   653.36   675.37   686.21
eigval :      704.35   707.77   709.88   717.67   737.81   753.86
eigval :      768.46   770.17   771.55   774.18   798.98   824.14
eigval :      824.68   829.19   834.25   857.39   859.59   861.96
eigval :      863.47   864.00   881.98   884.16   899.23   899.75
eigval :      901.89   906.00   908.59   908.91   912.63   913.57
eigval :      915.55   916.09   916.54   917.44   918.34   982.70
eigval :      987.15  1006.99  1018.07  1019.95  1026.59  1028.61
eigval :     1040.73  1041.07  1050.07  1059.29  1060.21  1071.59
eigval :     1102.85  1103.54  1103.82  1104.37  1133.91  1145.84
eigval :     1150.25  1151.05  1156.17  1156.64  1173.59  1175.52
eigval :     1177.92  1178.58  1183.36  1184.50  1196.58  1224.33
eigval :     1227.42  1238.04  1244.08  1245.19  1245.58  1249.02
eigval :     1254.54  1255.90  1269.04  1273.27  1297.47  1304.91
eigval :     1310.51  1311.63  1312.19  1317.18  1317.59  1318.62
eigval :     1332.37  1332.55  1370.63  1399.66  1400.51  1406.31
eigval :     1407.16  1407.19  1412.09  1419.80  1420.17  1430.22
eigval :     1460.59  1460.82  1461.86  1472.40  1474.62  1475.88
eigval :     1476.40  1480.47  1485.24  1487.49  1505.84  1550.34
eigval :     1554.71  1554.96  1559.93  1563.67  1568.32  1568.37
eigval :     1573.99  1574.02  1587.32  1587.93  1594.74  1594.81
eigval :     2997.49  3020.07  3035.63  3035.66  3038.87  3043.96
eigval :     3045.36  3082.34  3082.63  3083.13  3083.24  3083.42
eigval :     3085.28  3085.34  3085.63  3085.77  3086.07  3087.07
eigval :     3088.93  3099.08  3099.34  3099.44  3099.90  3100.05
eigval :     3100.11  3107.57  3108.87  3109.26  3109.95  3114.90

   temp. (K)  partition function   enthalpy   heat capacity  entropy
                                   cal/mol     cal/K/mol   cal/K/mol   J/K/mol
 298.15  VIB  0.751E+20            23757.918    145.235    149.180
         ROT  0.133E+09              888.752      2.981     40.157
         INT  0.100E+29            24646.670    148.216    189.337
         TR   0.162E+29             1481.254      4.968     45.299
         TOT                       26127.9242   153.1844   234.6363   981.7182

       T/K    H(0)-H(T)+PV         H(T)/Eh          T*S/Eh         G(T)/Eh
   ------------------------------------------------------------------------
    298.15    0.416375E-01    0.630850E+00    0.111483E+00    0.519366E+00
   ------------------------------------------------------------------------

         :::::::::::::::::::::::::::::::::::::::::::::::::::::
         ::                  THERMODYNAMIC                  ::
         :::::::::::::::::::::::::::::::::::::::::::::::::::::
         :: total free energy        -122.994260375655 Eh   ::
         ::.................................................::
         :: total energy             -123.513626699859 Eh   ::
         :: zero point energy           0.589212097555 Eh   ::
         :: G(RRHO) w/o ZPVE           -0.069845773352 Eh   ::
         :: G(RRHO) contrib.            0.519366324204 Eh   ::
         :::::::::::::::::::::::::::::::::::::::::::::::::::::

           -------------------------------------------------
          | TOTAL ENERGY             -123.513626699859 Eh   |
          | TOTAL ENTHALPY           -122.882777104810 Eh   |
          | TOTAL FREE ENERGY        -122.994260375655 Eh   |
          | GRADIENT NORM               0.000039653954 Eh/α |
          | HOMO-LUMO GAP               1.430243030666 eV   |
           -------------------------------------------------

 * finished run on 2025/07/16 at 15:09:35.537
