   * xtb version 6.7.1 (edcfbbe) compiled by 'albert@albert-system' on 2024-07-22

   ID    Z sym.   atoms
    1    6 C      1-4, 6-11, 13-28, 30-35, 37-45, 47
    2    7 N      5, 29, 46, 48
    3   16 S      12, 36
    4    1 H      49-78

          program call               : xtb data2507/toluene/PTZ-mPYR/PTZ-mPYR_toluene_S0_finalOpt.xtbopt.xyz --gfn 2 --uhf 2 --gbsa toluene --ohess vtight --parallel 40 --molden --ceasefiles --namespace data2507/toluene/PTZ-mPYR/PTZ-mPYR_toluene_T1_preOpt
      * Solvation model:               GBSA
        Solvent                        toluene
        Solvent mass                       9.2140E+01 g/mol
          :  Hamiltonian                  GFN2-xTB          :
 * total energy  :  -123.4366286 Eh     change       -0.1898150E-07 Eh
 * total energy  :  -123.4403022 Eh     change       -0.3673623E-02 Eh
 * total energy  :  -123.4414043 Eh     change       -0.1102061E-02 Eh
 * total energy  :  -123.4415865 Eh     change       -0.1822510E-03 Eh
 * total energy  :  -123.4418508 Eh     change       -0.2643074E-03 Eh
 * total energy  :  -123.4420506 Eh     change       -0.1997516E-03 Eh
 * total energy  :  -123.4422781 Eh     change       -0.2275165E-03 Eh
 * total energy  :  -123.4424782 Eh     change       -0.2001248E-03 Eh
 * total energy  :  -123.4426227 Eh     change       -0.1445282E-03 Eh
 * total energy  :  -123.4427501 Eh     change       -0.1273107E-03 Eh
 * total energy  :  -123.4435907 Eh     change       -0.1473624E-05 Eh
 * total energy  :  -123.4435920 Eh     change       -0.1330937E-05 Eh
 * total energy  :  -123.4435933 Eh     change       -0.1229803E-05 Eh
 * total energy  :  -123.4435945 Eh     change       -0.1240344E-05 Eh
 * total energy  :  -123.4435960 Eh     change       -0.1448567E-05 Eh
 * total energy  :  -123.4435978 Eh     change       -0.1851755E-05 Eh
 * total energy  :  -123.4435999 Eh     change       -0.2100872E-05 Eh
 * total energy  :  -123.4436024 Eh     change       -0.2509492E-05 Eh
 * total energy  :  -123.4436024 Eh     change       -0.3012843E-08 Eh
   *** GEOMETRY OPTIMIZATION CONVERGED AFTER 94 ITERATIONS ***

 final structure:
================
78
 xtb: 6.7.1 (edcfbbe)
C           -3.54742472321792       -3.56035994408715       -1.15008008965434
C           -3.60970646623544       -2.18593353817370       -0.56157087916976
C           -4.80037060312899       -1.48909871985566       -0.61791733104877
C           -4.91533152577347       -0.19384688853153       -0.11805476835943
N           -6.17221663790046        0.48813798627239       -0.17944207589388
C           -6.39054469104046        1.33356376215174       -1.25350832627259
C           -5.40001814191902        1.47255054318075       -2.23484447980509
C           -5.56450927687540        2.31425536891294       -3.31583540874731
C           -6.73015254095174        3.05028272600042       -3.46260885016832
C           -7.72705704628144        2.92107345380006       -2.51550375774124
C           -7.56712836190113        2.07478222314837       -1.42647314712422
S           -8.92769272056162        1.99432307649183       -0.30540047558867
C           -8.34336274957683        0.84929419315637        0.90402031789380
C           -9.21621223736530        0.57116139703121        1.94738553729959
C           -8.85701187665183       -0.30184934572026        2.95549189125094
C           -7.60446320419198       -0.89481736942685        2.91607391289492
C           -6.73322908060182       -0.62215187689499        1.88137992653755
C           -7.07719676038380        0.25217416496573        0.84170655603964
C           -3.80399843788645        0.42481101344240        0.44646412929386
C           -2.61051780409589       -0.25484151699977        0.50745898375461
C           -2.47165210763413       -1.56791007597127        0.01679834235459
C           -1.19396428486927       -2.23364189385590        0.12658368895016
C            0.01163377111622       -1.53369239876704        0.13821177922162
C            1.21249493886936       -2.22282189095885        0.28976130293566
C            2.49276244442511       -1.55085659095927        0.27590741440590
C            2.64548283068345       -0.37168203980760       -0.47794074410115
C            3.84179468900330        0.30375460109470       -0.54029611131392
C            4.94001743093397       -0.18459841203780        0.16017762044562
N            6.19601172678365        0.49903936784659        0.09864347421869
C            7.11881513515715        0.06020498672432       -0.83576285319379
C            6.81306312006969       -1.04216772408444       -1.64482423521460
C            7.70402320916253       -1.51961707213530       -2.58423073029983
C            8.93924868488061       -0.91351343862794       -2.75400817418381
C            9.26084948194264        0.18029615635800       -1.97440162894770
C            8.36698121045116        0.66673540621774       -1.02994630976500
S            8.89494216309632        2.08981563615918       -0.12891156156252
C            7.56495107571192        2.32004421014771        1.00846819941741
C            7.72326694258693        3.34605616378477        1.93039854746844
C            6.73880259279579        3.61898550651533        2.85999798689561
C            5.58702110612769        2.84747202831060        2.86524595256788
C            5.42604441217151        1.82439118984829        1.95335872753957
C            6.40633426034671        1.53210383460032        0.99582305537435
C            4.81066553995780       -1.34584401539708        0.91914728444225
C            3.61684457912383       -2.03582469610771        0.99083375322380
C            3.53404382164977       -3.25324904362248        1.85696492316131
N            1.17307303872823       -3.58765435626619        0.44614803546388
C            0.00656222076324       -4.17669348507949        0.39752650544060
N           -1.15706239820650       -3.60317515154096        0.23705341173814
H           -2.75469040148196       -3.61966874531178       -1.89503354148158
H           -4.49394751236747       -3.82074055165775       -1.61862359100059
H           -3.31468224928914       -4.29122507106545       -0.37808737947706
H           -5.67039775553658       -1.95231520861533       -1.06266103130906
H           -4.48871109127011        0.90482428674551       -2.13776621243225
H           -4.77489704015220        2.39283079758324       -4.04736604532831
H           -6.86384029236195        3.71230098328604       -4.30328599426085
H           -8.64971070927396        3.47443910496588       -2.60482448052849
H          -10.18158317622011        1.05442028263394        1.95228836083585
H           -9.54302065813099       -0.51236516359335        3.76041887368052
H           -7.29936366137134       -1.57591472841632        3.69559238199461
H           -5.76247946523516       -1.09078008106256        1.86841222932310
H           -3.88851720390491        1.42628113732092        0.84306852360721
H           -1.76620323679039        0.22270563001368        0.98141108400772
H            0.01521313015808       -0.46001046405447        0.03147747692613
H            1.81066780889307       -0.00348681656297       -1.05521944025359
H            3.93851831299518        1.19963726997722       -1.13641157902048
H            5.85650654175397       -1.52531040924205       -1.52779322050687
H            7.42804474213805       -2.37185262259598       -3.18607218759973
H            9.64070509985173       -1.28351635952395       -3.48469288037518
H           10.21151219521416        0.67930538469085       -2.08696592411924
H            8.63325898408311        3.92615977815629        1.90275875150665
H            6.87072949936540        4.41997704635328        3.56989059683372
H            4.80581326670713        3.03967002924967        3.58465952654137
H            4.52609019034914        1.23115252065026        1.97392120140733
H            5.67083544355014       -1.70679307457901        1.46609148071722
H            3.32113980364474       -4.13271251657721        1.25229834977059
H            2.72023331162466       -3.15471824452181        2.57456813163045
H            4.46601631588897       -3.40485568848875        2.39696623667051
H            0.00416802670109       -5.25701482910299        0.50204368331800

          :  Hamiltonian                  GFN2-xTB          :
         :: gradient norm              0.000056563290 Eh/a0 ::
         :: HOMO-LUMO gap              0.424336233761 eV    ::
         :: SCC energy              -125.578244243660 Eh    ::
         :: -> dispersion             -0.112468796974 Eh    ::
         :: -> Gsolv                  -0.055751523424 Eh    ::
         :: repulsion energy           2.134641818087 Eh    ::

    * Orbital Energies and Occupations

         #    Occupation            Energy/Eh            Energy/eV
      -------------------------------------------------------------
         1        2.0000           -0.7360913             -20.0301
       ...           ...                  ...                  ...
       104        2.0000           -0.4222792             -11.4908
       105        2.0000           -0.4199589             -11.4277
       106        2.0000           -0.4001452             -10.8885
       107        2.0000           -0.3994972             -10.8709
       108        2.0000           -0.3932150             -10.6999
       109        2.0000           -0.3928570             -10.6902
       110        2.0000           -0.3892382             -10.5917
       111        2.0000           -0.3831511             -10.4261
       112        2.0000           -0.3815212             -10.3817
       113        1.7717           -0.3514621              -9.5638
       114        1.6841           -0.3510390              -9.5523
       115        1.5442           -0.3504734              -9.5369
       116        0.9996           -0.2701250              -7.3505 (HOMO)
       117        0.0002           -0.2545312              -6.9261 (LUMO)
       118        0.0002           -0.2544425              -6.9237
       119                         -0.2471248              -6.7246
       120                         -0.2407372              -6.5508
       121                         -0.2406774              -6.5492
       122                         -0.2357625              -6.4154
       123                         -0.2357338              -6.4146
       124                         -0.2194916              -5.9727
       125                         -0.2190132              -5.9597
       126                         -0.2115285              -5.7560
       127                         -0.2113077              -5.7500
       ...                                ...                  ...
       232                          0.6714408              18.2708
      -------------------------------------------------------------
                  HL-Gap            0.0155938 Eh            0.4243 eV

     #   Z          covCN         q      C6AA      α(0)
     1   6 C        3.759    -0.108    22.611     6.779
     2   6 C        2.965     0.014    27.694     8.632
     3   6 C        2.924    -0.054    29.344     8.883
     4   6 C        2.930     0.038    27.155     8.546
     5   7 N        2.749    -0.045    22.107     6.983
     6   6 C        2.942     0.064    26.565     8.453
     7   6 C        2.927    -0.052    29.294     8.876
     8   6 C        2.918    -0.029    28.718     8.788
     9   6 C        2.918    -0.034    28.847     8.807
    10   6 C        2.991    -0.039    28.947     8.826
    11   6 C        2.970     0.030    27.323     8.574
    12  16 S        2.145    -0.089   144.752    20.250
    13   6 C        2.970     0.030    27.324     8.574
    14   6 C        2.991    -0.038    28.947     8.826
    15   6 C        2.918    -0.034    28.842     8.807
    16   6 C        2.918    -0.028    28.712     8.787
    17   6 C        2.927    -0.052    29.288     8.875
    18   6 C        2.942     0.064    26.565     8.453
    19   6 C        2.915    -0.048    29.200     8.861
    20   6 C        2.924    -0.047    29.177     8.858
    21   6 C        2.973    -0.017    28.436     8.747
    22   6 C        2.948     0.076    26.293     8.410
    23   6 C        2.913    -0.060    29.503     8.907
    24   6 C        2.949     0.077    26.281     8.408
    25   6 C        2.974    -0.017    28.426     8.745
    26   6 C        2.924    -0.047    29.164     8.856
    27   6 C        2.915    -0.048    29.194     8.860
    28   6 C        2.930     0.038    27.140     8.544
    29   7 N        2.749    -0.045    22.116     6.985
    30   6 C        2.942     0.064    26.566     8.453
    31   6 C        2.927    -0.052    29.292     8.876
    32   6 C        2.918    -0.029    28.713     8.787
    33   6 C        2.918    -0.034    28.844     8.807
    34   6 C        2.991    -0.039    28.947     8.826
    35   6 C        2.970     0.030    27.324     8.574
    36  16 S        2.144    -0.090   144.796    20.253
    37   6 C        2.970     0.030    27.322     8.574
    38   6 C        2.990    -0.038    28.947     8.826
    39   6 C        2.918    -0.034    28.848     8.808
    40   6 C        2.918    -0.029    28.719     8.788
    41   6 C        2.927    -0.052    29.295     8.876
    42   6 C        2.942     0.064    26.566     8.453
    43   6 C        2.923    -0.054    29.343     8.883
    44   6 C        2.965     0.014    27.687     8.631
    45   6 C        3.759    -0.108    22.608     6.779
    46   7 N        1.838    -0.294    28.462     7.906
    47   6 C        2.856     0.160    24.549     8.121
    48   7 N        1.838    -0.293    28.436     7.903
    49   1 H        0.925     0.043     2.403     2.424
    50   1 H        0.925     0.042     2.429     2.437
    51   1 H        0.925     0.064     2.154     2.295
    52   1 H        0.925     0.032     2.551     2.498
    53   1 H        0.926     0.047     2.356     2.400
    54   1 H        0.926     0.047     2.361     2.403
    55   1 H        0.926     0.049     2.337     2.391
    56   1 H        0.926     0.051     2.308     2.376
    57   1 H        0.926     0.051     2.308     2.375
    58   1 H        0.926     0.049     2.335     2.390
    59   1 H        0.926     0.047     2.356     2.400
    60   1 H        0.926     0.048     2.347     2.396
    61   1 H        0.926     0.029     2.596     2.520
    62   1 H        0.926     0.026     2.651     2.546
    63   1 H        0.926     0.018     2.761     2.598
    64   1 H        0.926     0.026     2.646     2.544
    65   1 H        0.926     0.030     2.592     2.518
    66   1 H        0.926     0.048     2.347     2.396
    67   1 H        0.926     0.047     2.357     2.401
    68   1 H        0.926     0.049     2.337     2.390
    69   1 H        0.926     0.051     2.309     2.376
    70   1 H        0.926     0.051     2.309     2.376
    71   1 H        0.926     0.049     2.338     2.391
    72   1 H        0.926     0.047     2.361     2.403
    73   1 H        0.926     0.047     2.358     2.401
    74   1 H        0.925     0.033     2.543     2.494
    75   1 H        0.925     0.064     2.156     2.296
    76   1 H        0.925     0.043     2.406     2.426
    77   1 H        0.925     0.042     2.425     2.435
    78   1 H        0.925     0.014     2.819     2.625

molecular dipole:
                 x           y           z       tot (Debye)
 q only:        0.003       1.829      -0.137
   full:        0.010       1.860      -0.134       4.739

 projected vibrational frequencies (cm⁻¹)
eigval :       -0.00     0.00     0.00     0.00     0.00     0.00
eigval :       -3.79     7.58     9.29    14.85    18.81    20.95
eigval :       26.12    32.22    35.55    41.42    53.79    76.75
eigval :       92.37    93.48    97.84   105.58   112.82   128.96
eigval :      131.93   143.92   145.82   159.36   159.55   197.73
eigval :      213.54   219.06   221.50   226.53   227.03   231.69
eigval :      237.41   256.92   269.10   304.44   310.05   325.84
eigval :      334.91   342.58   354.99   368.13   379.25   388.41
eigval :      395.57   396.00   401.25   409.68   414.81   416.20
eigval :      419.26   421.90   424.83   426.48   434.16   468.79
eigval :      483.23   484.74   485.51   486.30   488.81   511.42
eigval :      514.82   517.86   539.64   553.84   558.49   575.86
eigval :      594.58   602.38   603.66   610.72   646.58   646.88
eigval :      650.86   652.10   652.93   653.27   653.94   669.21
eigval :      675.67   695.78   702.69   702.90   708.59   724.89
eigval :      767.50   769.27   772.99   773.11   776.20   810.31
eigval :      814.19   822.39   825.76   844.85   862.01   863.42
eigval :      865.26   865.75   865.86   868.67   900.02   900.98
eigval :      901.76   902.23   902.83   903.42   905.31   905.81
eigval :      906.06   917.34   917.57   917.86   919.00   952.42
eigval :      980.66   981.62  1012.55  1013.51  1020.43  1022.48
eigval :     1024.44  1037.83  1043.46  1043.53  1055.96  1060.10
eigval :     1097.39  1098.83  1099.43  1100.04  1131.28  1139.66
eigval :     1148.48  1149.01  1155.64  1156.50  1164.77  1174.28
eigval :     1175.23  1175.46  1176.10  1186.76  1187.67  1208.78
eigval :     1213.72  1238.58  1239.00  1243.08  1244.65  1251.74
eigval :     1252.45  1264.84  1284.47  1298.95  1299.44  1301.94
eigval :     1308.47  1312.43  1323.01  1324.37  1324.56  1325.97
eigval :     1328.02  1331.36  1340.79  1383.08  1399.90  1400.55
eigval :     1400.88  1402.12  1408.52  1410.57  1414.63  1415.94
eigval :     1433.80  1438.74  1439.05  1443.44  1457.04  1458.29
eigval :     1458.84  1463.73  1464.23  1478.05  1482.11  1482.76
eigval :     1493.63  1495.60  1545.27  1545.60  1555.57  1559.48
eigval :     1565.83  1565.91  1567.73  1579.81  1581.82  1586.33
eigval :     3005.06  3005.57  3006.03  3026.88  3027.42  3028.45
eigval :     3028.87  3067.18  3067.46  3072.22  3072.98  3079.50
eigval :     3087.33  3088.41  3088.81  3089.29  3089.41  3090.02
eigval :     3090.65  3091.20  3092.02  3092.39  3105.15  3105.25
eigval :     3105.47  3106.02  3114.95  3115.75  3116.05  3116.81

   temp. (K)  partition function   enthalpy   heat capacity  entropy
                                   cal/mol     cal/K/mol   cal/K/mol   J/K/mol
 298.15  VIB  0.358E+21            23941.421    146.402    151.352
         ROT  0.139E+09              888.752      2.981     40.237
         INT  0.496E+29            24830.173    149.383    191.589
         TR   0.162E+29             1481.254      4.968     45.299
         TOT                       26311.4269   154.3510   236.8884   991.1409

       T/K    H(0)-H(T)+PV         H(T)/Eh          T*S/Eh         G(T)/Eh
   ------------------------------------------------------------------------
    298.15    0.419299E-01    0.627975E+00    0.112553E+00    0.515422E+00
   ------------------------------------------------------------------------

         :::::::::::::::::::::::::::::::::::::::::::::::::::::
         ::                  THERMODYNAMIC                  ::
         :::::::::::::::::::::::::::::::::::::::::::::::::::::
         :: total free energy        -122.928180239810 Eh   ::
         ::.................................................::
         :: total energy             -123.443602423722 Eh   ::
         :: zero point energy           0.586045556467 Eh   ::
         :: G(RRHO) w/o ZPVE           -0.070623372556 Eh   ::
         :: G(RRHO) contrib.            0.515422183912 Eh   ::
         :::::::::::::::::::::::::::::::::::::::::::::::::::::

           -------------------------------------------------
          | TOTAL ENERGY             -123.443602423722 Eh   |
          | TOTAL ENTHALPY           -122.815626939586 Eh   |
          | TOTAL FREE ENERGY        -122.928180239810 Eh   |
          | GRADIENT NORM               0.000056722815 Eh/α |
          | HOMO-LUMO GAP               0.424329892034 eV   |
           -------------------------------------------------

 * finished run on 2025/07/16 at 15:14:49.660
