   * xtb version 6.7.1 (edcfbbe) compiled by 'albert@albert-system' on 2024-07-22

   ID    Z sym.   atoms
    1    6 C      1-4, 6-11, 13-28, 30-35, 37-45, 47
    2    7 N      5, 29, 46, 48
    3   16 S      12, 36
    4    1 H      49-78

          program call               : xtb data2507/toluene/PTZ-mPYR/PTZ-mPYR_toluene_T1_crest.xyz --gfn 2 --uhf 2 --gbsa toluene --ohess vtight --parallel 40 --molden --ceasefiles --namespace data2507/toluene/PTZ-mPYR/PTZ-mPYR_toluene_T1_finalOpt
      * Solvation model:               GBSA
        Solvent                        toluene
        Solvent mass                       9.2140E+01 g/mol
          :  Hamiltonian                  GFN2-xTB          :
 * total energy  :  -123.4434538 Eh     change       -0.8533277E-08 Eh
 * total energy  :  -123.4435694 Eh     change       -0.1156437E-03 Eh
 * total energy  :  -123.4436295 Eh     change       -0.6005547E-04 Eh
 * total energy  :  -123.4436372 Eh     change       -0.7692084E-05 Eh
 * total energy  :  -123.4436415 Eh     change       -0.4326487E-05 Eh
 * total energy  :  -123.4436450 Eh     change       -0.3502922E-05 Eh
 * total energy  :  -123.4436481 Eh     change       -0.3139081E-05 Eh
 * total energy  :  -123.4436512 Eh     change       -0.3066745E-05 Eh
 * total energy  :  -123.4436540 Eh     change       -0.2813710E-05 Eh
 * total energy  :  -123.4436561 Eh     change       -0.2088219E-05 Eh
 * total energy  :  -123.4436754 Eh     change       -0.3025093E-06 Eh
 * total energy  :  -123.4436756 Eh     change       -0.2088022E-06 Eh
 * total energy  :  -123.4436756 Eh     change        0.1265080E-07 Eh
 * total energy  :  -123.4436756 Eh     change        0.2003172E-07 Eh
 * total energy  :  -123.4436755 Eh     change        0.1069165E-07 Eh
 * total energy  :  -123.4436755 Eh     change        0.8365930E-08 Eh
 * total energy  :  -123.4436755 Eh     change        0.8420031E-08 Eh
 * total energy  :  -123.4436756 Eh     change       -0.1041884E-06 Eh
 * total energy  :  -123.4436757 Eh     change       -0.7700858E-07 Eh
   *** GEOMETRY OPTIMIZATION CONVERGED AFTER 50 ITERATIONS ***

 final structure:
================
78
 xtb: 6.7.1 (edcfbbe)
C           -3.59618981636986       -3.39503006348045       -1.61974869529105
C           -3.64093328328254       -2.12246081223203       -0.83351871802122
C           -4.82761653747963       -1.41839707540041       -0.77527524084687
C           -4.92935716472863       -0.20979976074277       -0.09066574525160
N           -6.17761620559121        0.49006371634039       -0.05614501606706
C           -6.41052535740233        1.42987353236431       -1.04544790428043
C           -5.43604240963191        1.65488742913827       -2.02678783881611
C           -5.62044985454453        2.58313673912940       -3.03102132274351
C           -6.78905173726891        3.32618872910781       -3.09552455255813
C           -7.76669375244844        3.12018483572097       -2.14189215713188
C           -7.58656193966699        2.18700901502710       -1.12976671948652
S           -8.91995381453560        2.02275561589689        0.01486990981653
C           -8.31452019855995        0.78020249022960        1.11265496535970
C           -9.16102151084426        0.42622322844297        2.15463175749882
C           -8.78602168098016       -0.53325039737377        3.07464040821954
C           -7.54693845838069       -1.14128196215900        2.94440792372590
C           -6.70186558194476       -0.79357432981590        1.91040741816175
C           -7.05951981169590        0.17519927792334        0.96341076293548
C           -3.81224019254680        0.30774755532295        0.55716561345964
C           -2.62379625932657       -0.38208573582918        0.50970516036976
C           -2.49437869593620       -1.60313205346376       -0.18038705189385
C           -1.21494757687678       -2.27622294758675       -0.19955307202742
C           -0.01072828288700       -1.58480348322019       -0.08880475661894
C            1.19678278638440       -2.28253008619448       -0.09624042881855
C            2.47607427329798       -1.61618282551547       -0.01886903913557
C            2.59394308476503       -0.28746218483252       -0.47325506124421
C            3.78423742241967        0.39884966636436       -0.42743915252407
C            4.91740722011228       -0.23006108726258        0.07753771611444
N            6.16672273553135        0.46715468227150        0.12573326185877
C            7.00649578550417        0.35212043102210       -0.96889682072481
C            6.63749881036782       -0.47399355268843       -2.03875291288081
C            7.44190719770402       -0.62110653907497       -3.15022731979763
C            8.65098597528483        0.05168658093544       -3.23729341282279
C            9.03635974907484        0.87360532792322       -2.19634013399372
C            8.22956879123710        1.02733485117006       -1.07695406171334
S            8.83332980433376        2.12586539300579        0.16566591311044
C            7.61387721903146        1.95701528695612        1.43042978364704
C            7.85789176975146        2.65156878865298        2.60753116180597
C            6.96039613490640        2.60206374827370        3.65620965880736
C            5.80594656686717        1.84699704489554        3.51776410216784
C            5.55920420831741        1.15363968253627        2.35053570171517
C            6.45526985570419        1.18456534746814        1.27381132590439
C            4.82750857030374       -1.54434495365627        0.53141524701219
C            3.63926361913018       -2.24666540071601        0.49438086596509
C            3.61294200674664       -3.64232595477411        1.03407481778643
N            1.15728964090372       -3.65322717690708       -0.18977068977469
C           -0.00934237480503       -4.23077311245220       -0.30601270292075
N           -1.17759850493919       -3.64377806299871       -0.32870937973371
H           -2.79058252112334       -3.36344221499830       -2.35195985454667
H           -4.53920203688963       -3.55945876701131       -2.13652099852054
H           -3.39607554180297       -4.23847615969194       -0.96170418265155
H           -5.70366957145292       -1.80507950715840       -1.27746213440640
H           -4.52193627517650        1.08442252495372       -1.99259106687749
H           -4.84340092851220        2.72462411757416       -3.76653696187804
H           -6.93915769294980        4.05370169785863       -3.87728493428493
H           -8.68902126064961        3.68073916246260       -2.16536908456409
H          -10.11840675218037        0.91957037773912        2.22898589805096
H           -9.45078077779690       -0.80074958337884        3.88045926290823
H           -7.23186351903043       -1.89252429236011        3.65224116265179
H           -5.74171685494528       -1.27627559761269        1.82435898839933
H           -3.88771078064584        1.23881069985967        1.10010706871557
H           -1.77508439057984        0.01297535144314        1.04729588783028
H           -0.01344659283228       -0.50997189323809        0.00037687157868
H            1.73359851438836        0.20200791330493       -0.90364108500363
H            3.84871328962510        1.41422295886547       -0.79104995632975
H            5.70077958364016       -1.00519712052371       -1.98731103298661
H            7.11916747862753       -1.26741121465381       -3.95197808590375
H            9.28416219664385       -0.05966735188333       -4.10306345206848
H            9.97040380511278        1.41357899039985       -2.23446933034490
H            8.76429235955082        3.23313979861490        2.68242719541974
H            7.15962631521530        3.14541244688957        4.56612976169015
H            5.08947879521744        1.79470518111237        4.32316473154918
H            4.65674066471329        0.57098602260704        2.25933941003378
H            5.71568037730186       -2.01759425582219        0.92701279838871
H            3.38350455297992       -4.35049241218763        0.24022177020317
H            2.83429634798391       -3.74531064283327        1.78846494135723
H            4.57252706032678       -3.89967944625783        1.47735888221954
H           -0.00836639906491       -5.31259117111995       -0.39310873775391

          :  Hamiltonian                  GFN2-xTB          :
         :: gradient norm              0.000131975881 Eh/a0 ::
         :: HOMO-LUMO gap              0.437746266736 eV    ::
         :: SCC energy              -125.578382893093 Eh    ::
         :: -> dispersion             -0.112462346689 Eh    ::
         :: -> Gsolv                  -0.055661631100 Eh    ::
         :: repulsion energy           2.134707183167 Eh    ::

    * Orbital Energies and Occupations

         #    Occupation            Energy/Eh            Energy/eV
      -------------------------------------------------------------
         1        2.0000           -0.7360065             -20.0278
       ...           ...                  ...                  ...
       104        2.0000           -0.4223570             -11.4929
       105        2.0000           -0.4205205             -11.4429
       106        2.0000           -0.4000518             -10.8860
       107        2.0000           -0.3992150             -10.8632
       108        2.0000           -0.3929269             -10.6921
       109        2.0000           -0.3927705             -10.6878
       110        2.0000           -0.3892980             -10.5933
       111        2.0000           -0.3827919             -10.4163
       112        2.0000           -0.3816140             -10.3842
       113        1.7510           -0.3513518              -9.5608
       114        1.6830           -0.3510320              -9.5521
       115        1.5660           -0.3505549              -9.5391
       116        0.9997           -0.2705654              -7.3625 (HOMO)
       117        0.0002           -0.2544784              -6.9247 (LUMO)
       118        0.0001           -0.2544373              -6.9236
       119        0.0000           -0.2476509              -6.7389
       120                         -0.2407255              -6.5505
       121                         -0.2406363              -6.5480
       122                         -0.2357451              -6.4150
       123                         -0.2357314              -6.4146
       124                         -0.2195008              -5.9729
       125                         -0.2188301              -5.9547
       126                         -0.2114036              -5.7526
       127                         -0.2112427              -5.7482
       ...                                ...                  ...
       232                          0.6720097              18.2863
      -------------------------------------------------------------
                  HL-Gap            0.0160869 Eh            0.4377 eV

     #   Z          covCN         q      C6AA      α(0)
     1   6 C        3.759    -0.108    22.606     6.779
     2   6 C        2.965     0.015    27.682     8.630
     3   6 C        2.924    -0.054    29.342     8.883
     4   6 C        2.930     0.038    27.139     8.544
     5   7 N        2.750    -0.045    22.115     6.984
     6   6 C        2.942     0.064    26.565     8.453
     7   6 C        2.927    -0.052    29.296     8.876
     8   6 C        2.918    -0.029    28.718     8.788
     9   6 C        2.918    -0.034    28.847     8.808
    10   6 C        2.991    -0.039    28.947     8.826
    11   6 C        2.970     0.030    27.323     8.574
    12  16 S        2.145    -0.089   144.775    20.251
    13   6 C        2.970     0.030    27.324     8.574
    14   6 C        2.991    -0.038    28.947     8.826
    15   6 C        2.918    -0.034    28.844     8.807
    16   6 C        2.918    -0.028    28.712     8.787
    17   6 C        2.927    -0.052    29.290     8.875
    18   6 C        2.942     0.064    26.565     8.453
    19   6 C        2.915    -0.048    29.197     8.861
    20   6 C        2.924    -0.047    29.173     8.858
    21   6 C        2.973    -0.017    28.427     8.746
    22   6 C        2.948     0.077    26.282     8.408
    23   6 C        2.913    -0.061    29.505     8.907
    24   6 C        2.947     0.076    26.299     8.411
    25   6 C        2.973    -0.017    28.440     8.748
    26   6 C        2.924    -0.048    29.187     8.860
    27   6 C        2.915    -0.048    29.198     8.861
    28   6 C        2.930     0.038    27.157     8.546
    29   7 N        2.749    -0.045    22.117     6.985
    30   6 C        2.942     0.064    26.564     8.453
    31   6 C        2.927    -0.052    29.289     8.875
    32   6 C        2.918    -0.029    28.713     8.787
    33   6 C        2.918    -0.034    28.845     8.807
    34   6 C        2.991    -0.039    28.947     8.826
    35   6 C        2.970     0.030    27.324     8.574
    36  16 S        2.144    -0.090   144.787    20.252
    37   6 C        2.970     0.030    27.324     8.574
    38   6 C        2.990    -0.039    28.947     8.826
    39   6 C        2.918    -0.034    28.848     8.808
    40   6 C        2.918    -0.029    28.718     8.788
    41   6 C        2.927    -0.052    29.295     8.876
    42   6 C        2.942     0.064    26.563     8.453
    43   6 C        2.924    -0.054    29.351     8.884
    44   6 C        2.965     0.014    27.695     8.632
    45   6 C        3.759    -0.108    22.608     6.779
    46   7 N        1.838    -0.292    28.409     7.899
    47   6 C        2.855     0.159    24.556     8.122
    48   7 N        1.838    -0.293    28.442     7.903
    49   1 H        0.925     0.045     2.389     2.417
    50   1 H        0.925     0.042     2.426     2.436
    51   1 H        0.925     0.063     2.164     2.300
    52   1 H        0.925     0.033     2.547     2.495
    53   1 H        0.926     0.047     2.358     2.401
    54   1 H        0.926     0.047     2.361     2.403
    55   1 H        0.926     0.049     2.338     2.391
    56   1 H        0.926     0.051     2.308     2.376
    57   1 H        0.926     0.051     2.308     2.376
    58   1 H        0.926     0.049     2.336     2.390
    59   1 H        0.926     0.047     2.357     2.401
    60   1 H        0.926     0.047     2.351     2.398
    61   1 H        0.926     0.030     2.590     2.517
    62   1 H        0.926     0.026     2.643     2.542
    63   1 H        0.926     0.019     2.753     2.594
    64   1 H        0.926     0.026     2.650     2.546
    65   1 H        0.926     0.029     2.603     2.523
    66   1 H        0.926     0.048     2.349     2.397
    67   1 H        0.926     0.047     2.357     2.401
    68   1 H        0.926     0.049     2.337     2.390
    69   1 H        0.926     0.051     2.309     2.376
    70   1 H        0.926     0.051     2.309     2.376
    71   1 H        0.926     0.049     2.338     2.391
    72   1 H        0.926     0.047     2.360     2.403
    73   1 H        0.926     0.047     2.354     2.399
    74   1 H        0.925     0.032     2.551     2.498
    75   1 H        0.925     0.063     2.167     2.302
    76   1 H        0.925     0.045     2.385     2.415
    77   1 H        0.925     0.041     2.430     2.438
    78   1 H        0.925     0.015     2.814     2.623

molecular dipole:
                 x           y           z       tot (Debye)
 q only:       -0.009       1.816       0.138
   full:        0.000       1.841       0.153       4.697

 projected vibrational frequencies (cm⁻¹)
eigval :       -0.00    -0.00    -0.00    -0.00     0.00     0.00
eigval :       -9.37     8.04     9.38    15.84    21.21    26.26
eigval :       27.44    34.87    39.29    43.43    54.56    76.31
eigval :       91.98    94.09    98.35   105.82   112.74   123.92
eigval :      134.06   144.45   145.33   158.62   159.38   197.67
eigval :      214.02   218.95   221.77   226.21   227.18   230.15
eigval :      236.96   257.36   270.05   307.66   311.81   325.60
eigval :      334.69   343.40   354.20   368.59   378.98   388.39
eigval :      396.00   396.45   401.97   410.07   415.47   417.01
eigval :      419.33   422.86   425.29   427.09   433.88   470.65
eigval :      483.37   484.38   484.55   486.41   489.08   511.02
eigval :      515.38   519.12   542.24   552.25   556.65   576.35
eigval :      594.32   602.68   604.25   610.62   646.50   647.00
eigval :      651.27   651.44   652.55   653.13   653.61   670.38
eigval :      676.82   695.81   702.64   703.04   708.77   724.99
eigval :      768.66   770.21   773.12   773.63   775.99   804.96
eigval :      811.48   822.44   825.65   842.36   863.36   864.27
eigval :      864.30   864.62   865.99   869.87   894.31   899.38
eigval :      901.44   904.08   904.34   904.41   905.27   905.47
eigval :      905.92   916.37   919.07   920.51   920.62   952.65
eigval :      980.46   981.54  1011.97  1013.27  1019.78  1022.72
eigval :     1026.28  1038.66  1043.38  1043.64  1056.47  1060.53
eigval :     1098.00  1099.48  1099.59  1100.16  1133.03  1141.09
eigval :     1148.75  1149.76  1156.18  1157.34  1164.81  1174.57
eigval :     1175.56  1177.71  1177.77  1187.19  1189.04  1209.26
eigval :     1214.17  1238.75  1239.40  1243.20  1244.83  1251.73
eigval :     1252.57  1265.32  1285.57  1299.68  1299.76  1301.85
eigval :     1308.62  1314.63  1322.98  1324.73  1324.77  1325.81
eigval :     1328.36  1331.51  1341.90  1382.96  1399.37  1400.98
eigval :     1401.51  1402.38  1408.77  1410.68  1415.07  1415.93
eigval :     1434.68  1439.01  1439.19  1443.89  1457.75  1458.41
eigval :     1459.31  1463.82  1464.59  1477.68  1479.64  1480.66
eigval :     1494.28  1496.08  1545.55  1545.76  1555.81  1559.75
eigval :     1566.08  1566.22  1568.31  1580.20  1582.20  1586.60
eigval :     3006.47  3008.08  3009.53  3024.58  3025.81  3028.39
eigval :     3029.45  3067.39  3068.22  3072.94  3073.43  3082.69
eigval :     3088.53  3088.69  3089.16  3089.41  3089.44  3090.99
eigval :     3091.51  3091.62  3091.75  3091.76  3104.92  3105.42
eigval :     3105.49  3106.02  3114.59  3114.72  3115.10  3115.27

   temp. (K)  partition function   enthalpy   heat capacity  entropy
                                   cal/mol     cal/K/mol   cal/K/mol   J/K/mol
 298.15  VIB  0.718E+20            23902.047    146.603    150.014
         ROT  0.139E+09              888.752      2.981     40.249
         INT  0.100E+29            24790.799    149.584    190.263
         TR   0.162E+29             1481.254      4.968     45.299
         TOT                       26272.0533   154.5525   235.5621   985.5919

       T/K    H(0)-H(T)+PV         H(T)/Eh          T*S/Eh         G(T)/Eh
   ------------------------------------------------------------------------
    298.15    0.418672E-01    0.628068E+00    0.111923E+00    0.516145E+00
   ------------------------------------------------------------------------

         :::::::::::::::::::::::::::::::::::::::::::::::::::::
         ::                  THERMODYNAMIC                  ::
         :::::::::::::::::::::::::::::::::::::::::::::::::::::
         :: total free energy        -122.927530601273 Eh   ::
         ::.................................................::
         :: total energy             -123.443675709867 Eh   ::
         :: zero point energy           0.586201086189 Eh   ::
         :: G(RRHO) w/o ZPVE           -0.070055977595 Eh   ::
         :: G(RRHO) contrib.            0.516145108594 Eh   ::
         :::::::::::::::::::::::::::::::::::::::::::::::::::::

           -------------------------------------------------
          | TOTAL ENERGY             -123.443675709867 Eh   |
          | TOTAL ENTHALPY           -122.815607441773 Eh   |
          | TOTAL FREE ENERGY        -122.927530601273 Eh   |
          | GRADIENT NORM               0.000132093704 Eh/α |
          | HOMO-LUMO GAP               0.437746973812 eV   |
           -------------------------------------------------

 * finished run on 2025/07/16 at 15:22:16.283
