   * xtb version 6.7.1 (edcfbbe) compiled by 'albert@albert-system' on 2024-07-22

   ID    Z sym.   atoms
    1    6 C      1-9, 11-13, 15-31, 35-46, 48-60
    2    7 N      10, 14, 47
    3   16 S      32
    4    8 O      33, 34
    5    1 H      61-103

          program call               : xtb data2507/gas/BCZ-DPS-AD/BCZ-DPS-AD_gas_S0_finalOpt.xtbopt.xyz --gfn 2 --spinpol --tblite --uhf 2 --ohess vtight --parallel 40 --molden --ceasefiles --namespace data2507/gas/BCZ-DPS-AD/BCZ-DPS-AD_gas_T1_preOpt
 * total energy  :  -157.6993320 Eh     change        0.7886769E-07 Eh
 * total energy  :  -157.7020855 Eh     change       -0.2753486E-02 Eh
 * total energy  :  -157.7030504 Eh     change       -0.9649242E-03 Eh
 * total energy  :  -157.7031764 Eh     change       -0.1259566E-03 Eh
 * total energy  :  -157.7032663 Eh     change       -0.8985630E-04 Eh
 * total energy  :  -157.7032994 Eh     change       -0.3312779E-04 Eh
 * total energy  :  -157.7033481 Eh     change       -0.4867565E-04 Eh
 * total energy  :  -157.7033789 Eh     change       -0.3084321E-04 Eh
 * total energy  :  -157.7034024 Eh     change       -0.2347492E-04 Eh
 * total energy  :  -157.7034181 Eh     change       -0.1568092E-04 Eh
 * total energy  :  -157.7045126 Eh     change       -0.3118115E-06 Eh
 * total energy  :  -157.7045129 Eh     change       -0.2258132E-06 Eh
 * total energy  :  -157.7045132 Eh     change       -0.3118920E-06 Eh
 * total energy  :  -157.7045135 Eh     change       -0.3705042E-06 Eh
 * total energy  :  -157.7045138 Eh     change       -0.2112448E-06 Eh
 * total energy  :  -157.7045139 Eh     change       -0.1207709E-06 Eh
 * total energy  :  -157.7045140 Eh     change       -0.1149208E-06 Eh
 * total energy  :  -157.7045142 Eh     change       -0.1656474E-06 Eh
 * total energy  :  -157.7045142 Eh     change       -0.3507290E-07 Eh
   *** GEOMETRY OPTIMIZATION CONVERGED AFTER 169 ITERATIONS ***

 final structure:
================
103
 xtb: 6.7.1 (edcfbbe)
C            6.14857249301145       -1.74248041775527        3.09189659634829
C            5.63270675038954       -2.17339234573321        1.70566037799400
C            6.37884635759998       -3.43415160029002        1.22869146028254
C            4.15819124840799       -2.49990547201294        1.81236976237422
C            3.73441919265729       -3.50155623938685        2.67513236048472
C            2.40044182150946       -3.84470125270672        2.79829081209430
C            1.45130327077293       -3.19122524960470        2.02727863643509
C            1.84392900964913       -2.20118222928486        1.15566292213126
C            3.19120729731965       -1.82732667616760        1.04948483488294
N            3.54670221177220       -0.80599459378734        0.19631840186989
C            2.52243630681390       -0.13345615777813       -0.53239675920193
C            1.79211075474400        0.88438507994399        0.11639850391714
C            0.75301296186746        1.50955506339167       -0.60067675095742
N           -0.08876349735784        2.44022903407324        0.07370496411798
C           -1.04844101225534        1.94706196702871        0.93379915053453
C           -1.14927319417728        0.56413080347928        1.14463208383558
C           -2.05756017769383        0.04749367028189        2.04048674978743
C           -2.91397691335668        0.89811010367083        2.72159829842538
C           -2.84881018115860        2.25927841320663        2.48597123099877
C           -1.92890821201347        2.81027275949199        1.60379107344224
C           -1.91836722682365        4.30640676807755        1.36899291758402
C           -1.68454281018977        5.02169986030837        2.71301072116713
C           -3.28241374604917        4.71374262914380        0.77970204280143
C           -0.82641583514204        4.72143861632467        0.40522679118818
C           -0.65852306951353        6.06239285075248        0.08889381113900
C            0.33865544531984        6.49264479136469       -0.76701822345308
C            1.20907710614469        5.56712396223559       -1.32304838286704
C            1.06285768326588        4.22996972719208       -1.03336371878578
C            0.04015944597468        3.78738464803921       -0.18296756278345
C            0.49782676831410        1.19216250762321       -1.90977485816885
C            1.24459949924026        0.17714346683875       -2.54441619738375
S            0.50548284856592       -0.61284370156595       -3.94686477878489
O            1.30973570120067       -1.75152218517927       -4.31621925436305
O            0.18821573839555        0.35337657907488       -4.96912681314684
C           -0.99119599680365       -1.10740910599442       -3.11526001271159
C           -2.08262696263286       -0.23001367174863       -3.16720110455948
C           -3.10502534166426       -0.31926605345991       -2.23973139422653
C           -3.00765583237498       -1.29248399984860       -1.25744767848689
C           -1.93258216324166       -2.23246669483779       -1.24761741390404
C           -0.90441938967122       -2.11013055239314       -2.16589364530008
C           -2.18213938870880       -3.12296749106596       -0.15371963930057
C           -1.49619841122897       -4.22000143960084        0.35439580355624
C           -1.99325800081764       -4.84503143385824        1.48705358296614
C           -3.14184386760039       -4.38120937378942        2.11618482748446
C           -3.84907716820229       -3.29314212714261        1.61901167126222
C           -3.37664127912225       -2.68221476863979        0.46806909425828
N           -3.86532067813069       -1.57901581372192       -0.21042629949830
C           -4.97801761923476       -0.82127639292049        0.15463963671995
C           -6.18350877230458       -1.44533653325710        0.48231865878620
C           -7.27458864491512       -0.68819250920685        0.85867596003252
C           -7.18651581930038        0.69513474297491        0.90900405201679
C           -5.99370689532328        1.31852624835602        0.57301642787405
C           -4.89512879888660        0.57258739898154        0.19857616063511
C            2.24032866043110       -0.50325782907154       -1.82300637087825
C            4.85622198589145       -0.41718010961292        0.02468187604862
C            5.15243294699445        0.63443372283302       -0.85422246211614
C            6.45184784105222        1.03953142056498       -1.05522925457282
C            7.48462981684448        0.40557372308262       -0.38064154178584
C            7.19588798663718       -0.62343530862416        0.49677700456966
C            5.89540454957948       -1.05246367334843        0.72239032948642
H            5.99517115291788       -2.53011123395134        3.82391519681105
H            7.20973432996429       -1.51371607689795        3.05555356927651
H            5.61628781032110       -0.85385386435402        3.42576826007359
H            6.22252524310690       -4.25951519016954        1.91734621441009
H            6.01409438033156       -3.73081985518814        0.24742509515864
H            7.44645967464128       -3.24781205571477        1.15652769620200
H            4.46091776248729       -4.03191675819612        3.27155075591117
H            2.10450430151835       -4.62293864627525        3.48475099277173
H            0.40775699008889       -3.45627509635640        2.09943964209555
H            1.10940182439909       -1.71182847146697        0.53736121352131
H            1.99911458928813        1.14921098195128        1.13929789872838
H           -0.50914706962951       -0.10290396004545        0.59255800878294
H           -2.10176608993668       -1.01855413029088        2.20172429575792
H           -3.63611971313582        0.50404005550296        3.41956435992741
H           -3.53866224907864        2.90501178096608        3.00705830700604
H           -2.45985516605221        4.76553410654085        3.42914463002424
H           -0.72250344464373        4.72600833839914        3.12692940180587
H           -1.68545044651228        6.09999173086963        2.58325860289789
H           -3.32436594951546        5.78529832411167        0.60629278388191
H           -4.08884939554960        4.44481752411527        1.45637687928227
H           -3.44290274713624        4.20570992246149       -0.16941264195430
H           -1.32107173157043        6.79759129613097        0.51955348204155
H            0.43964695826001        7.54276756918117       -0.99359137916459
H            1.99984675483698        5.88939155821834       -1.98270155305515
H            1.73660351578179        3.50663429584922       -1.46387717138039
H           -0.29880367226699        1.67252846799322       -2.45377147361244
H           -2.10033574466220        0.50588489033280       -3.95437653291365
H           -3.95305455275058        0.34679566151082       -2.28835253030057
H           -0.04601970381329       -2.76389505581367       -2.16027174970782
H           -0.59567163383110       -4.57037574921504       -0.12606711701000
H           -1.47549709313591       -5.70100618713181        1.89496287331435
H           -3.49513190801553       -4.87373638898591        3.00976002650971
H           -4.72808518471532       -2.93099242690250        2.12937337515280
H           -6.26243138223305       -2.51948291863513        0.41022919350461
H           -8.20481552803795       -1.17856562368522        1.10508693564295
H           -8.04276648563242        1.28269103280447        1.20293914386486
H           -5.91824478660808        2.39531405402359        0.60921435342569
H           -3.95963767178078        1.05581789969409       -0.03655842361165
H            2.76426190320465       -1.31149850167978       -2.30707041901281
H            4.34692928098150        1.12208916926872       -1.37924967894903
H            6.66178850201771        1.84800691018735       -1.73838773724171
H            8.50757739421617        0.71242905853168       -0.53476759445770
H            8.01159362631857       -1.10112576503118        1.01759699032430

 projected vibrational frequencies (cm⁻¹)
eigval :       -0.00     0.00     0.00     0.00     0.00     0.00
eigval :       10.74    13.70    16.56    17.65    23.47    26.17
eigval :       34.38    40.63    46.86    50.72    56.80    63.07
eigval :       66.07    78.04    89.74    93.65    94.57    99.63
eigval :      100.30   109.94   116.51   128.01   130.69   132.48
eigval :      136.85   150.46   166.99   176.83   193.36   194.70
eigval :      196.36   204.71   216.11   218.31   218.57   227.58
eigval :      235.62   242.60   245.60   253.54   255.85   264.81
eigval :      288.69   300.32   302.30   305.37   308.85   326.79
eigval :      328.97   333.97   337.07   344.48   356.20   365.79
eigval :      370.15   374.88   379.68   384.40   385.96   387.78
eigval :      392.69   409.22   409.56   415.67   426.95   447.81
eigval :      448.61   450.54   455.35   468.37   495.20   498.60
eigval :      505.42   506.36   507.73   512.68   533.27   535.01
eigval :      539.77   541.42   544.06   547.44   550.31   558.12
eigval :      565.62   583.64   583.89   586.86   587.17   607.38
eigval :      621.72   630.34   634.18   636.21   642.54   655.83
eigval :      667.72   675.53   678.84   686.14   686.80   688.42
eigval :      694.74   699.71   700.37   717.48   757.38   760.59
eigval :      764.22   766.80   769.44   773.83   774.80   778.61
eigval :      792.57   797.32   803.24   824.44   825.69   848.83
eigval :      855.58   856.20   864.87   868.08   870.10   870.80
eigval :      874.08   883.89   892.08   896.62   902.48   906.61
eigval :      911.84   912.08   912.70   914.04   914.16   914.88
eigval :      915.22   915.92   921.58   921.94   925.82   928.72
eigval :      929.82   935.26   937.18   937.91   958.10   958.41
eigval :      960.49   987.49   998.77  1008.72  1013.47  1013.56
eigval :     1040.77  1050.69  1068.83  1074.43  1075.43  1075.68
eigval :     1076.10  1085.76  1094.50  1102.34  1105.34  1111.52
eigval :     1113.59  1116.95  1119.44  1125.17  1130.22  1136.62
eigval :     1138.57  1151.35  1152.43  1157.41  1170.02  1172.36
eigval :     1176.31  1178.48  1180.79  1183.26  1183.79  1184.57
eigval :     1186.50  1196.70  1197.38  1200.64  1209.97  1224.92
eigval :     1227.20  1234.75  1238.66  1240.34  1242.70  1251.82
eigval :     1253.58  1258.15  1269.79  1285.45  1289.51  1293.82
eigval :     1294.19  1313.11  1317.35  1318.85  1324.22  1329.69
eigval :     1330.34  1331.38  1335.74  1336.03  1339.90  1344.75
eigval :     1350.61  1361.11  1391.63  1401.25  1401.39  1410.98
eigval :     1418.21  1419.34  1419.43  1419.64  1421.35  1428.70
eigval :     1429.10  1433.61  1448.87  1451.48  1456.64  1457.50
eigval :     1458.70  1473.43  1473.72  1477.39  1486.98  1487.15
eigval :     1487.58  1487.85  1488.10  1497.66  1498.04  1501.33
eigval :     1502.05  1525.27  1530.81  1550.30  1551.05  1551.24
eigval :     1552.57  1555.28  1559.80  1572.58  1573.90  1575.91
eigval :     1580.16  1583.34  3028.45  3030.17  3031.60  3034.19
eigval :     3041.99  3044.61  3046.67  3047.03  3051.18  3053.27
eigval :     3056.62  3056.76  3075.52  3078.60  3080.60  3084.50
eigval :     3085.00  3085.56  3085.78  3086.00  3087.49  3092.13
eigval :     3092.34  3093.00  3093.60  3094.09  3094.68  3095.84
eigval :     3097.84  3098.60  3101.49  3101.82  3101.91  3102.86
eigval :     3104.10  3110.00  3111.00  3112.20  3112.45  3113.88
eigval :     3115.36  3117.03  3128.54

   temp. (K)  partition function   enthalpy   heat capacity  entropy
                                   cal/mol     cal/K/mol   cal/K/mol   J/K/mol
 298.15  VIB  0.867E+23            30531.480    192.628    188.593
         ROT  0.107E+09              888.752      2.981     39.729
         INT  0.931E+31            31420.232    195.609    228.322
         TR   0.218E+29             1481.254      4.968     45.888
         TOT                       32901.4859   200.5769   274.2104  1147.2962

       T/K    H(0)-H(T)+PV         H(T)/Eh          T*S/Eh         G(T)/Eh
   ------------------------------------------------------------------------
    298.15    0.524319E-01    0.852955E+00    0.130286E+00    0.722669E+00
   ------------------------------------------------------------------------

         :::::::::::::::::::::::::::::::::::::::::::::::::::::
         ::                  THERMODYNAMIC                  ::
         :::::::::::::::::::::::::::::::::::::::::::::::::::::
         :: total free energy        -156.981845614761 Eh   ::
         ::.................................................::
         :: total energy             -157.704514176032 Eh   ::
         :: zero point energy           0.800522901392 Eh   ::
         :: G(RRHO) w/o ZPVE           -0.077854340121 Eh   ::
         :: G(RRHO) contrib.            0.722668561271 Eh   ::
         :::::::::::::::::::::::::::::::::::::::::::::::::::::

           -------------------------------------------------
          | TOTAL ENERGY             -157.704514176032 Eh   |
          | TOTAL ENTHALPY           -156.851559419506 Eh   |
          | TOTAL FREE ENERGY        -156.981845614761 Eh   |
          | GRADIENT NORM               0.000181616643 Eh/α |
           -------------------------------------------------

 * finished run on 2025/07/19 at 16:22:55.235
