   * xtb version 6.7.1 (edcfbbe) compiled by 'albert@albert-system' on 2024-07-22

   ID    Z sym.   atoms
    1    6 C      1-9, 11-13, 15-31, 35-46, 48-60
    2    7 N      10, 14, 47
    3   16 S      32
    4    8 O      33, 34
    5    1 H      61-103

          program call               : xtb data2507/gas/BCZ-DPS-AD/BCZ-DPS-AD.xyz --gfn 2 --ohess vtight --parallel 40 --molden --ceasefiles --namespace data2507/gas/BCZ-DPS-AD/BCZ-DPS-AD_gas_S0_preOpt
          :  Hamiltonian                  GFN2-xTB          :
 * total energy  :  -157.7631921 Eh     change       -0.3028134E-08 Eh
 * total energy  :  -157.7859728 Eh     change       -0.2278071E-01 Eh
 * total energy  :  -157.7941357 Eh     change       -0.8162905E-02 Eh
 * total energy  :  -157.7957966 Eh     change       -0.1660872E-02 Eh
 * total energy  :  -157.7966947 Eh     change       -0.8980698E-03 Eh
 * total energy  :  -157.7971662 Eh     change       -0.4715295E-03 Eh
 * total energy  :  -157.7974439 Eh     change       -0.2777420E-03 Eh
 * total energy  :  -157.7976793 Eh     change       -0.2353504E-03 Eh
 * total energy  :  -157.7979077 Eh     change       -0.2283879E-03 Eh
 * total energy  :  -157.7981149 Eh     change       -0.2072736E-03 Eh
 * total energy  :  -157.8018345 Eh     change       -0.5904743E-06 Eh
 * total energy  :  -157.8018348 Eh     change       -0.3255116E-06 Eh
 * total energy  :  -157.8018351 Eh     change       -0.2969191E-06 Eh
 * total energy  :  -157.8018352 Eh     change       -0.1750999E-06 Eh
 * total energy  :  -157.8018354 Eh     change       -0.1730402E-06 Eh
 * total energy  :  -157.8018357 Eh     change       -0.2496288E-06 Eh
 * total energy  :  -157.8018359 Eh     change       -0.2734785E-06 Eh
 * total energy  :  -157.8018362 Eh     change       -0.2999596E-06 Eh
 * total energy  :  -157.8018363 Eh     change       -0.6651646E-08 Eh
   *** GEOMETRY OPTIMIZATION CONVERGED AFTER 185 ITERATIONS ***

 final structure:
================
103
 xtb: 6.7.1 (edcfbbe)
C            5.56039908319571       -3.82527287269473        2.20912271386925
C            4.69753248036124       -4.01728800901707        0.94864891048528
C            4.80730176932981       -5.46698579975334        0.44223970082057
C            3.24916977844893       -3.73708104171039        1.30352395528060
C            2.62194569275293       -4.50745726962427        2.27327668160885
C            1.30156954254317       -4.30683878188825        2.63127181680209
C            0.57225120484604       -3.31611187694919        1.99975470882028
C            1.16928897835298       -2.53949506460175        1.02875616368473
C            2.50953208308076       -2.72783926580308        0.67878329509700
N            3.09127141570242       -1.92042285819482       -0.28863857119170
C            2.29039090959426       -0.93960395461318       -0.92379394647802
C            2.04313478741437        0.27189238993202       -0.28890597647270
C            1.19746779202028        1.20804395835069       -0.87385936476486
N            0.86198839156277        2.40330547097756       -0.18972005228598
C           -0.35075951713934        2.45349665868729        0.48034025405431
C           -1.13650215506365        1.30105985497101        0.58308874684756
C           -2.33452444617304        1.31761793428305        1.26529863373145
C           -2.78220432807228        2.49210174888292        1.84293390711067
C           -2.00580415131076        3.63216673116936        1.74404893830736
C           -0.78501560918542        3.63888886587719        1.08306994090658
C            0.03652378055393        4.91410918573376        1.04296420180682
C            0.33948795759549        5.34760735478465        2.48887631068201
C           -0.77597631372437        6.00285272486858        0.31873271000095
C            1.34968546342979        4.72181633444835        0.30743260251795
C            2.23390311817698        5.78587488129463        0.19092782578234
C            3.43718187625185        5.66932315182991       -0.47984664708216
C            3.77504115545976        4.46113523899357       -1.06240837731832
C            2.91414014079509        3.38844985088198       -0.96404792039998
C            1.70340632623766        3.50287671752508       -0.27726897767272
C            0.61014470798438        0.93495326935417       -2.10283460456128
C            0.85995673963935       -0.27501873482263       -2.71876548500251
S           -0.21147319831298       -0.72230017907287       -4.09893382519048
O            0.13658145925476       -2.04531243764746       -4.54013276279776
O           -0.24381857348518        0.33862380630767       -5.06834044922785
C           -1.73479682860882       -0.73353344350898       -3.15946545947389
C           -2.66077959336261        0.28704871649057       -3.33669093456801
C           -3.73927812521598        0.41462812835638       -2.48383139543857
C           -3.84695783877936       -0.49183499663030       -1.43518567101532
C           -2.91290856035761       -1.54878452613788       -1.27436259537980
C           -1.84156278326833       -1.66280972406806       -2.14609211067544
C           -3.33222519650832       -2.29276706378815       -0.12160152852930
C           -2.81561120641937       -3.40091319633515        0.53777056288693
C           -3.46207342529027       -3.85083648998421        1.67128476095001
C           -4.59972651484257       -3.20522040687371        2.15270314215347
C           -5.13297377477808       -2.10361314165023        1.51115993017746
C           -4.49987941023645       -1.65782886566686        0.35949405836549
N           -4.79911608784178       -0.57681979476880       -0.44917682662738
C           -5.87121675412888        0.31268405863216       -0.26014800688775
C           -7.16477703084973       -0.17814418303406       -0.11804218964826
C           -8.21541006229944        0.69905294515274        0.07992259448520
C           -7.98518587243507        2.06388341782674        0.12891404342230
C           -6.69725237772652        2.55196893977228       -0.01756890394009
C           -5.63848216870860        1.68327465858646       -0.20858155616179
C            1.68770503841341       -1.21743598571514       -2.14787623467108
C            4.40456829467580       -2.09299301382096       -0.70135776167183
C            4.93409719182888       -1.24701200425620       -1.67875337657590
C            6.23747093532477       -1.38892228225738       -2.10601819567099
C            7.03683648822165       -2.37589575124251       -1.55835542499106
C            6.51693658839418       -3.20523161944823       -0.58197637309661
C            5.20836191859019       -3.08532651932224       -0.13398367448722
H            5.23603155780220       -4.48818396834074        3.00647990827601
H            6.60587943395903       -4.03241185358493        1.99867069257753
H            5.47794122326448       -2.79860563998319        2.56108483616755
H            4.46473526499311       -6.16971602438801        1.19668536102311
H            4.19586292855629       -5.59452003164479       -0.44901224780258
H            5.83506000064052       -5.71307301602369        0.19060054162437
H            3.17626572742832       -5.28991060910313        2.76891892489330
H            0.84742562565366       -4.92163505741987        3.39322483744000
H           -0.46175625399579       -3.14281555642194        2.25834745486152
H            0.58650121362884       -1.77640162829245        0.53560673664035
H            2.48303411521768        0.47274736292501        0.67674912224654
H           -0.80360240588733        0.37940895893524        0.13061969852215
H           -2.91008118545973        0.40862761987427        1.35313989867058
H           -3.72301974100393        2.51916559511732        2.37171144078222
H           -2.36460385052618        4.54020072261747        2.20445157003314
H           -0.57799703566309        5.51983857094817        3.04451616686999
H            0.90731243302583        4.57001497680434        2.99625231228477
H            0.92266781327727        6.26388293386005        2.50519391346464
H           -0.22629211807070        6.93939540584656        0.28735688953016
H           -1.72253893684087        6.17996664552630        0.82215898716668
H           -0.98246064964667        5.69226395570935       -0.70380477935478
H            1.98052010284461        6.73792412516765        0.63217809623166
H            4.10156563445124        6.51677424433972       -0.55052943743720
H            4.70681788381980        4.35136810889416       -1.59631053638581
H            3.17662961282001        2.44973307512752       -1.42747542842229
H           -0.06152828167941        1.64213531604248       -2.56366158546010
H           -2.51036294090825        0.97044319291838       -4.15744326264117
H           -4.47048876195952        1.19496976652258       -2.62563250451965
H           -1.10597636567186       -2.44578831659802       -2.04933952131263
H           -1.92667708676406       -3.89011839305846        0.17013502364716
H           -3.07974256453344       -4.71066960346602        2.20052944284005
H           -5.07436304023959       -3.57259575791387        3.05032565378524
H           -6.00503834953287       -1.60112368842234        1.90105362438426
H           -7.34097437012561       -1.24186914203345       -0.17610182401313
H           -9.21854455350797        0.31497723221917        0.18948026370566
H           -8.80817923680193        2.74547874329746        0.28114758676858
H           -6.51286347083305        3.61500254202936        0.02446851573829
H           -4.62943434197829        2.05691636775322       -0.29789782218547
H            1.83922126851350       -2.16269845276365       -2.64556915284375
H            4.31490429219967       -0.47293920582376       -2.10621369204824
H            6.62601225763271       -0.72693583633707       -2.86512156936820
H            8.05811965987734       -2.49826527421840       -1.88490503024738
H            7.15503830605552       -3.96674424507193       -0.15984303682066

          :  Hamiltonian                  GFN2-xTB          :
         :: gradient norm              0.000073638499 Eh/a0 ::
         :: HOMO-LUMO gap              2.166083708027 eV    ::
         :: SCC energy              -160.557382829642 Eh    ::
         :: -> dispersion             -0.161813414943 Eh    ::
         :: repulsion energy           2.755546579323 Eh    ::

    * Orbital Energies and Occupations

         #    Occupation            Energy/Eh            Energy/eV
      -------------------------------------------------------------
         1        2.0000           -0.7673664             -20.8811
       ...           ...                  ...                  ...
       134        2.0000           -0.4103412             -11.1660
       135        2.0000           -0.4087354             -11.1223
       136        2.0000           -0.4083179             -11.1109
       137        2.0000           -0.4046921             -11.0122
       138        2.0000           -0.4036063             -10.9827
       139        2.0000           -0.4029796             -10.9656
       140        2.0000           -0.3992083             -10.8630
       141        2.0000           -0.3970716             -10.8049
       142        2.0000           -0.3959823             -10.7752
       143        2.0000           -0.3936023             -10.7105
       144        2.0000           -0.3790803             -10.3153
       145        2.0000           -0.3529476              -9.6042
       146        2.0000           -0.3490201              -9.4973 (HOMO)
       147                         -0.2694181              -7.3312 (LUMO)
       148                         -0.2632333              -7.1629
       149                         -0.2595445              -7.0626
       150                         -0.2488116              -6.7705
       151                         -0.2425343              -6.5997
       152                         -0.2414086              -6.5691
       153                         -0.2292904              -6.2393
       154                         -0.2257819              -6.1438
       155                         -0.2252773              -6.1301
       156                         -0.2214819              -6.0268
       157                         -0.2208873              -6.0106
       ...                                ...                  ...
       288                          1.2228597              33.2757
      -------------------------------------------------------------
                  HL-Gap            0.0796020 Eh            2.1661 eV

     #   Z          covCN         q      C6AA      α(0)
     1   6 C        3.761    -0.104    22.529     6.766
     2   6 C        3.909     0.021    20.156     6.381
     3   6 C        3.761    -0.104    22.534     6.767
     4   6 C        2.979    -0.012    28.313     8.728
     5   6 C        2.928    -0.036    28.887     8.814
     6   6 C        2.917    -0.044    29.098     8.846
     7   6 C        2.919    -0.033    28.825     8.804
     8   6 C        2.924    -0.059    29.457     8.901
     9   6 C        2.929     0.058    26.708     8.475
    10   7 N        2.755    -0.070    22.606     7.061
    11   6 C        2.930     0.080    26.211     8.396
    12   6 C        2.924    -0.047    29.167     8.857
    13   6 C        2.930     0.079    26.232     8.400
    14   7 N        2.755    -0.071    22.610     7.062
    15   6 C        2.930     0.058    26.702     8.474
    16   6 C        2.924    -0.058    29.452     8.900
    17   6 C        2.920    -0.033    28.816     8.803
    18   6 C        2.917    -0.045    29.121     8.849
    19   6 C        2.928    -0.036    28.902     8.816
    20   6 C        2.979    -0.012    28.314     8.728
    21   6 C        3.909     0.021    20.155     6.381
    22   6 C        3.761    -0.104    22.539     6.768
    23   6 C        3.761    -0.104    22.527     6.766
    24   6 C        2.979    -0.013    28.337     8.732
    25   6 C        2.928    -0.036    28.884     8.814
    26   6 C        2.917    -0.043    29.076     8.842
    27   6 C        2.920    -0.031    28.781     8.798
    28   6 C        2.924    -0.057    29.421     8.895
    29   6 C        2.928     0.058    26.702     8.474
    30   6 C        2.972    -0.043    29.064     8.843
    31   6 C        2.969    -0.077    29.911     8.971
    32  16 S        3.837     0.957   107.892    17.482
    33   8 O        0.860    -0.536    24.586     6.648
    34   8 O        0.860    -0.536    24.586     6.648
    35   6 C        2.973    -0.090    30.252     9.022
    36   6 C        2.958    -0.032    28.806     8.803
    37   6 C        2.911    -0.046    29.148     8.853
    38   6 C        3.075     0.053    26.728     8.476
    39   6 C        3.074    -0.010    28.185     8.704
    40   6 C        2.966    -0.035    28.861     8.812
    41   6 C        3.066    -0.015    28.310     8.725
    42   6 C        2.912    -0.030    28.749     8.792
    43   6 C        2.920    -0.037    28.932     8.821
    44   6 C        2.924    -0.031    28.764     8.795
    45   6 C        2.909    -0.049    29.208     8.862
    46   6 C        3.080     0.049    26.813     8.489
    47   7 N        2.803    -0.035    21.911     6.952
    48   6 C        2.914     0.063    26.590     8.456
    49   6 C        2.922    -0.041    29.019     8.834
    50   6 C        2.920    -0.027    28.677     8.782
    51   6 C        2.919    -0.031    28.776     8.797
    52   6 C        2.920    -0.026    28.663     8.779
    53   6 C        2.922    -0.042    29.032     8.836
    54   6 C        2.953    -0.039    28.959     8.826
    55   6 C        2.928     0.058    26.704     8.475
    56   6 C        2.924    -0.057    29.424     8.896
    57   6 C        2.920    -0.031    28.783     8.798
    58   6 C        2.917    -0.043    29.077     8.843
    59   6 C        2.928    -0.035    28.883     8.814
    60   6 C        2.979    -0.013    28.324     8.730
    61   1 H        0.925     0.040     2.451     2.448
    62   1 H        0.925     0.040     2.443     2.444
    63   1 H        0.925     0.032     2.565     2.505
    64   1 H        0.925     0.040     2.451     2.448
    65   1 H        0.925     0.033     2.541     2.493
    66   1 H        0.925     0.041     2.440     2.443
    67   1 H        0.926     0.032     2.555     2.500
    68   1 H        0.926     0.027     2.625     2.533
    69   1 H        0.926     0.030     2.590     2.517
    70   1 H        0.926     0.015     2.814     2.623
    71   1 H        0.926     0.065     2.146     2.291
    72   1 H        0.926     0.012     2.859     2.644
    73   1 H        0.926     0.024     2.678     2.559
    74   1 H        0.926     0.026     2.639     2.540
    75   1 H        0.926     0.033     2.550     2.497
    76   1 H        0.925     0.040     2.451     2.448
    77   1 H        0.925     0.032     2.553     2.498
    78   1 H        0.925     0.041     2.433     2.439
    79   1 H        0.925     0.041     2.431     2.438
    80   1 H        0.925     0.039     2.458     2.452
    81   1 H        0.925     0.032     2.557     2.501
    82   1 H        0.926     0.032     2.559     2.502
    83   1 H        0.926     0.029     2.596     2.520
    84   1 H        0.926     0.031     2.565     2.505
    85   1 H        0.926     0.023     2.691     2.565
    86   1 H        0.926     0.059     2.210     2.325
    87   1 H        0.926     0.061     2.189     2.313
    88   1 H        0.926     0.046     2.367     2.406
    89   1 H        0.926     0.047     2.355     2.400
    90   1 H        0.926     0.040     2.449     2.447
    91   1 H        0.926     0.036     2.509     2.477
    92   1 H        0.926     0.036     2.506     2.476
    93   1 H        0.926     0.033     2.541     2.493
    94   1 H        0.926     0.043     2.407     2.426
    95   1 H        0.926     0.040     2.446     2.446
    96   1 H        0.926     0.039     2.456     2.451
    97   1 H        0.926     0.040     2.445     2.445
    98   1 H        0.926     0.045     2.379     2.412
    99   1 H        0.926     0.074     2.037     2.232
   100   1 H        0.926     0.021     2.724     2.581
   101   1 H        0.926     0.031     2.575     2.510
   102   1 H        0.926     0.029     2.603     2.523
   103   1 H        0.926     0.032     2.560     2.502

molecular dipole:
                 x           y           z       tot (Debye)
 q only:       -1.347       0.683       2.638
   full:       -1.418       0.711       2.509       7.545

 projected vibrational frequencies (cm⁻¹)
eigval :       -0.00    -0.00    -0.00    -0.00     0.00     0.00
eigval :        6.58     7.27    11.59    14.61    20.17    25.76
eigval :       30.06    32.97    43.56    46.16    54.60    60.02
eigval :       62.61    73.26    85.90    89.35    92.71    96.80
eigval :       98.94   106.33   113.91   123.41   129.33   129.80
eigval :      137.40   151.63   168.77   173.05   190.75   191.46
eigval :      195.95   209.69   219.44   221.60   223.10   225.65
eigval :      235.07   239.27   243.33   249.86   262.70   269.12
eigval :      280.49   296.53   305.60   306.49   316.36   331.54
eigval :      332.00   337.46   339.31   346.67   353.15   368.12
eigval :      370.31   376.95   382.18   384.46   386.47   394.53
eigval :      401.28   409.88   411.88   427.31   442.61   449.28
eigval :      450.48   454.48   475.92   484.74   489.59   500.27
eigval :      513.91   516.36   517.14   525.27   537.48   538.21
eigval :      543.40   548.32   548.98   550.03   556.27   576.88
eigval :      584.75   586.05   588.16   592.28   601.19   612.25
eigval :      621.70   640.15   646.90   657.67   672.85   677.64
eigval :      678.03   679.42   682.42   682.69   693.28   693.43
eigval :      695.92   709.47   725.44   765.60   768.04   771.85
eigval :      775.92   776.85   777.80   780.60   783.04   803.54
eigval :      820.90   823.95   824.43   833.42   861.51   864.65
eigval :      866.61   867.11   872.62   876.36   885.67   891.11
eigval :      899.70   901.18   906.75   910.12   913.33   913.67
eigval :      915.19   915.67   916.44   917.76   917.96   921.07
eigval :      921.45   921.73   924.67   924.81   927.96   930.18
eigval :      934.43   937.49   938.59   939.36   957.37   957.48
eigval :      993.77   998.24  1014.47  1014.61  1016.91  1023.07
eigval :     1070.25  1077.25  1077.51  1080.35  1083.09  1087.58
eigval :     1090.16  1101.69  1112.38  1113.77  1118.47  1118.77
eigval :     1119.30  1119.72  1127.34  1140.68  1141.36  1141.69
eigval :     1149.49  1160.94  1161.00  1177.15  1177.60  1179.95
eigval :     1180.86  1182.47  1186.19  1186.50  1187.52  1190.10
eigval :     1198.10  1203.74  1215.09  1217.95  1238.33  1240.67
eigval :     1247.74  1249.04  1250.21  1250.40  1265.90  1269.91
eigval :     1272.58  1276.42  1288.03  1294.08  1294.48  1297.81
eigval :     1304.38  1317.52  1325.09  1325.31  1332.72  1334.14
eigval :     1340.62  1344.08  1346.66  1355.03  1359.31  1369.19
eigval :     1402.83  1402.97  1415.09  1417.57  1420.81  1421.30
eigval :     1429.00  1434.64  1435.47  1437.36  1443.46  1443.68
eigval :     1446.53  1464.40  1480.02  1482.35  1482.66  1484.01
eigval :     1489.62  1489.65  1490.61  1490.64  1494.04  1497.23
eigval :     1500.20  1500.23  1504.92  1505.22  1548.35  1565.78
eigval :     1575.81  1576.60  1582.64  1582.82  1586.18  1589.58
eigval :     1591.30  1592.07  1593.12  1593.60  1595.34  1602.00
eigval :     1602.86  1610.96  3027.52  3027.60  3030.07  3030.31
eigval :     3039.92  3040.34  3043.11  3043.42  3049.25  3049.33
eigval :     3053.38  3053.74  3079.41  3079.78  3080.51  3081.14
eigval :     3081.71  3082.41  3083.95  3084.10  3084.59  3085.11
eigval :     3086.14  3087.68  3091.82  3092.45  3092.51  3093.11
eigval :     3094.31  3094.77  3095.56  3097.03  3097.85  3099.27
eigval :     3100.26  3100.44  3101.05  3101.63  3101.82  3102.33
eigval :     3106.60  3107.06  3108.91

   temp. (K)  partition function   enthalpy   heat capacity  entropy
                                   cal/mol     cal/K/mol   cal/K/mol   J/K/mol
 298.15  VIB  0.950E+24            30338.194    189.532    189.582
         ROT  0.120E+09              888.752      2.981     39.943
         INT  0.114E+33            31226.946    192.513    229.525
         TR   0.218E+29             1481.254      4.968     45.888
         TOT                       32708.2004   197.4808   275.4130  1152.3281

       T/K    H(0)-H(T)+PV         H(T)/Eh          T*S/Eh         G(T)/Eh
   ------------------------------------------------------------------------
    298.15    0.521238E-01    0.858607E+00    0.130858E+00    0.727749E+00
   ------------------------------------------------------------------------

         :::::::::::::::::::::::::::::::::::::::::::::::::::::
         ::                  THERMODYNAMIC                  ::
         :::::::::::::::::::::::::::::::::::::::::::::::::::::
         :: total free energy        -157.074086754461 Eh   ::
         ::.................................................::
         :: total energy             -157.801836250316 Eh   ::
         :: zero point energy           0.806483281359 Eh   ::
         :: G(RRHO) w/o ZPVE           -0.078733785504 Eh   ::
         :: G(RRHO) contrib.            0.727749495854 Eh   ::
         :::::::::::::::::::::::::::::::::::::::::::::::::::::

           -------------------------------------------------
          | TOTAL ENERGY             -157.801836250316 Eh   |
          | TOTAL ENTHALPY           -156.943229133770 Eh   |
          | TOTAL FREE ENERGY        -157.074086754461 Eh   |
          | GRADIENT NORM               0.000073631325 Eh/α |
          | HOMO-LUMO GAP               2.166081747398 eV   |
           -------------------------------------------------

 * finished run on 2025/07/19 at 16:11:48.465
