   * xtb version 6.7.1 (edcfbbe) compiled by 'albert@albert-system' on 2024-07-22

   ID    Z sym.   atoms
    1    6 C      1-9, 11-13, 15-31, 35-46, 48-60
    2    7 N      10, 14, 47
    3   16 S      32
    4    8 O      33, 34
    5    1 H      61-103

          program call               : xtb data2507/gas/BCZ-DPS-AD/BCZ-DPS-AD_gas_T1_crest.xyz --gfn 2 --spinpol --tblite --uhf 2 --ohess vtight --parallel 40 --molden --ceasefiles --namespace data2507/gas/BCZ-DPS-AD/BCZ-DPS-AD_gas_T1_finalOpt
 * total energy  :  -157.7044710 Eh     change       -0.6980599E-08 Eh
 * total energy  :  -157.7044897 Eh     change       -0.1869420E-04 Eh
 * total energy  :  -157.7045015 Eh     change       -0.1174906E-04 Eh
 * total energy  :  -157.7045042 Eh     change       -0.2688884E-05 Eh
 * total energy  :  -157.7045056 Eh     change       -0.1431635E-05 Eh
 * total energy  :  -157.7045053 Eh     change        0.2596414E-06 Eh
 * total energy  :  -157.7045065 Eh     change       -0.1117090E-05 Eh
 * total energy  :  -157.7045073 Eh     change       -0.8049388E-06 Eh
 * total energy  :  -157.7045080 Eh     change       -0.7425858E-06 Eh
 * total energy  :  -157.7045085 Eh     change       -0.4592636E-06 Eh
 * total energy  :  -157.7045122 Eh     change       -0.2737577E-06 Eh
 * total energy  :  -157.7045126 Eh     change       -0.4042399E-06 Eh
 * total energy  :  -157.7045129 Eh     change       -0.3345372E-06 Eh
 * total energy  :  -157.7045131 Eh     change       -0.1409325E-06 Eh
 * total energy  :  -157.7045134 Eh     change       -0.2862613E-06 Eh
 * total energy  :  -157.7045133 Eh     change        0.1217207E-06 Eh
 * total energy  :  -157.7045134 Eh     change       -0.1011866E-06 Eh
 * total energy  :  -157.7045135 Eh     change       -0.1702250E-06 Eh
 * total energy  :  -157.7045136 Eh     change       -0.8891053E-07 Eh
   *** GEOMETRY OPTIMIZATION CONVERGED AFTER 27 ITERATIONS ***

 final structure:
================
103
 xtb: 6.7.1 (edcfbbe)
C            6.33679789496656       -1.03180277724861        3.02844336291360
C            5.91063354774842       -1.33504083974666        1.57935079126546
C            6.88029231364304       -2.34759995119181        0.94043418645888
C            4.52370744271221       -1.94209926121490        1.59475381424602
C            4.29500500976221       -3.12166300846756        2.29010290301349
C            3.04851085862373       -3.71941843415735        2.32615924533983
C            1.99296206246039       -3.14424867717519        1.63518497664955
C            2.19346997514465       -1.98115833224865        0.92734247873446
C            3.44805480631884       -1.35514831400925        0.91065683254781
N            3.60717925679555       -0.17260722305718        0.22264723975985
C            2.47911065415396        0.39218914794146       -0.44162907163944
C            1.57444223558421        1.17124974027402        0.30980747024666
C            0.44098670490278        1.68500816969399       -0.35050940975049
N           -0.55910856030686        2.35384826956261        0.41245955598982
C           -1.41892370908799        1.58818420067914        1.17300543982521
C           -1.26681658816073        0.19426736981473        1.20413808122961
C           -2.07255982363267       -0.58964880306538        1.99832147693222
C           -3.07516539478943       -0.00314315111375        2.75445299442883
C           -3.25764874482110        1.36644152753768        2.69542270537626
C           -2.44714977665621        2.18413921962942        1.91919309575998
C           -2.70796630288705        3.67540951228081        1.87630282634202
C           -2.61809884413040        4.23987183244234        3.30669132137032
C           -4.11912980085896        3.90401298468821        1.30173436888290
C           -1.70299142644243        4.40213154516487        1.00716810182907
C           -1.78018657756395        5.78096301574673        0.86843955566662
C           -0.87175463070642        6.49122678051501        0.10530695049542
C            0.15706702169486        5.81777398255115       -0.53611992350226
C            0.25491913788946        4.44997548665312       -0.42285379350150
C           -0.67617797624817        3.72389580633381        0.33264244403447
C            0.25137420154138        1.49583839131178       -1.69507772335021
C            1.17152674136846        0.72028795530692       -2.43141655454308
S            0.59288174259762       -0.00358299413015       -3.94101244509038
O            1.58965698302012       -0.92653380608728       -4.42536813437108
O            0.11443768005951        1.01317906691809       -4.84470156767932
C           -0.79646153297118       -0.85553822003650       -3.22010901238196
C           -2.02601481770300       -0.18383073399504       -3.19300270470520
C           -3.02248786207021       -0.57057731563037       -2.31491572744168
C           -2.76058984759474       -1.63119821835768       -1.46175726487160
C           -1.53574045791686       -2.36154561561060       -1.53924076801579
C           -0.53909558908583       -1.94198782394535       -2.40310107224299
C           -1.63142043886647       -3.41755551027252       -0.57621324512785
C           -0.76607713480849       -4.43552106835410       -0.19248297824559
C           -1.15274394145345       -5.28077731477630        0.83546068820601
C           -2.36966545092821       -5.11114011442314        1.48391000353708
C           -3.25481957316455       -4.10761590637920        1.10872179502315
C           -2.88964278605269       -3.27788099277479        0.06030561780720
N           -3.56132573297627       -2.19796632857366       -0.48633627145922
C           -4.79451044084904       -1.70224005094729       -0.06325056529502
C           -5.87210896877694       -2.56601333621277        0.14360137705144
C           -7.08430056953488       -2.06828007659912        0.57742472088561
C           -7.24516839686519       -0.70962622535731        0.80565045639835
C           -6.17974794100769        0.15228459352450        0.59040214981764
C           -4.96223304490971       -0.33340686322168        0.15998775292025
C            2.27228104678784        0.14410503879913       -1.77492075388251
C            4.81922472971726        0.47616932122041        0.15100911035822
C            4.91272711181558        1.68285908123696       -0.55695875792539
C            6.11134505278199        2.35135250344961       -0.65395164502697
C            7.24321606899671        1.83067410859911       -0.04450926809269
C            7.15318495534202        0.64627112577704        0.66343491073354
C            5.95782343564145       -0.04893583179374        0.78186687340750
H            6.33565561149496       -1.93637839996100        3.62963949128006
H            7.33556489589588       -0.60598882026041        3.05682197429572
H            5.64633686058609       -0.31982543053247        3.47654271854079
H            6.88230403539348       -3.28257860617813        1.49338417935451
H            6.57731153726921       -2.55421938588589       -0.08399211624576
H            7.89370435453921       -1.95695878733247        0.92686327427364
H            5.10824129649706       -3.59154233357161        2.82175498498161
H            2.90361911010719       -4.63217222445101        2.88324642604914
H            1.01647077802530       -3.60344788329526        1.64239236997513
H            1.37929706990705       -1.54822198455275        0.36959241308747
H            1.72686707596946        1.33649377351584        1.36277291607889
H           -0.51084330974896       -0.26898429112227        0.59302815883714
H           -1.92250868870667       -1.65798695710630        2.02196015466769
H           -3.71862095681265       -0.60827521919734        3.37390303539063
H           -4.05776876079365        1.80397405912516        3.27229014095332
H           -1.62077450685227        4.07207010405329        3.70852788765725
H           -2.81617780657010        5.30769833686499        3.31485589513606
H           -3.33772286539541        3.75628335640464        3.96080360126106
H           -4.86781548345358        3.40839011652145        1.91359468394972
H           -4.17740138353025        3.50368717315996        0.29128473714910
H           -4.35463275903954        4.96383520321327        1.26462715195995
H           -2.56900831242511        6.32256890440487        1.36781804840323
H           -0.96230979989133        7.56279172809564        0.01674492023508
H            0.88074225468354        6.36017792303712       -1.12469078080547
H            1.05229148107882        3.92171833864790       -0.92052388484788
H           -0.61779798154932        1.89040316144087       -2.19522834500472
H           -2.16906552488801        0.63309681137135       -3.88123293145351
H           -3.97495177174096       -0.06279683682703       -2.30389783600652
H            0.42187627947185       -2.43002141256816       -2.45462932417999
H            0.18492855716351       -4.55813204372895       -0.68761667220079
H           -0.49487008665410       -6.07960857911457        1.14571765818630
H           -2.63660567239640       -5.77071700471575        2.29604378257678
H           -4.18783353300165       -3.97476384302804        1.63418338112847
H           -5.75724980048148       -3.61854749520614       -0.06659178369109
H           -7.91422154245777       -2.74252211456759        0.72950788345050
H           -8.19532510867494       -0.32530556984554        1.14370967874684
H           -6.29824834937148        1.21147879209671        0.76514785464685
H           -4.12589560173817        0.33324192239329        0.01837053963524
H            2.93558373994448       -0.48879221047495       -2.34193856159763
H            4.03125148017006        2.08152664412807       -1.03276278233230
H            6.16583514651920        3.27723683204861       -1.20549552147454
H            8.18907699701619        2.34469650132668       -0.11844548724247
H            8.04327234199921        0.25824226659397        1.13460472225426

 projected vibrational frequencies (cm⁻¹)
eigval :       -0.00    -0.00     0.00     0.00     0.00     0.00
eigval :        9.68    13.30    16.53    17.37    23.18    25.40
eigval :       33.96    40.20    46.50    50.13    56.81    63.36
eigval :       66.11    78.12    89.59    93.60    94.31    99.43
eigval :      100.14   109.47   115.97   127.88   130.32   132.27
eigval :      136.68   150.13   167.35   177.29   193.14   194.76
eigval :      196.16   204.52   216.49   217.79   218.52   227.52
eigval :      235.41   242.67   245.67   253.48   255.48   264.89
eigval :      288.58   300.33   302.24   305.36   309.12   326.72
eigval :      328.79   333.93   337.11   344.42   355.74   365.98
eigval :      370.45   375.01   379.62   384.34   386.05   387.70
eigval :      392.59   408.97   409.52   415.76   426.93   447.59
eigval :      448.53   450.33   455.38   468.29   495.24   498.52
eigval :      505.30   506.13   507.49   512.98   533.20   534.90
eigval :      539.72   541.28   544.00   547.41   550.23   558.44
eigval :      565.52   583.60   583.77   586.83   587.06   607.26
eigval :      621.70   630.42   634.30   636.17   642.45   655.74
eigval :      667.67   675.56   678.78   686.08   686.79   688.61
eigval :      694.67   699.66   700.34   717.45   756.98   760.33
eigval :      764.08   766.44   769.26   773.43   774.50   778.32
eigval :      792.52   797.05   803.30   824.27   825.50   848.20
eigval :      855.39   856.09   864.41   867.61   869.70   870.39
eigval :      873.56   883.48   891.74   896.59   902.08   906.72
eigval :      911.50   911.97   912.61   913.84   914.17   914.54
eigval :      914.95   915.76   921.15   921.52   925.87   928.23
eigval :      929.63   934.80   937.00   937.70   957.82   958.12
eigval :      960.86   987.45   999.21  1008.83  1013.16  1013.22
eigval :     1040.20  1050.39  1068.57  1074.18  1075.28  1075.46
eigval :     1075.93  1085.62  1094.32  1102.18  1104.99  1111.25
eigval :     1113.31  1116.53  1119.07  1124.78  1129.68  1136.39
eigval :     1138.27  1151.21  1152.33  1157.22  1169.76  1171.95
eigval :     1175.79  1177.87  1180.25  1182.65  1183.33  1184.18
eigval :     1185.88  1196.42  1197.35  1200.22  1209.65  1224.65
eigval :     1226.92  1234.38  1238.30  1240.12  1242.33  1251.49
eigval :     1253.05  1257.63  1269.58  1285.19  1289.47  1293.57
eigval :     1293.97  1313.29  1317.08  1318.77  1324.20  1329.77
eigval :     1330.18  1331.42  1335.69  1336.05  1339.90  1345.04
eigval :     1350.49  1360.98  1391.14  1400.65  1400.80  1410.90
eigval :     1418.12  1418.29  1418.77  1419.57  1421.17  1428.75
eigval :     1429.18  1433.31  1448.87  1450.92  1456.34  1456.84
eigval :     1458.28  1473.20  1474.87  1477.21  1486.33  1486.76
eigval :     1486.88  1487.09  1488.25  1496.80  1497.22  1500.57
eigval :     1501.22  1525.34  1530.39  1550.21  1551.18  1551.67
eigval :     1552.39  1555.27  1559.65  1572.40  1573.91  1575.74
eigval :     1580.53  1583.82  3028.49  3029.98  3031.59  3034.18
eigval :     3041.84  3044.56  3046.55  3047.04  3050.95  3052.99
eigval :     3056.40  3056.62  3075.17  3078.45  3080.44  3084.33
eigval :     3084.80  3085.41  3085.65  3085.86  3087.31  3091.90
eigval :     3092.14  3092.76  3093.45  3093.87  3094.55  3095.74
eigval :     3097.23  3098.43  3101.12  3101.59  3101.74  3102.49
eigval :     3104.00  3110.05  3110.79  3111.77  3112.20  3113.69
eigval :     3115.45  3116.37  3127.91

   temp. (K)  partition function   enthalpy   heat capacity  entropy
                                   cal/mol     cal/K/mol   cal/K/mol   J/K/mol
 298.15  VIB  0.110E+24            30544.801    192.621    188.831
         ROT  0.108E+09              888.752      2.981     39.733
         INT  0.119E+32            31433.553    195.602    228.563
         TR   0.218E+29             1481.254      4.968     45.888
         TOT                       32914.8073   200.5704   274.4514  1148.3047

       T/K    H(0)-H(T)+PV         H(T)/Eh          T*S/Eh         G(T)/Eh
   ------------------------------------------------------------------------
    298.15    0.524531E-01    0.852848E+00    0.130401E+00    0.722447E+00
   ------------------------------------------------------------------------

         :::::::::::::::::::::::::::::::::::::::::::::::::::::
         ::                  THERMODYNAMIC                  ::
         :::::::::::::::::::::::::::::::::::::::::::::::::::::
         :: total free energy        -156.982066352074 Eh   ::
         ::.................................................::
         :: total energy             -157.704513611956 Eh   ::
         :: zero point energy           0.800394901237 Eh   ::
         :: G(RRHO) w/o ZPVE           -0.077947641354 Eh   ::
         :: G(RRHO) contrib.            0.722447259883 Eh   ::
         :::::::::::::::::::::::::::::::::::::::::::::::::::::

           -------------------------------------------------
          | TOTAL ENERGY             -157.704513611956 Eh   |
          | TOTAL ENTHALPY           -156.851665626490 Eh   |
          | TOTAL FREE ENERGY        -156.982066352074 Eh   |
          | GRADIENT NORM               0.000122369237 Eh/α |
           -------------------------------------------------

 * finished run on 2025/07/19 at 16:38:31.868
