   * xtb version 6.7.1 (edcfbbe) compiled by 'albert@albert-system' on 2024-07-22

   ID    Z sym.   atoms
    1    6 C      1-9, 11-13, 15-31, 35-46, 48-60
    2    7 N      10, 14, 47
    3   16 S      32
    4    8 O      33, 34
    5    1 H      61-103

          program call               : xtb data2507/gas/BCZ-DPS-AD/BCZ-DPS-AD_gas_S0_crest.xyz --gfn 2 --ohess vtight --parallel 40 --molden --ceasefiles --namespace data2507/gas/BCZ-DPS-AD/BCZ-DPS-AD_gas_S0_finalOpt
          :  Hamiltonian                  GFN2-xTB          :
 * total energy  :  -157.8018273 Eh     change       -0.1838373E-08 Eh
 * total energy  :  -157.8018281 Eh     change       -0.8291360E-06 Eh
 * total energy  :  -157.8018293 Eh     change       -0.1174290E-05 Eh
 * total energy  :  -157.8018309 Eh     change       -0.1659594E-05 Eh
 * total energy  :  -157.8018316 Eh     change       -0.6597297E-06 Eh
 * total energy  :  -157.8018322 Eh     change       -0.6336576E-06 Eh
 * total energy  :  -157.8018329 Eh     change       -0.6949804E-06 Eh
 * total energy  :  -157.8018336 Eh     change       -0.6645012E-06 Eh
 * total energy  :  -157.8018342 Eh     change       -0.5941370E-06 Eh
 * total energy  :  -157.8018347 Eh     change       -0.4750908E-06 Eh
 * total energy  :  -157.8018402 Eh     change       -0.1441601E-06 Eh
 * total energy  :  -157.8018403 Eh     change       -0.1015756E-06 Eh
 * total energy  :  -157.8018404 Eh     change       -0.1108747E-06 Eh
 * total energy  :  -157.8018405 Eh     change       -0.1182942E-06 Eh
 * total energy  :  -157.8018406 Eh     change       -0.1149874E-06 Eh
 * total energy  :  -157.8018407 Eh     change       -0.1131133E-06 Eh
 * total energy  :  -157.8018408 Eh     change       -0.1104922E-06 Eh
 * total energy  :  -157.8018409 Eh     change       -0.1079249E-06 Eh
 * total energy  :  -157.8018410 Eh     change       -0.9140928E-07 Eh
   *** GEOMETRY OPTIMIZATION CONVERGED AFTER 35 ITERATIONS ***

 final structure:
================
103
 xtb: 6.7.1 (edcfbbe)
C            6.52845707797913       -1.82656901245460        2.67147797520143
C            5.80557695074348       -2.21727289138360        1.36954883218880
C            6.39350422573962       -3.52268230318852        0.80354623728851
C            4.33683133253061       -2.44150667049023        1.67733996938749
C            3.97173752812724       -3.42480623904507        2.58682732055663
C            2.64983948283181       -3.68269930148617        2.89972674872229
C            1.65289662183947       -2.94931277153289        2.28288194927535
C            1.98744804441996       -1.97000463212596        1.37101751014740
C            3.32389782016545       -1.69470965308773        1.06724636897224
N            3.63384063384623       -0.69156147190943        0.15954538702737
C            2.57281665255146        0.00401795978732       -0.47079852265713
C            1.92415544480035        1.03541758227860        0.19810725181777
C            0.83511871668141        1.67206642256558       -0.38703074546118
N            0.10718799393828        2.65732649549016        0.32640204491881
C           -1.06999149839659        2.27473835871714        0.95093362116138
C           -1.43381274739361        0.92465267091469        0.98145094301275
C           -2.58587808142534        0.51447036660543        1.61821301969385
C           -3.40931030460773        1.44804811897149        2.22143141358390
C           -3.05073064462520        2.78332882853043        2.19327922098423
C           -1.88560460779522        3.22200911486646        1.57902562439451
C           -1.53071154484683        4.69695169701215        1.61575257285920
C           -1.41724704878965        5.13699482091880        3.08676784594244
C           -2.64231722601023        5.49079316230740        0.90572779041377
C           -0.21290789325367        4.98239246642819        0.91984810860868
C            0.27081199630613        6.28289042994652        0.87148118673607
C            1.45904895242854        6.60025280720769        0.23998259663782
C            2.19137289440483        5.59853319271254       -0.37117866483787
C            1.73304812727091        4.29836056798110       -0.34014794304408
C            0.53778919233463        3.97595779693571        0.30640042325326
C            0.40471794143630        1.28352190077696       -1.64939541000512
C            1.05438763436115        0.25308202962805       -2.29897940615382
S            0.22731751832386       -0.44943079888766       -3.73968044868218
O            0.99777534066975       -1.56744875189290       -4.21148780200901
O           -0.11717311202095        0.58949697889154       -4.67148687213822
C           -1.23800033811783       -0.99457604178394       -2.86850890556209
C           -2.43818672653705       -0.31844067245535       -3.04986111564223
C           -3.52426122251666       -0.58293328568209       -2.23916181608303
C           -3.36396529668557       -1.52301330298726       -1.22748992346365
C           -2.14444527664066       -2.23119608304799       -1.06421623406446
C           -1.06871469079348       -1.95476321279860       -1.89315518104379
C           -2.33504826325683       -3.12283767124950        0.04344164416019
C           -1.50861068602137       -4.03640558997282        0.68536688057633
C           -2.00843736572663       -4.72188962508826        1.77416352859549
C           -3.30679723382132       -4.49791810715890        2.22909663386469
C           -4.14730448948105       -3.59645994280550        1.60428588516429
C           -3.65824802715116       -2.91826454214978        0.49670775275631
N           -4.26594851286893       -1.95379763058908       -0.28587453365858
C           -5.56986243032350       -1.45936714726288       -0.10770641330960
C           -6.64395627440952       -2.34000605123205       -0.03640472782129
C           -7.92354726253392       -1.85018870298509        0.15153498840836
C           -8.13976068010772       -0.48656692133389        0.26078822790654
C           -7.06994502645842        0.38991031620560        0.18474928035784
C           -5.78560759796876       -0.08959220323999        0.00427466693044
C            2.12898992445533       -0.39457107022312       -1.72897950213591
C            4.94142839090483       -0.40472618585283       -0.20493172831074
C            5.18979940268369        0.62018955292051       -1.12103896893641
C            6.47829148638675        0.93387947400956       -1.49898685652345
C            7.54228690518030        0.23168225781200       -0.96244967843531
C            7.29760015557002       -0.77443498540263       -0.04633673137355
C            6.01087625246867       -1.11141574760506        0.35146002832555
H            6.41936763785961       -2.60242527357872        3.42418920508042
H            7.58899404125692       -1.67103275462584        2.49463069266030
H            6.10721744867937       -0.90367073111188        3.06584944419143
H            6.28016957581321       -4.33936763060214        1.51105507606930
H            5.87872746010220       -3.79152050059485       -0.11688308528358
H            7.45116675569067       -3.40813430407160        0.58352348140533
H            4.73867375781620       -4.01095930158881        3.06994527004438
H            2.40269600594758       -4.45170272855384        3.61551987481595
H            0.61295328967611       -3.13460399455063        2.50712482100749
H            1.19989128912142       -1.41149303217455        0.88836068951340
H            2.24657815241280        1.32086964383548        1.18850611746000
H           -0.80508853273596        0.18608500393387        0.50794138838127
H           -2.83142268536274       -0.53618848892778        1.65072421772472
H           -4.31842728815575        1.13948339586403        2.71513765996463
H           -3.69969595489695        3.50026500663161        2.67295135193212
H           -2.35159054968579        4.97221634305287        3.61597903593379
H           -0.63569219218069        4.56557131948824        3.58390649425800
H           -1.16855268876289        6.19200014554345        3.15806290849638
H           -2.43295388902304        6.55652171750916        0.93026373818057
H           -3.60447300628336        5.32170163113886        1.38156993880924
H           -2.71310907460257        5.17931037323309       -0.13477565091719
H           -0.29339291871094        7.07717993950777        1.33632849907825
H            1.80617638387377        7.62189427604048        0.22198967632705
H            3.11847135011691        5.82652418613420       -0.87497438694860
H            2.30235513251985        3.52033745783728       -0.82537409595906
H           -0.44825834228111        1.75502337291925       -2.11171127630035
H           -2.49253266148262        0.41391386744219       -3.83980199078545
H           -4.46366936962145       -0.07291660703637       -2.38455422672835
H           -0.12288585338865       -2.46343758182674       -1.79226105325296
H           -0.49926423325533       -4.19742508669096        0.33897102326307
H           -1.38529129064119       -5.43762763080997        2.28895082248122
H           -3.66376020928277       -5.03943603642018        3.09240745789902
H           -5.14557940424466       -3.41838330952921        1.97407471774507
H           -6.47180155425712       -3.40082319423396       -0.14109514953461
H           -8.75549571009554       -2.53625371848239        0.20603548687070
H           -9.14024711425381       -0.10804866259595        0.40510347682406
H           -7.23360446852092        1.45341587909930        0.27403114056268
H           -4.94517622887071        0.58736523556880       -0.03010913359661
H            2.59593475115156       -1.21297677837527       -2.25466943254166
H            4.36254384490634        1.17317972611120       -1.53956100373808
H            6.64811957943191        1.72736965061406       -2.21099909420675
H            8.55535031316676        0.46631568360782       -1.25103718103106
H            8.13868587535649       -1.30954445685066        0.36779916406288

          :  Hamiltonian                  GFN2-xTB          :
         :: gradient norm              0.000037619525 Eh/a0 ::
         :: HOMO-LUMO gap              2.165824409356 eV    ::
         :: SCC energy              -160.557369546579 Eh    ::
         :: -> dispersion             -0.161861541710 Eh    ::
         :: repulsion energy           2.755528509347 Eh    ::

    * Orbital Energies and Occupations

         #    Occupation            Energy/Eh            Energy/eV
      -------------------------------------------------------------
         1        2.0000           -0.7673893             -20.8817
       ...           ...                  ...                  ...
       134        2.0000           -0.4103403             -11.1659
       135        2.0000           -0.4087289             -11.1221
       136        2.0000           -0.4083154             -11.1108
       137        2.0000           -0.4046864             -11.0121
       138        2.0000           -0.4036127             -10.9829
       139        2.0000           -0.4030092             -10.9664
       140        2.0000           -0.3992044             -10.8629
       141        2.0000           -0.3970789             -10.8051
       142        2.0000           -0.3959821             -10.7752
       143        2.0000           -0.3936008             -10.7104
       144        2.0000           -0.3790955             -10.3157
       145        2.0000           -0.3529427              -9.6041
       146        2.0000           -0.3490225              -9.4974 (HOMO)
       147                         -0.2694300              -7.3316 (LUMO)
       148                         -0.2632393              -7.1631
       149                         -0.2595880              -7.0637
       150                         -0.2488459              -6.7714
       151                         -0.2425531              -6.6002
       152                         -0.2414219              -6.5694
       153                         -0.2292854              -6.2392
       154                         -0.2257774              -6.1437
       155                         -0.2252709              -6.1299
       156                         -0.2214842              -6.0269
       157                         -0.2208810              -6.0105
       ...                                ...                  ...
       288                          1.2228807              33.2763
      -------------------------------------------------------------
                  HL-Gap            0.0795925 Eh            2.1658 eV

     #   Z          covCN         q      C6AA      α(0)
     1   6 C        3.761    -0.104    22.530     6.766
     2   6 C        3.909     0.021    20.156     6.381
     3   6 C        3.761    -0.104    22.534     6.767
     4   6 C        2.979    -0.012    28.313     8.728
     5   6 C        2.928    -0.036    28.886     8.814
     6   6 C        2.917    -0.044    29.098     8.846
     7   6 C        2.919    -0.033    28.825     8.804
     8   6 C        2.924    -0.059    29.457     8.901
     9   6 C        2.929     0.058    26.708     8.475
    10   7 N        2.755    -0.070    22.606     7.062
    11   6 C        2.930     0.080    26.210     8.396
    12   6 C        2.924    -0.047    29.167     8.857
    13   6 C        2.930     0.079    26.232     8.399
    14   7 N        2.755    -0.071    22.613     7.063
    15   6 C        2.930     0.058    26.702     8.474
    16   6 C        2.924    -0.058    29.452     8.900
    17   6 C        2.920    -0.033    28.816     8.803
    18   6 C        2.917    -0.045    29.120     8.849
    19   6 C        2.928    -0.036    28.903     8.817
    20   6 C        2.979    -0.012    28.316     8.729
    21   6 C        3.909     0.022    20.155     6.381
    22   6 C        3.761    -0.104    22.538     6.768
    23   6 C        3.761    -0.104    22.527     6.766
    24   6 C        2.979    -0.013    28.337     8.732
    25   6 C        2.928    -0.036    28.884     8.814
    26   6 C        2.917    -0.043    29.076     8.842
    27   6 C        2.920    -0.031    28.781     8.797
    28   6 C        2.924    -0.057    29.420     8.895
    29   6 C        2.928     0.058    26.702     8.474
    30   6 C        2.972    -0.043    29.064     8.843
    31   6 C        2.969    -0.077    29.910     8.971
    32  16 S        3.837     0.957   107.890    17.482
    33   8 O        0.860    -0.536    24.585     6.648
    34   8 O        0.860    -0.536    24.586     6.648
    35   6 C        2.973    -0.090    30.252     9.022
    36   6 C        2.958    -0.032    28.807     8.803
    37   6 C        2.911    -0.046    29.149     8.853
    38   6 C        3.075     0.053    26.728     8.476
    39   6 C        3.074    -0.010    28.185     8.704
    40   6 C        2.966    -0.035    28.861     8.812
    41   6 C        3.066    -0.015    28.309     8.725
    42   6 C        2.912    -0.030    28.750     8.792
    43   6 C        2.920    -0.037    28.932     8.821
    44   6 C        2.924    -0.031    28.764     8.795
    45   6 C        2.909    -0.049    29.208     8.862
    46   6 C        3.080     0.049    26.811     8.489
    47   7 N        2.803    -0.035    21.910     6.952
    48   6 C        2.914     0.063    26.590     8.456
    49   6 C        2.922    -0.041    29.018     8.834
    50   6 C        2.920    -0.027    28.678     8.782
    51   6 C        2.919    -0.031    28.776     8.797
    52   6 C        2.920    -0.026    28.662     8.779
    53   6 C        2.922    -0.041    29.029     8.835
    54   6 C        2.953    -0.039    28.957     8.826
    55   6 C        2.928     0.058    26.705     8.475
    56   6 C        2.924    -0.057    29.424     8.896
    57   6 C        2.920    -0.031    28.783     8.798
    58   6 C        2.917    -0.043    29.077     8.843
    59   6 C        2.928    -0.035    28.883     8.814
    60   6 C        2.979    -0.013    28.324     8.730
    61   1 H        0.925     0.040     2.451     2.448
    62   1 H        0.925     0.040     2.443     2.444
    63   1 H        0.925     0.032     2.565     2.504
    64   1 H        0.925     0.040     2.451     2.448
    65   1 H        0.925     0.033     2.540     2.493
    66   1 H        0.925     0.041     2.440     2.443
    67   1 H        0.926     0.032     2.555     2.500
    68   1 H        0.926     0.027     2.625     2.533
    69   1 H        0.926     0.030     2.590     2.517
    70   1 H        0.926     0.015     2.814     2.623
    71   1 H        0.926     0.065     2.145     2.290
    72   1 H        0.926     0.012     2.860     2.644
    73   1 H        0.926     0.024     2.677     2.559
    74   1 H        0.926     0.026     2.640     2.541
    75   1 H        0.926     0.033     2.550     2.497
    76   1 H        0.925     0.040     2.451     2.448
    77   1 H        0.925     0.032     2.553     2.498
    78   1 H        0.925     0.041     2.434     2.439
    79   1 H        0.925     0.041     2.431     2.438
    80   1 H        0.925     0.039     2.459     2.452
    81   1 H        0.925     0.032     2.558     2.501
    82   1 H        0.926     0.032     2.559     2.502
    83   1 H        0.926     0.029     2.596     2.520
    84   1 H        0.926     0.031     2.565     2.505
    85   1 H        0.926     0.023     2.692     2.566
    86   1 H        0.926     0.059     2.212     2.326
    87   1 H        0.926     0.061     2.188     2.313
    88   1 H        0.926     0.046     2.368     2.406
    89   1 H        0.926     0.047     2.356     2.400
    90   1 H        0.926     0.040     2.450     2.448
    91   1 H        0.926     0.036     2.509     2.477
    92   1 H        0.926     0.036     2.506     2.476
    93   1 H        0.926     0.033     2.541     2.493
    94   1 H        0.926     0.043     2.407     2.426
    95   1 H        0.926     0.040     2.445     2.445
    96   1 H        0.926     0.039     2.456     2.451
    97   1 H        0.926     0.040     2.445     2.445
    98   1 H        0.926     0.045     2.381     2.413
    99   1 H        0.926     0.074     2.037     2.232
   100   1 H        0.926     0.021     2.725     2.581
   101   1 H        0.926     0.031     2.576     2.510
   102   1 H        0.926     0.029     2.603     2.523
   103   1 H        0.926     0.032     2.560     2.502

molecular dipole:
                 x           y           z       tot (Debye)
 q only:       -1.572       0.088       2.599
   full:       -1.645       0.098       2.469       7.544

 projected vibrational frequencies (cm⁻¹)
eigval :       -0.00     0.00     0.00     0.00     0.00     0.00
eigval :        6.38     7.22    11.83    14.64    20.20    25.71
eigval :       29.94    32.89    43.39    46.22    54.60    60.03
eigval :       62.57    73.14    85.97    89.33    92.64    96.86
eigval :       98.83   106.24   113.83   123.50   129.33   129.94
eigval :      137.25   151.41   168.81   172.99   190.75   191.41
eigval :      195.85   209.72   219.43   221.67   223.05   225.63
eigval :      235.03   239.10   243.49   249.78   262.71   269.12
eigval :      280.43   296.60   305.61   306.49   316.38   331.48
eigval :      331.89   337.46   339.26   346.67   353.09   368.24
eigval :      370.30   376.92   382.11   384.51   386.47   394.48
eigval :      401.35   409.87   411.89   427.25   442.52   449.24
eigval :      450.46   454.48   475.89   484.78   489.68   500.28
eigval :      514.07   516.35   517.14   525.18   537.47   538.20
eigval :      543.36   548.32   548.98   550.03   556.23   576.88
eigval :      584.77   586.05   588.19   592.28   601.15   612.25
eigval :      621.72   640.19   646.93   657.71   672.83   677.63
eigval :      677.97   679.40   682.42   682.69   693.29   693.42
eigval :      695.91   709.46   725.41   765.58   768.00   771.90
eigval :      775.90   776.84   777.81   780.54   783.03   803.49
eigval :      820.87   824.01   824.43   833.35   861.45   864.57
eigval :      866.60   867.09   872.63   876.40   885.54   891.05
eigval :      899.65   901.08   906.73   910.09   913.34   913.67
eigval :      915.23   915.67   916.39   917.73   917.96   921.03
eigval :      921.43   921.73   924.67   924.77   927.89   930.31
eigval :      934.39   937.29   938.60   939.35   957.38   957.47
eigval :      993.77   998.29  1014.48  1014.60  1016.93  1022.94
eigval :     1070.22  1077.25  1077.51  1080.33  1083.01  1087.50
eigval :     1090.10  1101.86  1112.39  1113.75  1118.42  1118.73
eigval :     1119.30  1119.68  1127.51  1140.64  1141.32  1141.67
eigval :     1149.26  1160.94  1161.01  1177.09  1177.55  1179.82
eigval :     1180.87  1182.51  1186.15  1186.46  1187.49  1190.08
eigval :     1198.01  1203.79  1215.06  1218.00  1238.32  1240.71
eigval :     1247.68  1249.03  1250.23  1250.29  1265.68  1269.81
eigval :     1272.55  1276.38  1288.02  1294.12  1294.50  1297.62
eigval :     1304.35  1317.51  1325.08  1325.30  1332.76  1334.17
eigval :     1340.64  1344.10  1346.58  1355.00  1359.53  1369.20
eigval :     1402.82  1403.01  1415.03  1417.58  1420.80  1421.31
eigval :     1429.04  1434.63  1435.55  1437.44  1443.51  1443.65
eigval :     1446.55  1464.51  1480.04  1482.35  1482.64  1483.97
eigval :     1489.63  1489.66  1490.60  1490.60  1494.05  1497.20
eigval :     1500.13  1500.17  1504.93  1505.23  1548.41  1565.74
eigval :     1575.84  1576.63  1582.68  1582.87  1586.18  1589.54
eigval :     1591.35  1592.11  1593.15  1593.60  1595.31  1601.99
eigval :     1602.88  1610.95  3027.52  3027.60  3030.09  3030.29
eigval :     3040.01  3040.37  3043.12  3043.37  3049.37  3049.39
eigval :     3053.36  3053.58  3079.33  3079.82  3080.50  3081.16
eigval :     3081.71  3082.41  3083.95  3084.09  3084.57  3085.07
eigval :     3086.16  3087.66  3091.85  3092.46  3092.50  3093.18
eigval :     3094.30  3094.74  3095.46  3096.98  3097.93  3099.24
eigval :     3100.23  3100.43  3101.06  3101.63  3101.85  3102.36
eigval :     3106.59  3107.02  3108.83

   temp. (K)  partition function   enthalpy   heat capacity  entropy
                                   cal/mol     cal/K/mol   cal/K/mol   J/K/mol
 298.15  VIB  0.976E+24            30339.825    189.529    189.610
         ROT  0.119E+09              888.752      2.981     39.940
         INT  0.116E+33            31228.578    192.510    229.550
         TR   0.218E+29             1481.254      4.968     45.888
         TOT                       32709.8315   197.4777   275.4383  1152.4339

       T/K    H(0)-H(T)+PV         H(T)/Eh          T*S/Eh         G(T)/Eh
   ------------------------------------------------------------------------
    298.15    0.521264E-01    0.858602E+00    0.130870E+00    0.727732E+00
   ------------------------------------------------------------------------

         :::::::::::::::::::::::::::::::::::::::::::::::::::::
         ::                  THERMODYNAMIC                  ::
         :::::::::::::::::::::::::::::::::::::::::::::::::::::
         :: total free energy        -157.074108874083 Eh   ::
         ::.................................................::
         :: total energy             -157.801841037235 Eh   ::
         :: zero point energy           0.806475354253 Eh   ::
         :: G(RRHO) w/o ZPVE           -0.078743191102 Eh   ::
         :: G(RRHO) contrib.            0.727732163151 Eh   ::
         :::::::::::::::::::::::::::::::::::::::::::::::::::::

           -------------------------------------------------
          | TOTAL ENERGY             -157.801841037235 Eh   |
          | TOTAL ENTHALPY           -156.943239248514 Eh   |
          | TOTAL FREE ENERGY        -157.074108874083 Eh   |
          | GRADIENT NORM               0.000037592628 Eh/α |
          | HOMO-LUMO GAP               2.165822909858 eV   |
           -------------------------------------------------

 * finished run on 2025/07/19 at 16:22:07.449
