   * xtb version 6.7.1 (edcfbbe) compiled by 'albert@albert-system' on 2024-07-22

   ID    Z sym.   atoms
    1    8 O      1, 3, 11, 22, 29, 31
    2    6 C      2, 4-10, 12-17, 20, 21, 23-28, 30
    3   35 Br     18
    4   16 S      19
    5    1 H      32-44

          program call               : xtb data2507/toluene/3-BHH/3-BHH.xyz --gfn 2 --gbsa toluene --ohess vtight --parallel 40 --molden --ceasefiles --namespace data2507/toluene/3-BHH/3-BHH_toluene_S0_preOpt
      * Solvation model:               GBSA
        Solvent                        toluene
        Solvent mass                       9.2140E+01 g/mol
          :  Hamiltonian                  GFN2-xTB          :
 * total energy  :   -87.6627720 Eh     change       -0.8706138E-09 Eh
 * total energy  :   -87.6803153 Eh     change       -0.1754323E-01 Eh
 * total energy  :   -87.6879773 Eh     change       -0.7662045E-02 Eh
 * total energy  :   -87.6899794 Eh     change       -0.2002067E-02 Eh
 * total energy  :   -87.6912446 Eh     change       -0.1265262E-02 Eh
 * total energy  :   -87.6918952 Eh     change       -0.6505829E-03 Eh
 * total energy  :   -87.6924980 Eh     change       -0.6027876E-03 Eh
 * total energy  :   -87.6930088 Eh     change       -0.5108007E-03 Eh
 * total energy  :   -87.6932884 Eh     change       -0.2795628E-03 Eh
 * total energy  :   -87.6934998 Eh     change       -0.2114833E-03 Eh
 * total energy  :   -87.6950507 Eh     change       -0.1322208E-05 Eh
 * total energy  :   -87.6950515 Eh     change       -0.8028545E-06 Eh
 * total energy  :   -87.6950520 Eh     change       -0.4995157E-06 Eh
 * total energy  :   -87.6950524 Eh     change       -0.3939530E-06 Eh
 * total energy  :   -87.6950528 Eh     change       -0.3813727E-06 Eh
 * total energy  :   -87.6950532 Eh     change       -0.3970803E-06 Eh
 * total energy  :   -87.6950536 Eh     change       -0.4194064E-06 Eh
 * total energy  :   -87.6950540 Eh     change       -0.4382501E-06 Eh
 * total energy  :   -87.6950540 Eh     change       -0.4276657E-08 Eh
   *** GEOMETRY OPTIMIZATION CONVERGED AFTER 44 ITERATIONS ***

 final structure:
================
44
 xtb: 6.7.1 (edcfbbe)
O           -0.61718641716676        1.08974298653775       -2.73175547952333
C           -1.38435540743426        0.96622055728041       -1.77628972574116
O           -2.47435883143526        1.75681805156787       -1.76232018894192
C           -3.35554842031945        1.72769654255429       -0.72891378646614
C           -4.47910602808584        2.54771984542034       -0.80600304911958
C           -5.38150082848466        2.55858960310227        0.23665846137027
C           -5.17532145166245        1.76136040931813        1.36076822779838
C           -4.06668602175824        0.95093686898210        1.44231529287280
C           -3.13870071641413        0.91994268076374        0.39362515311200
C           -1.96508481047116        0.06985699320260        0.41796364230746
O           -1.78956506129098       -0.63810740205693        1.52056354569476
C           -1.15439887351038        0.04878517649628       -0.69118371044035
C            0.04434872634877       -0.85887644718245       -0.89834530723955
C           -0.21635432908508       -2.30162197775660       -0.57744532198831
C           -1.39269579207732       -2.95761865880599       -0.38941048714581
C           -1.24158973002179       -4.35184782087216       -0.21207366410608
C            0.05818065576010       -4.73229631376567       -0.29034984339625
Br           0.73908024875619       -6.47808815979347       -0.11736571536928
S            1.12901485574025       -3.40293971078989       -0.58203450195818
C            1.29722712520074       -0.33843992873754       -0.21296802513958
C            2.18635909212839        0.48596291800826       -0.86245153877848
O            2.01246997019244        0.99969006086777       -2.07077856214865
C            3.42931120488577        0.81763753122684       -0.20084846782201
C            4.42938004978626        1.58748623809418       -0.80876573905677
C            5.60102527253884        1.85096473903302       -0.13821155245797
C            5.80009721119195        1.35675844435496        1.14960775402161
C            4.82778669007608        0.60076628212001        1.76958651263710
C            3.63944627942722        0.32976067708269        1.09481384410060
O            2.69338886835682       -0.39879840122604        1.74093189224265
C            1.53215128591831       -0.73753048581508        1.14550458167971
O            0.72692592765869       -1.37200264209194        1.82800802101092
H           -4.61592746677584        3.15816286405688       -1.68408007631922
H           -6.25299233288721        3.19194470830858        0.17909637276133
H           -5.88801475744176        1.78033795911771        2.17021916662207
H           -3.88692162776413        0.32497747810191        2.30179975796536
H           -0.89771889930519       -1.07325861389881        1.57441208439510
H            0.24448211534918       -0.83017818141596       -1.98105456229592
H           -2.35375331124694       -2.47737070899387       -0.37295609859893
H           -2.05524169498927       -5.03077456067177       -0.03456266834682
H            1.08740404761486        0.92186980232014       -2.41395617347441
H            4.25440771544483        1.95686174665884       -1.80656059255960
H            6.36973021904668        2.44206779064516       -0.61065722260950
H            6.72183213813452        1.56654996471540        1.66954882423599
H            4.95897111007187        0.21028209393714        2.76591892621819

          :  Hamiltonian                  GFN2-xTB          :
         :: gradient norm              0.000052288658 Eh/a0 ::
         :: HOMO-LUMO gap              2.640876222875 eV    ::
         :: SCC energy               -88.820152056687 Eh    ::
         :: -> dispersion             -0.063358948223 Eh    ::
         :: -> Gsolv                  -0.040466486358 Eh    ::
         :: repulsion energy           1.125098043545 Eh    ::

    * Orbital Energies and Occupations

         #    Occupation            Energy/Eh            Energy/eV
      -------------------------------------------------------------
         1        2.0000           -0.8520472             -23.1854
       ...           ...                  ...                  ...
        65        2.0000           -0.4513563             -12.2820
        66        2.0000           -0.4483768             -12.2010
        67        2.0000           -0.4463837             -12.1467
        68        2.0000           -0.4449902             -12.1088
        69        2.0000           -0.4368897             -11.8884
        70        2.0000           -0.4353334             -11.8460
        71        2.0000           -0.4256927             -11.5837
        72        2.0000           -0.4249880             -11.5645
        73        2.0000           -0.4243818             -11.5480
        74        2.0000           -0.4203517             -11.4384
        75        2.0000           -0.4170857             -11.3495
        76        2.0000           -0.4085956             -11.1185
        77        2.0000           -0.3960932             -10.7782 (HOMO)
        78                         -0.2990429              -8.1374 (LUMO)
        79                         -0.2981167              -8.1122
        80                         -0.2686689              -7.3109
        81                         -0.2583887              -7.0311
        82                         -0.2562513              -6.9730
        83                         -0.2387720              -6.4973
        84                         -0.2381637              -6.4808
        85                         -0.2358200              -6.4170
        86                         -0.2128340              -5.7915
        87                         -0.1914032              -5.2083
        88                         -0.1833763              -4.9899
       ...                                ...                  ...
       147                          0.6612642              17.9939
      -------------------------------------------------------------
                  HL-Gap            0.0970504 Eh            2.6409 eV

     #   Z          covCN         q      C6AA      α(0)
     1   8 O        0.857    -0.492    23.614     6.515
     2   6 C        2.732     0.333    21.337     7.562
     3   8 O        1.710    -0.225    17.726     5.685
     4   6 C        2.882     0.140    24.943     8.188
     5   6 C        2.914    -0.043    29.058     8.840
     6   6 C        2.921    -0.016    28.417     8.742
     7   6 C        2.917    -0.027    28.667     8.780
     8   6 C        2.921    -0.020    28.501     8.755
     9   6 C        2.980    -0.023    28.572     8.768
    10   6 C        2.837     0.172    24.301     8.078
    11   8 O        1.657    -0.366    20.211     6.069
    12   6 C        2.955    -0.101    30.532     9.063
    13   6 C        3.891    -0.003    20.578     6.449
    14   6 C        2.988     0.018    27.591     8.616
    15   6 C        3.116    -0.053    29.149     8.843
    16   6 C        3.135    -0.050    29.011     8.816
    17   6 C        2.938     0.082    26.162     8.389
    18  35 Br       1.127    -0.147   189.109    22.173
    19  16 S        2.466    -0.020   141.889    20.048
    20   6 C        2.956    -0.098    30.454     9.052
    21   6 C        2.839     0.170    24.344     8.086
    22   8 O        1.657    -0.361    20.106     6.053
    23   6 C        2.980    -0.022    28.542     8.763
    24   6 C        2.920    -0.019    28.490     8.753
    25   6 C        2.917    -0.026    28.659     8.779
    26   6 C        2.921    -0.016    28.407     8.740
    27   6 C        2.914    -0.042    29.052     8.839
    28   6 C        2.882     0.141    24.922     8.184
    29   8 O        1.710    -0.227    17.764     5.691
    30   6 C        2.727     0.338    21.257     7.548
    31   8 O        0.857    -0.489    23.534     6.504
    32   1 H        0.926     0.074     2.039     2.233
    33   1 H        0.926     0.073     2.049     2.238
    34   1 H        0.926     0.070     2.088     2.260
    35   1 H        0.926     0.077     2.006     2.215
    36   1 H        0.801     0.353     0.583     1.199
    37   1 H        0.923     0.075     2.035     2.231
    38   1 H        0.926     0.055     2.253     2.347
    39   1 H        0.926     0.065     2.140     2.288
    40   1 H        0.801     0.351     0.587     1.204
    41   1 H        0.926     0.079     1.993     2.208
    42   1 H        0.926     0.071     2.079     2.255
    43   1 H        0.926     0.074     2.045     2.236
    44   1 H        0.926     0.074     2.042     2.235

molecular dipole:
                 x           y           z       tot (Debye)
 q only:       -0.249       2.390       0.604
   full:       -0.547       2.597       0.544       6.885

 projected vibrational frequencies (cm⁻¹)
eigval :       -0.00    -0.00    -0.00     0.00     0.00     0.00
eigval :       19.05    27.59    33.42    41.51    58.53    71.40
eigval :       83.78   111.76   119.04   124.85   139.39   144.84
eigval :      166.65   173.13   177.45   202.07   257.76   262.51
eigval :      267.15   276.74   281.19   306.17   309.10   317.95
eigval :      371.09   386.75   402.67   412.32   418.29   432.54
eigval :      445.07   454.38   484.17   496.21   501.33   520.90
eigval :      530.30   533.48   543.31   593.55   613.68   614.48
eigval :      622.44   635.76   650.62   659.78   682.34   685.59
eigval :      707.67   712.09   715.88   732.73   754.27   764.73
eigval :      779.75   786.15   787.55   791.87   799.27   836.96
eigval :      857.25   867.44   880.59   883.50   897.03   911.67
eigval :      919.41   919.84   928.40   932.22   956.94  1055.04
eigval :     1072.43  1073.17  1074.55  1086.24  1106.98  1119.65
eigval :     1138.67  1162.90  1166.17  1177.07  1178.99  1193.24
eigval :     1195.30  1213.13  1220.38  1228.47  1236.66  1240.02
eigval :     1252.11  1263.68  1309.23  1316.95  1325.77  1346.07
eigval :     1347.07  1362.79  1364.76  1425.96  1427.29  1450.95
eigval :     1454.42  1470.12  1527.79  1542.07  1564.83  1572.45
eigval :     1576.62  1587.62  1589.26  1620.15  1624.22  2868.61
eigval :     2920.84  2998.34  3096.62  3097.51  3104.25  3104.83
eigval :     3114.02  3114.07  3116.22  3116.31  3136.78  3146.42

   temp. (K)  partition function   enthalpy   heat capacity  entropy
                                   cal/mol     cal/K/mol   cal/K/mol   J/K/mol
 298.15  VIB  0.103E+11            14134.934     89.713     86.258
         ROT  0.325E+08              888.752      2.981     37.353
         INT  0.335E+18            15023.686     92.694    123.610
         TR   0.107E+29             1481.254      4.968     44.479
         TOT                       16504.9403    97.6624   168.0893   703.2854

       T/K    H(0)-H(T)+PV         H(T)/Eh          T*S/Eh         G(T)/Eh
   ------------------------------------------------------------------------
    298.15    0.263023E-01    0.324704E+00    0.798646E-01    0.244840E+00
   ------------------------------------------------------------------------

         :::::::::::::::::::::::::::::::::::::::::::::::::::::
         ::                  THERMODYNAMIC                  ::
         :::::::::::::::::::::::::::::::::::::::::::::::::::::
         :: total free energy         -87.450214345624 Eh   ::
         ::.................................................::
         :: total energy              -87.695054013270 Eh   ::
         :: zero point energy           0.298401997812 Eh   ::
         :: G(RRHO) w/o ZPVE           -0.053562330166 Eh   ::
         :: G(RRHO) contrib.            0.244839667645 Eh   ::
         :::::::::::::::::::::::::::::::::::::::::::::::::::::

           -------------------------------------------------
          | TOTAL ENERGY              -87.695054013270 Eh   |
          | TOTAL ENTHALPY            -87.370349718922 Eh   |
          | TOTAL FREE ENERGY         -87.450214345624 Eh   |
          | GRADIENT NORM               0.000052301617 Eh/α |
          | HOMO-LUMO GAP               2.640875205244 eV   |
           -------------------------------------------------

 * finished run on 2025/07/20 at 18:48:55.474
