   * xtb version 6.7.1 (edcfbbe) compiled by 'albert@albert-system' on 2024-07-22

   ID    Z sym.   atoms
    1    8 O      1, 3, 11, 22, 29, 31
    2    6 C      2, 4-10, 12-17, 20, 21, 23-28, 30
    3   35 Br     18
    4   16 S      19
    5    1 H      32-44

          program call               : xtb data2507/toluene/3-BHH/3-BHH_toluene_S0_crest.xyz --gfn 2 --gbsa toluene --ohess vtight --parallel 40 --molden --ceasefiles --namespace data2507/toluene/3-BHH/3-BHH_toluene_S0_finalOpt
      * Solvation model:               GBSA
        Solvent                        toluene
        Solvent mass                       9.2140E+01 g/mol
          :  Hamiltonian                  GFN2-xTB          :
 * total energy  :   -87.6944041 Eh     change       -0.1730726E-08 Eh
 * total energy  :   -87.6948720 Eh     change       -0.4678590E-03 Eh
 * total energy  :   -87.6949931 Eh     change       -0.1211706E-03 Eh
 * total energy  :   -87.6950106 Eh     change       -0.1744816E-04 Eh
 * total energy  :   -87.6950233 Eh     change       -0.1270472E-04 Eh
 * total energy  :   -87.6950302 Eh     change       -0.6868975E-05 Eh
 * total energy  :   -87.6950369 Eh     change       -0.6749077E-05 Eh
 * total energy  :   -87.6950401 Eh     change       -0.3208447E-05 Eh
 * total energy  :   -87.6950437 Eh     change       -0.3548281E-05 Eh
 * total energy  :   -87.6950472 Eh     change       -0.3495029E-05 Eh
 * total energy  :   -87.6950485 Eh     change       -0.1285016E-05 Eh
 * total energy  :   -87.6950491 Eh     change       -0.6600741E-06 Eh
 * total energy  :   -87.6950496 Eh     change       -0.4691594E-06 Eh
 * total energy  :   -87.6950499 Eh     change       -0.3105514E-06 Eh
 * total energy  :   -87.6950501 Eh     change       -0.1658322E-06 Eh
 * total energy  :   -87.6950501 Eh     change       -0.2858084E-07 Eh
   *** GEOMETRY OPTIMIZATION CONVERGED AFTER 16 ITERATIONS ***

 final structure:
================
44
 xtb: 6.7.1 (edcfbbe)
O           -2.40427179638201        0.35529617981367       -2.58804517358079
C           -2.67138546102994       -0.31824084013043       -1.59222406454937
O           -3.91424868487865       -0.83092637036445       -1.51702092344991
C           -4.32052080531930       -1.54440397750645       -0.43486614169075
C           -5.61015710966038       -2.07109089779346       -0.44707445355759
C           -6.06232305552134       -2.77829146120284        0.64701944777499
C           -5.24245396089677       -2.96640173416281        1.75793424926990
C           -3.96798920808247       -2.44864038350160        1.77465442393766
C           -3.48552805853605       -1.73041200873468        0.67317528034448
C           -2.14545738543909       -1.18006971104326        0.62959300882126
O           -1.41647661251388       -1.35359153721857        1.71889102679093
C           -1.73684840217520       -0.55316903499140       -0.52263770818343
C           -0.34436599599247       -0.01471658962968       -0.79588388412489
C            0.76259682453282       -0.97452635034161       -0.47101405955349
C            0.71960790759623       -2.30853870767819       -0.21064485771711
C            1.99592983323902       -2.89719411305745       -0.05852890455071
C            2.99224667915123       -1.99254351733858       -0.22876785501543
Br           4.84333856092972       -2.31245583027757       -0.11956457220788
S            2.40119582779833       -0.40237821186453       -0.57616462594979
C           -0.11646961721228        1.35251595042165       -0.17195558951004
C           -0.38134124467405        2.51350061242997       -0.86016905368292
O           -0.94725823327162        2.58334184667824       -2.05576574439420
C           -0.00513519187167        3.77374067563014       -0.25776855365250
C           -0.16811257369376        5.00318345288630       -0.90900388320131
C            0.22551022270586        6.16820664798101       -0.29281213242080
C            0.78564657732081        6.13380910033969        0.98290186228427
C            0.95219205177984        4.93556560049917        1.64457001171169
C            0.55703304682704        3.75213164190102        1.02461732820032
O            0.71459498357476        2.59136731034127        1.71101592350994
C            0.38957014940936        1.39975881178624        1.17037538662132
O            0.54139340913622        0.40905483768019        1.88599970200539
H           -6.22771454828042       -1.90957487251192       -1.31595557612577
H           -7.06071126368516       -3.18710675457463        0.64015770408985
H           -5.60917139268741       -3.51987071228357        2.60806356061171
H           -3.31486171391915       -2.58329142640527        2.62207542428557
H           -0.57456335674434       -0.82588400040679        1.72095332344363
H           -0.29870975902164        0.12691880249667       -1.88715529739331
H           -0.18840464731858       -2.87646978491454       -0.12432354426590
H            2.16041988086891       -3.93501062762120        0.16601730249424
H           -1.36803445813838        1.73876549935438       -2.35389441900307
H           -0.60212762953842        5.00487026505947       -1.89607486736861
H            0.10020899970844        7.11288004728613       -0.79809279756851
H            1.09161641065511        7.05151363908969        1.46054871266841
H            1.38096885395018        4.88521153398101        2.63251788215285

          :  Hamiltonian                  GFN2-xTB          :
         :: gradient norm              0.000164897546 Eh/a0 ::
         :: HOMO-LUMO gap              2.639665629671 eV    ::
         :: SCC energy               -88.820192168656 Eh    ::
         :: -> dispersion             -0.063332726177 Eh    ::
         :: -> Gsolv                  -0.040494100777 Eh    ::
         :: repulsion energy           1.125142078283 Eh    ::

    * Orbital Energies and Occupations

         #    Occupation            Energy/Eh            Energy/eV
      -------------------------------------------------------------
         1        2.0000           -0.8520551             -23.1856
       ...           ...                  ...                  ...
        65        2.0000           -0.4513928             -12.2830
        66        2.0000           -0.4484419             -12.2027
        67        2.0000           -0.4464224             -12.1478
        68        2.0000           -0.4450583             -12.1107
        69        2.0000           -0.4368931             -11.8885
        70        2.0000           -0.4353086             -11.8454
        71        2.0000           -0.4256988             -11.5839
        72        2.0000           -0.4250127             -11.5652
        73        2.0000           -0.4244028             -11.5486
        74        2.0000           -0.4204340             -11.4406
        75        2.0000           -0.4170365             -11.3481
        76        2.0000           -0.4086587             -11.1202
        77        2.0000           -0.3960658             -10.7775 (HOMO)
        78                         -0.2990598              -8.1378 (LUMO)
        79                         -0.2981354              -8.1127
        80                         -0.2686104              -7.3093
        81                         -0.2584509              -7.0328
        82                         -0.2562712              -6.9735
        83                         -0.2387436              -6.4965
        84                         -0.2381480              -6.4803
        85                         -0.2359320              -6.4200
        86                         -0.2128111              -5.7909
        87                         -0.1913859              -5.2079
        88                         -0.1834430              -4.9917
       ...                                ...                  ...
       147                          0.6614419              17.9988
      -------------------------------------------------------------
                  HL-Gap            0.0970060 Eh            2.6397 eV

     #   Z          covCN         q      C6AA      α(0)
     1   8 O        0.857    -0.492    23.614     6.515
     2   6 C        2.732     0.333    21.336     7.562
     3   8 O        1.710    -0.225    17.725     5.684
     4   6 C        2.882     0.140    24.943     8.188
     5   6 C        2.914    -0.043    29.058     8.839
     6   6 C        2.921    -0.016    28.416     8.742
     7   6 C        2.917    -0.027    28.667     8.780
     8   6 C        2.921    -0.020    28.501     8.755
     9   6 C        2.980    -0.023    28.572     8.768
    10   6 C        2.837     0.172    24.303     8.079
    11   8 O        1.657    -0.366    20.209     6.069
    12   6 C        2.955    -0.101    30.531     9.063
    13   6 C        3.892    -0.003    20.580     6.449
    14   6 C        2.987     0.019    27.587     8.616
    15   6 C        3.116    -0.053    29.151     8.844
    16   6 C        3.135    -0.050    29.011     8.816
    17   6 C        2.938     0.082    26.162     8.389
    18  35 Br       1.128    -0.147   189.110    22.173
    19  16 S        2.467    -0.020   141.895    20.049
    20   6 C        2.956    -0.098    30.453     9.051
    21   6 C        2.839     0.170    24.345     8.086
    22   8 O        1.658    -0.361    20.105     6.053
    23   6 C        2.980    -0.022    28.541     8.763
    24   6 C        2.920    -0.019    28.490     8.753
    25   6 C        2.917    -0.026    28.659     8.779
    26   6 C        2.921    -0.016    28.407     8.740
    27   6 C        2.914    -0.042    29.052     8.839
    28   6 C        2.882     0.141    24.922     8.184
    29   8 O        1.710    -0.227    17.765     5.691
    30   6 C        2.727     0.338    21.258     7.548
    31   8 O        0.857    -0.489    23.536     6.504
    32   1 H        0.926     0.074     2.039     2.233
    33   1 H        0.926     0.073     2.049     2.238
    34   1 H        0.926     0.070     2.087     2.259
    35   1 H        0.926     0.077     2.006     2.215
    36   1 H        0.801     0.353     0.583     1.200
    37   1 H        0.923     0.075     2.034     2.230
    38   1 H        0.926     0.056     2.250     2.346
    39   1 H        0.926     0.065     2.141     2.288
    40   1 H        0.801     0.350     0.588     1.205
    41   1 H        0.926     0.079     1.993     2.208
    42   1 H        0.926     0.071     2.079     2.255
    43   1 H        0.926     0.074     2.045     2.236
    44   1 H        0.926     0.074     2.042     2.235

molecular dipole:
                 x           y           z       tot (Debye)
 q only:       -2.179       1.076       0.657
   full:       -2.509       0.925       0.618       6.976

 projected vibrational frequencies (cm⁻¹)
eigval :       -0.00    -0.00    -0.00     0.00     0.00     0.00
eigval :       22.55    27.71    30.83    42.67    58.63    74.02
eigval :       83.94   112.88   118.77   124.32   139.72   144.72
eigval :      166.99   173.06   177.42   201.68   256.40   262.26
eigval :      267.13   276.45   281.33   306.43   310.07   317.50
eigval :      372.65   386.78   402.06   413.86   417.76   432.90
eigval :      445.59   452.61   483.68   496.08   501.99   520.28
eigval :      530.06   533.28   543.45   593.37   613.97   614.60
eigval :      622.49   635.84   650.49   659.65   681.85   685.39
eigval :      707.56   713.14   715.78   732.10   751.48   762.75
eigval :      779.15   786.36   787.83   791.45   800.82   835.63
eigval :      857.36   867.38   882.28   883.48   897.05   911.79
eigval :      919.90   920.09   929.73   931.78   956.67  1054.87
eigval :     1072.20  1073.05  1074.46  1086.07  1106.65  1119.02
eigval :     1137.75  1163.43  1164.58  1177.37  1178.37  1192.23
eigval :     1194.91  1212.97  1219.89  1227.20  1235.74  1239.59
eigval :     1251.48  1263.71  1309.20  1316.86  1324.80  1345.92
eigval :     1346.80  1362.46  1364.14  1426.01  1426.82  1450.60
eigval :     1454.10  1469.83  1528.14  1542.10  1565.14  1572.55
eigval :     1576.80  1587.40  1588.94  1620.12  1624.15  2869.17
eigval :     2924.19  3003.01  3097.54  3097.58  3104.55  3104.65
eigval :     3113.75  3113.77  3116.01  3116.11  3137.57  3146.91

   temp. (K)  partition function   enthalpy   heat capacity  entropy
                                   cal/mol     cal/K/mol   cal/K/mol   J/K/mol
 298.15  VIB  0.888E+10            14129.483     89.755     86.099
         ROT  0.325E+08              888.752      2.981     37.354
         INT  0.289E+18            15018.235     92.736    123.452
         TR   0.107E+29             1481.254      4.968     44.479
         TOT                       16499.4888    97.7040   167.9315   702.6254

       T/K    H(0)-H(T)+PV         H(T)/Eh          T*S/Eh         G(T)/Eh
   ------------------------------------------------------------------------
    298.15    0.262936E-01    0.324695E+00    0.797897E-01    0.244905E+00
   ------------------------------------------------------------------------

         :::::::::::::::::::::::::::::::::::::::::::::::::::::
         ::                  THERMODYNAMIC                  ::
         :::::::::::::::::::::::::::::::::::::::::::::::::::::
         :: total free energy         -87.450145146768 Eh   ::
         ::.................................................::
         :: total energy              -87.695050090214 Eh   ::
         :: zero point energy           0.298401014807 Eh   ::
         :: G(RRHO) w/o ZPVE           -0.053496071361 Eh   ::
         :: G(RRHO) contrib.            0.244904943446 Eh   ::
         :::::::::::::::::::::::::::::::::::::::::::::::::::::

           -------------------------------------------------
          | TOTAL ENERGY              -87.695050090214 Eh   |
          | TOTAL ENTHALPY            -87.370355466290 Eh   |
          | TOTAL FREE ENERGY         -87.450145146768 Eh   |
          | GRADIENT NORM               0.000164820171 Eh/α |
          | HOMO-LUMO GAP               2.639667665290 eV   |
           -------------------------------------------------

 * finished run on 2025/07/20 at 18:50:58.645
