   * xtb version 6.7.1 (edcfbbe) compiled by 'albert@albert-system' on 2024-07-22

   ID    Z sym.   atoms
    1    8 O      1, 3, 11, 22, 29, 31
    2    6 C      2, 4-10, 12-17, 20, 21, 23-28, 30
    3   35 Br     18
    4   16 S      19
    5    1 H      32-44

          program call               : xtb data2507/toluene/3-BHH/3-BHH_toluene_S0_finalOpt.xtbopt.xyz --gfn 2 --uhf 2 --gbsa toluene --ohess vtight --parallel 40 --molden --ceasefiles --namespace data2507/toluene/3-BHH/3-BHH_toluene_T1_preOpt
      * Solvation model:               GBSA
        Solvent                        toluene
        Solvent mass                       9.2140E+01 g/mol
          :  Hamiltonian                  GFN2-xTB          :
 * total energy  :   -87.5861304 Eh     change       -0.2991811E-09 Eh
 * total energy  :   -87.5908422 Eh     change       -0.4711846E-02 Eh
 * total energy  :   -87.5920763 Eh     change       -0.1234127E-02 Eh
 * total energy  :   -87.5922242 Eh     change       -0.1478410E-03 Eh
 * total energy  :   -87.5923167 Eh     change       -0.9248738E-04 Eh
 * total energy  :   -87.5923646 Eh     change       -0.4795655E-04 Eh
 * total energy  :   -87.5924008 Eh     change       -0.3622161E-04 Eh
 * total energy  :   -87.5924273 Eh     change       -0.2647823E-04 Eh
 * total energy  :   -87.5924489 Eh     change       -0.2157841E-04 Eh
 * total energy  :   -87.5924690 Eh     change       -0.2013661E-04 Eh
 * total energy  :   -87.5925544 Eh     change       -0.1194513E-06 Eh
 * total energy  :   -87.5925546 Eh     change       -0.1604151E-06 Eh
 * total energy  :   -87.5925547 Eh     change       -0.1975109E-06 Eh
 * total energy  :   -87.5925549 Eh     change       -0.1573390E-06 Eh
 * total energy  :   -87.5925550 Eh     change       -0.1322614E-06 Eh
 * total energy  :   -87.5925552 Eh     change       -0.1454178E-06 Eh
 * total energy  :   -87.5925553 Eh     change       -0.1442003E-06 Eh
 * total energy  :   -87.5925554 Eh     change       -0.1063179E-06 Eh
 * total energy  :   -87.5925555 Eh     change       -0.7139415E-07 Eh
   *** GEOMETRY OPTIMIZATION CONVERGED AFTER 32 ITERATIONS ***

 final structure:
================
44
 xtb: 6.7.1 (edcfbbe)
O           -2.39363765261423        0.44295450382822       -2.57074873269015
C           -2.65308660836441       -0.21261447774286       -1.55066927544735
O           -3.92084085078029       -0.67676210205463       -1.44718076201201
C           -4.30757073148652       -1.44523743888324       -0.38487744909994
C           -5.60294940836108       -1.92517214112697       -0.37391168783070
C           -6.04132620968495       -2.69941058242203        0.69720021170827
C           -5.18474924435239       -2.98084080408027        1.75607095190458
C           -3.89416205361749       -2.50511083353375        1.75503335145115
C           -3.42305396426239       -1.71965240272000        0.67881022899991
C           -2.10356219010545       -1.18711385004770        0.64323193384786
O           -1.32870950904507       -1.42019621455745        1.69718755074156
C           -1.69627712026084       -0.50067053624044       -0.52967924522169
C           -0.28790923326755       -0.04211852852079       -0.83937740005561
C            0.80033451088122       -1.00328723154760       -0.48803806944512
C            0.72891976263261       -2.35425037512192       -0.28800672310050
C            1.98210552258865       -2.95661136296680       -0.07815921324914
C            2.99715496211947       -2.04707948822845       -0.14266539638788
Br           4.82659090346065       -2.39340818599393        0.06856999447588
S            2.44006350589357       -0.43878475825713       -0.46006162742393
C           -0.13815844086652        1.31921899300969       -0.18942037802946
C           -0.38903689991247        2.51935837089553       -0.90738771828114
O           -0.88355326811648        2.56265715210068       -2.14386531716721
C           -0.02224856416352        3.74904994208231       -0.29913255066773
C           -0.14455947694789        4.99342950959792       -0.95863480174273
C            0.19853750280032        6.15866117353784       -0.31320935735265
C            0.67803843793038        6.12813586379672        0.99165461784762
C            0.80699879758417        4.91497901144161        1.66454071975971
C            0.46687425897859        3.73948200373451        1.02482192154858
O            0.59908513663993        2.57217556882648        1.72518989411222
C            0.32377544201703        1.37351643438831        1.15374158086280
O            0.53024439110158        0.37472768551915        1.86294395859943
H           -6.25370136781258       -1.68857576669045       -1.20019671726415
H           -7.04988786609369       -3.08069759541657        0.69688493508982
H           -5.53336325219176       -3.57933544434824        2.58331742722590
H           -3.21297161070342       -2.71509503551790        2.56351029904418
H           -0.51772725079071       -0.84060584275728        1.72634458675748
H           -0.23989168536580        0.10371576731849       -1.92953364978502
H           -0.19161253496438       -2.90855371574364       -0.28652795681928
H            2.12912920454599       -4.00394318271955        0.11088959023093
H           -1.37594165325750        1.74003001246474       -2.40525909969241
H           -0.51340205930273        4.99439923685702       -1.97134946874489
H            0.09884151108355        7.10272029682836       -0.82598082735944
H            0.95623550680587        7.04225811758722        1.49113854922062
H            1.17050826333673        4.87074903371555        2.67859623337353

          :  Hamiltonian                  GFN2-xTB          :
         :: gradient norm              0.000055677366 Eh/a0 ::
         :: HOMO-LUMO gap              0.004715697127 eV    ::
         :: SCC energy               -88.692934573092 Eh    ::
         :: -> dispersion             -0.063431043737 Eh    ::
         :: -> Gsolv                  -0.039289526388 Eh    ::
         :: repulsion energy           1.100379066282 Eh    ::

    * Orbital Energies and Occupations

         #    Occupation            Energy/Eh            Energy/eV
      -------------------------------------------------------------
         1        2.0000           -0.8616102             -23.4456
       ...           ...                  ...                  ...
        66        2.0000           -0.4481428             -12.1946
        67        2.0000           -0.4463767             -12.1465
        68        2.0000           -0.4413370             -12.0094
        69        2.0000           -0.4386394             -11.9360
        70        2.0000           -0.4376632             -11.9094
        71        2.0000           -0.4365787             -11.8799
        72        2.0000           -0.4274711             -11.6321
        73        2.0000           -0.4220382             -11.4842
        74        2.0000           -0.4214415             -11.4680
        75        2.0000           -0.4199410             -11.4272
        76        1.8346           -0.4064176             -11.0592
        77        1.1654           -0.4033418             -10.9755
        78        0.5229           -0.3025995              -8.2342 (HOMO)
        79        0.4771           -0.3024255              -8.2294 (LUMO)
        80                         -0.2807450              -7.6395
        81                         -0.2547903              -6.9332
        82                         -0.2513446              -6.8394
        83                         -0.2458711              -6.6905
        84                         -0.2346109              -6.3841
        85                         -0.2326568              -6.3309
        86                         -0.2214776              -6.0267
        87                         -0.2027415              -5.5169
        88                         -0.1871285              -5.0920
        89                         -0.1786896              -4.8624
       ...                                ...                  ...
       147                          0.6471903              17.6109
      -------------------------------------------------------------
                  HL-Gap            0.0001740 Eh            0.0047 eV

     #   Z          covCN         q      C6AA      α(0)
     1   8 O        0.858    -0.492    23.615     6.515
     2   6 C        2.726     0.322    21.519     7.594
     3   8 O        1.709    -0.243    18.018     5.731
     4   6 C        2.876     0.136    25.022     8.200
     5   6 C        2.913    -0.046    29.138     8.851
     6   6 C        2.920    -0.022    28.553     8.763
     7   6 C        2.913    -0.027    28.682     8.782
     8   6 C        2.920    -0.027    28.684     8.783
     9   6 C        2.976    -0.023    28.568     8.767
    10   6 C        2.835     0.153    24.684     8.142
    11   8 O        1.656    -0.374    20.355     6.090
    12   6 C        2.962    -0.077    29.929     8.973
    13   6 C        3.892     0.005    20.446     6.428
    14   6 C        2.988     0.025    27.441     8.593
    15   6 C        3.110    -0.045    28.952     8.815
    16   6 C        3.130    -0.043    28.845     8.793
    17   6 C        2.940     0.088    26.043     8.370
    18  35 Br       1.133    -0.098   187.726    22.092
    19  16 S        2.456     0.024   140.065    19.919
    20   6 C        2.964    -0.075    29.866     8.964
    21   6 C        2.836     0.147    24.796     8.160
    22   8 O        1.656    -0.374    20.357     6.091
    23   6 C        2.976    -0.021    28.531     8.762
    24   6 C        2.919    -0.028    28.695     8.784
    25   6 C        2.913    -0.027    28.681     8.782
    26   6 C        2.920    -0.023    28.573     8.766
    27   6 C        2.913    -0.046    29.139     8.852
    28   6 C        2.875     0.136    25.031     8.202
    29   8 O        1.709    -0.247    18.089     5.742
    30   6 C        2.722     0.324    21.489     7.589
    31   8 O        0.859    -0.491    23.596     6.513
    32   1 H        0.926     0.069     2.100     2.266
    33   1 H        0.926     0.068     2.113     2.273
    34   1 H        0.926     0.065     2.144     2.290
    35   1 H        0.926     0.072     2.069     2.249
    36   1 H        0.801     0.354     0.579     1.196
    37   1 H        0.923     0.088     1.895     2.153
    38   1 H        0.926     0.070     2.088     2.260
    39   1 H        0.926     0.081     1.968     2.194
    40   1 H        0.801     0.352     0.583     1.200
    41   1 H        0.926     0.071     2.075     2.253
    42   1 H        0.926     0.064     2.149     2.292
    43   1 H        0.926     0.067     2.120     2.277
    44   1 H        0.926     0.068     2.110     2.271

molecular dipole:
                 x           y           z       tot (Debye)
 q only:       -0.866       0.020       0.401
   full:       -1.243      -0.015       0.376       3.302

 projected vibrational frequencies (cm⁻¹)
eigval :       -0.00    -0.00     0.00     0.00     0.00     0.00
eigval :       15.15    20.84    27.01    37.33    48.34    69.62
eigval :       79.30   108.21   115.05   119.33   132.40   146.26
eigval :      157.64   162.85   172.89   204.10   246.34   247.69
eigval :      255.06   264.03   275.93   289.64   298.85   321.70
eigval :      355.46   373.72   390.87   396.35   402.16   423.46
eigval :      423.82   435.59   453.62   485.17   486.97   497.20
eigval :      507.69   518.32   528.90   548.53   558.10   591.48
eigval :      611.70   626.17   629.26   644.07   649.36   653.20
eigval :      676.46   680.03   693.01   698.67   734.11   742.44
eigval :      759.75   761.12   769.71   778.84   796.63   838.79
eigval :      840.70   845.75   848.06   857.51   883.53   891.32
eigval :      893.15   904.90   913.29   919.44   927.42   949.04
eigval :     1030.63  1055.98  1063.70  1070.64  1072.42  1092.63
eigval :     1102.21  1126.31  1158.23  1163.68  1166.47  1168.02
eigval :     1185.29  1197.09  1197.80  1204.93  1216.95  1224.85
eigval :     1231.26  1243.03  1269.93  1288.55  1301.50  1334.87
eigval :     1336.96  1338.92  1361.74  1370.01  1379.12  1395.11
eigval :     1405.53  1429.39  1446.09  1449.33  1504.33  1510.55
eigval :     1516.19  1517.14  1533.36  1537.47  1548.97  2815.94
eigval :     2869.66  2889.20  3095.12  3095.56  3104.87  3105.50
eigval :     3114.29  3115.23  3117.98  3118.26  3138.89  3148.61

   temp. (K)  partition function   enthalpy   heat capacity  entropy
                                   cal/mol     cal/K/mol   cal/K/mol   J/K/mol
 298.15  VIB  0.534E+11            14642.115     91.981     89.687
         ROT  0.323E+08              888.752      2.981     37.340
         INT  0.172E+19            15530.867     94.962    127.027
         TR   0.107E+29             1481.254      4.968     44.479
         TOT                       17012.1208    99.9298   171.5063   717.5824

       T/K    H(0)-H(T)+PV         H(T)/Eh          T*S/Eh         G(T)/Eh
   ------------------------------------------------------------------------
    298.15    0.271105E-01    0.318913E+00    0.814882E-01    0.237425E+00
   ------------------------------------------------------------------------

         :::::::::::::::::::::::::::::::::::::::::::::::::::::
         ::                  THERMODYNAMIC                  ::
         :::::::::::::::::::::::::::::::::::::::::::::::::::::
         :: total free energy         -87.355130211864 Eh   ::
         ::.................................................::
         :: total energy              -87.592555506252 Eh   ::
         :: zero point energy           0.291802935933 Eh   ::
         :: G(RRHO) w/o ZPVE           -0.054377641545 Eh   ::
         :: G(RRHO) contrib.            0.237425294388 Eh   ::
         :::::::::::::::::::::::::::::::::::::::::::::::::::::

           -------------------------------------------------
          | TOTAL ENERGY              -87.592555506252 Eh   |
          | TOTAL ENTHALPY            -87.273642030101 Eh   |
          | TOTAL FREE ENERGY         -87.355130211864 Eh   |
          | GRADIENT NORM               0.000048890206 Eh/α |
          | HOMO-LUMO GAP               0.004734842941 eV   |
           -------------------------------------------------

 * finished run on 2025/07/20 at 18:51:01.777
