   * xtb version 6.7.1 (edcfbbe) compiled by 'albert@albert-system' on 2024-07-22

   ID    Z sym.   atoms
    1    8 O      1, 3, 11, 22, 29, 31
    2    6 C      2, 4-10, 12-17, 20, 21, 23-28, 30
    3   35 Br     18
    4   16 S      19
    5    1 H      32-44

          program call               : xtb data2507/toluene/3-BHH/3-BHH_toluene_T1_crest.xyz --gfn 2 --uhf 2 --gbsa toluene --ohess vtight --parallel 40 --molden --ceasefiles --namespace data2507/toluene/3-BHH/3-BHH_toluene_T1_finalOpt
      * Solvation model:               GBSA
        Solvent                        toluene
        Solvent mass                       9.2140E+01 g/mol
          :  Hamiltonian                  GFN2-xTB          :
 * total energy  :   -87.5918379 Eh     change       -0.5104965E-09 Eh
 * total energy  :   -87.5923342 Eh     change       -0.4962691E-03 Eh
 * total energy  :   -87.5924787 Eh     change       -0.1445430E-03 Eh
 * total energy  :   -87.5925013 Eh     change       -0.2256214E-04 Eh
 * total energy  :   -87.5925152 Eh     change       -0.1388675E-04 Eh
 * total energy  :   -87.5925215 Eh     change       -0.6373883E-05 Eh
 * total energy  :   -87.5925197 Eh     change        0.1862293E-05 Eh
 * total energy  :   -87.5925252 Eh     change       -0.5586449E-05 Eh
 * total energy  :   -87.5925274 Eh     change       -0.2109802E-05 Eh
 * total energy  :   -87.5925298 Eh     change       -0.2399519E-05 Eh
 * total energy  :   -87.5925321 Eh     change       -0.2323176E-05 Eh
 * total energy  :   -87.5925341 Eh     change       -0.2000007E-05 Eh
 * total energy  :   -87.5925353 Eh     change       -0.1207305E-05 Eh
 * total energy  :   -87.5925359 Eh     change       -0.6421891E-06 Eh
 * total energy  :   -87.5925364 Eh     change       -0.4403940E-06 Eh
 * total energy  :   -87.5925366 Eh     change       -0.2676052E-06 Eh
 * total energy  :   -87.5925368 Eh     change       -0.1166999E-06 Eh
 * total energy  :   -87.5925367 Eh     change        0.1776087E-07 Eh
 * total energy  :   -87.5925368 Eh     change       -0.9514144E-07 Eh
   *** GEOMETRY OPTIMIZATION CONVERGED AFTER 19 ITERATIONS ***

 final structure:
================
44
 xtb: 6.7.1 (edcfbbe)
O           -2.45229218482937        0.18718660639200       -2.57718987033965
C           -2.62015267456874       -0.50676830716214       -1.56327333037754
O           -3.82285446982046       -1.11863149033728       -1.45271847256378
C           -4.10454769067623       -1.93777902726441       -0.39534220610411
C           -5.33865744456181       -2.55820589365472       -0.37178891132854
C           -5.67065304851400       -3.39052187672986        0.69404485725186
C           -4.77039890149715       -3.58958832271157        1.73521483678922
C           -3.54083347191752       -2.97318428870603        1.72205052483499
C           -3.17850719400072       -2.12389997429359        0.65208911790691
C           -1.93068494707014       -1.44064097281342        0.60879694257405
O           -1.11868198599191       -1.59696879206380        1.64918218477577
C           -1.62364316885720       -0.69172717074765       -0.55649801107023
C           -0.28682030538490       -0.05672471441351       -0.87148283460374
C            0.91733641194804       -0.87907931498246       -0.54790636324567
C            1.01713351377523       -2.23127054164965       -0.36973822691383
C            2.33811173555850       -2.67573409325011       -0.18339099763816
C            3.23100103710073       -1.64571108066484       -0.24343591148014
Br           5.09146730868061       -1.76641827393277       -0.05747026457581
S            2.47429752087799       -0.11460971096348       -0.52776078949565
C           -0.30292755231484        1.30093744154529       -0.19729961787208
C           -0.71527277081694        2.47217082172521       -0.88793679995448
O           -1.22419806157007        2.47535891564645       -2.11936744771745
C           -0.50581163062617        3.72696732758021       -0.25692120386664
C           -0.80242600480061        4.95708883954097       -0.88715564764774
C           -0.60653401455980        6.14424820779298       -0.22065537081968
C           -0.10723148552731        6.15133613919752        1.07712031055967
C            0.19189744004631        4.95282737737078        1.72137966137514
C           -0.00016991584673        3.75567471522932        1.06052576237229
O            0.29462320946982        2.60221385779076        1.73381895965793
C            0.16580516984816        1.38893057691180        1.14178433967689
O            0.50685053443723        0.41154964696165        1.82846293573983
H           -6.02484296652437       -2.38510459109426       -1.18512903083402
H           -6.63087660870742       -3.88085822918076        0.70355636889543
H           -5.03607914446991       -4.23517628418959        2.55780619565803
H           -2.82722618648496       -3.11688691066484        2.51701366135393
H           -0.38393456439599       -0.92371147602675        1.67998818265918
H           -0.27026987989530        0.11247601583443       -1.95915198238723
H            0.17273388152572       -2.89575208178235       -0.36790795505267
H            2.61741872340375       -3.69912446065271       -0.01333074890036
H           -1.60686068765273        1.60088661359493       -2.39525281460197
H           -1.18350446138552        4.92955730153104       -1.89495658763835
H           -0.83847363629131        7.07688406871381       -0.71113102256860
H            0.05514320602884        7.08408561676978        1.59297883899047
H            0.57328497135939        4.93681083890359        2.72967192542655

          :  Hamiltonian                  GFN2-xTB          :
         :: gradient norm              0.000049192630 Eh/a0 ::
         :: HOMO-LUMO gap              0.004526709088 eV    ::
         :: SCC energy               -88.692915631627 Eh    ::
         :: -> dispersion             -0.063426242871 Eh    ::
         :: -> Gsolv                  -0.039270137083 Eh    ::
         :: repulsion energy           1.100378799270 Eh    ::

    * Orbital Energies and Occupations

         #    Occupation            Energy/Eh            Energy/eV
      -------------------------------------------------------------
         1        2.0000           -0.8616314             -23.4462
       ...           ...                  ...                  ...
        66        2.0000           -0.4481607             -12.1951
        67        2.0000           -0.4464651             -12.1489
        68        2.0000           -0.4413025             -12.0085
        69        2.0000           -0.4386364             -11.9359
        70        2.0000           -0.4377053             -11.9106
        71        2.0000           -0.4366131             -11.8808
        72        2.0000           -0.4274717             -11.6321
        73        2.0000           -0.4220974             -11.4859
        74        2.0000           -0.4214365             -11.4679
        75        2.0000           -0.4199669             -11.4279
        76        1.8340           -0.4063848             -11.0583
        77        1.1660           -0.4033170             -10.9748
        78        0.5219           -0.3026143              -8.2346 (HOMO)
        79        0.4781           -0.3024477              -8.2300 (LUMO)
        80                         -0.2807567              -7.6398
        81                         -0.2548090              -6.9337
        82                         -0.2513608              -6.8399
        83                         -0.2459005              -6.6913
        84                         -0.2346190              -6.3843
        85                         -0.2326623              -6.3311
        86                         -0.2214841              -6.0269
        87                         -0.2027254              -5.5164
        88                         -0.1871773              -5.0934
        89                         -0.1784801              -4.8567
       ...                                ...                  ...
       147                          0.6471919              17.6110
      -------------------------------------------------------------
                  HL-Gap            0.0001666 Eh            0.0045 eV

     #   Z          covCN         q      C6AA      α(0)
     1   8 O        0.858    -0.492    23.619     6.516
     2   6 C        2.726     0.322    21.520     7.594
     3   8 O        1.709    -0.243    18.017     5.731
     4   6 C        2.876     0.136    25.022     8.200
     5   6 C        2.913    -0.046    29.138     8.852
     6   6 C        2.920    -0.022    28.553     8.763
     7   6 C        2.913    -0.027    28.682     8.782
     8   6 C        2.919    -0.027    28.685     8.783
     9   6 C        2.976    -0.023    28.567     8.767
    10   6 C        2.835     0.152    24.688     8.142
    11   8 O        1.656    -0.374    20.358     6.091
    12   6 C        2.963    -0.077    29.927     8.973
    13   6 C        3.892     0.005    20.447     6.428
    14   6 C        2.988     0.025    27.439     8.593
    15   6 C        3.110    -0.045    28.953     8.815
    16   6 C        3.130    -0.043    28.844     8.793
    17   6 C        2.940     0.088    26.043     8.370
    18  35 Br       1.133    -0.098   187.722    22.091
    19  16 S        2.454     0.024   140.060    19.919
    20   6 C        2.964    -0.075    29.866     8.964
    21   6 C        2.836     0.147    24.796     8.160
    22   8 O        1.656    -0.374    20.356     6.091
    23   6 C        2.976    -0.021    28.531     8.762
    24   6 C        2.919    -0.028    28.696     8.784
    25   6 C        2.913    -0.027    28.681     8.782
    26   6 C        2.920    -0.023    28.572     8.766
    27   6 C        2.913    -0.046    29.139     8.852
    28   6 C        2.875     0.136    25.031     8.202
    29   8 O        1.709    -0.247    18.088     5.742
    30   6 C        2.722     0.324    21.489     7.589
    31   8 O        0.859    -0.491    23.596     6.513
    32   1 H        0.926     0.069     2.100     2.266
    33   1 H        0.926     0.067     2.113     2.273
    34   1 H        0.926     0.065     2.144     2.290
    35   1 H        0.926     0.071     2.069     2.249
    36   1 H        0.801     0.354     0.579     1.196
    37   1 H        0.923     0.088     1.894     2.152
    38   1 H        0.926     0.070     2.087     2.259
    39   1 H        0.926     0.081     1.968     2.193
    40   1 H        0.801     0.352     0.584     1.200
    41   1 H        0.926     0.071     2.075     2.253
    42   1 H        0.926     0.064     2.149     2.292
    43   1 H        0.926     0.067     2.120     2.277
    44   1 H        0.926     0.068     2.110     2.271

molecular dipole:
                 x           y           z       tot (Debye)
 q only:       -0.874      -0.079       0.424
   full:       -1.243      -0.161       0.402       3.344

 projected vibrational frequencies (cm⁻¹)
eigval :       -0.00    -0.00    -0.00     0.00     0.00     0.00
eigval :       17.75    24.31    29.51    41.53    51.89    73.72
eigval :       80.45   108.76   115.87   120.51   132.87   146.65
eigval :      157.04   163.75   173.42   204.21   248.29   248.79
eigval :      255.64   265.32   275.95   290.94   298.71   321.54
eigval :      356.30   373.62   393.43   397.36   401.82   423.24
eigval :      423.93   436.15   454.00   486.36   487.39   497.16
eigval :      507.33   517.99   528.77   548.71   556.64   591.66
eigval :      611.57   626.36   629.38   644.39   649.22   653.13
eigval :      677.16   680.36   692.91   698.56   733.33   746.30
eigval :      757.16   763.08   767.66   779.27   797.55   839.12
eigval :      841.11   847.34   854.77   858.22   890.14   891.73
eigval :      893.95   905.39   916.36   919.48   927.18   950.22
eigval :     1030.57  1055.89  1063.99  1070.47  1072.63  1092.74
eigval :     1102.15  1126.96  1157.66  1164.30  1165.96  1168.33
eigval :     1185.00  1196.64  1197.81  1204.38  1216.72  1224.49
eigval :     1231.15  1242.25  1269.34  1287.29  1301.34  1335.05
eigval :     1337.10  1338.80  1361.28  1369.96  1378.70  1395.26
eigval :     1405.48  1429.22  1446.13  1449.13  1504.60  1510.45
eigval :     1516.09  1517.24  1533.49  1537.25  1548.93  2820.04
eigval :     2870.03  2890.24  3095.80  3096.88  3104.99  3105.43
eigval :     3114.12  3114.61  3117.21  3117.92  3139.13  3148.98

   temp. (K)  partition function   enthalpy   heat capacity  entropy
                                   cal/mol     cal/K/mol   cal/K/mol   J/K/mol
 298.15  VIB  0.281E+11            14596.801     92.177     89.144
         ROT  0.323E+08              888.752      2.981     37.340
         INT  0.906E+18            15485.554     95.158    126.484
         TR   0.107E+29             1481.254      4.968     44.479
         TOT                       16966.8076   100.1265   170.9633   715.3104

       T/K    H(0)-H(T)+PV         H(T)/Eh          T*S/Eh         G(T)/Eh
   ------------------------------------------------------------------------
    298.15    0.270383E-01    0.318984E+00    0.812302E-01    0.237754E+00
   ------------------------------------------------------------------------

         :::::::::::::::::::::::::::::::::::::::::::::::::::::
         ::                  THERMODYNAMIC                  ::
         :::::::::::::::::::::::::::::::::::::::::::::::::::::
         :: total free energy         -87.354783157396 Eh   ::
         ::.................................................::
         :: total energy              -87.592536837614 Eh   ::
         :: zero point energy           0.291945521076 Eh   ::
         :: G(RRHO) w/o ZPVE           -0.054191840858 Eh   ::
         :: G(RRHO) contrib.            0.237753680217 Eh   ::
         :::::::::::::::::::::::::::::::::::::::::::::::::::::

           -------------------------------------------------
          | TOTAL ENERGY              -87.592536837614 Eh   |
          | TOTAL ENTHALPY            -87.273552987503 Eh   |
          | TOTAL FREE ENERGY         -87.354783157396 Eh   |
          | GRADIENT NORM               0.000051014109 Eh/α |
          | HOMO-LUMO GAP               0.004534415816 eV   |
           -------------------------------------------------

 * finished run on 2025/07/20 at 18:53:32.053
