   * xtb version 6.7.1 (edcfbbe) compiled by 'albert@albert-system' on 2024-07-22

   ID    Z sym.   atoms
    1    6 C      1-16, 18-32, 36-38
    2    7 N      17, 33, 35
    3   16 S      34
    4    1 H      39-61

          program call               : xtb data2507/gas/TPA-NZP/TPA-NZP.xyz --gfn 2 --ohess vtight --parallel 40 --molden --ceasefiles --namespace data2507/gas/TPA-NZP/TPA-NZP_gas_S0_preOpt
          :  Hamiltonian                  GFN2-xTB          :
 * total energy  :   -96.5209527 Eh     change       -0.7917293E-09 Eh
 * total energy  :   -96.5363490 Eh     change       -0.1539630E-01 Eh
 * total energy  :   -96.5417033 Eh     change       -0.5354240E-02 Eh
 * total energy  :   -96.5430478 Eh     change       -0.1344505E-02 Eh
 * total energy  :   -96.5437781 Eh     change       -0.7302886E-03 Eh
 * total energy  :   -96.5439759 Eh     change       -0.1978308E-03 Eh
 * total energy  :   -96.5440849 Eh     change       -0.1089772E-03 Eh
 * total energy  :   -96.5441636 Eh     change       -0.7873956E-04 Eh
 * total energy  :   -96.5442273 Eh     change       -0.6365002E-04 Eh
 * total energy  :   -96.5442730 Eh     change       -0.4572266E-04 Eh
 * total energy  :   -96.5482760 Eh     change       -0.2341510E-05 Eh
 * total energy  :   -96.5482774 Eh     change       -0.1402777E-05 Eh
 * total energy  :   -96.5482785 Eh     change       -0.1096672E-05 Eh
 * total energy  :   -96.5482795 Eh     change       -0.9244179E-06 Eh
 * total energy  :   -96.5482801 Eh     change       -0.6430766E-06 Eh
 * total energy  :   -96.5482804 Eh     change       -0.3069760E-06 Eh
 * total energy  :   -96.5482805 Eh     change       -0.1323223E-06 Eh
 * total energy  :   -96.5482805 Eh     change        0.1699509E-07 Eh
 * total energy  :   -96.5482806 Eh     change       -0.5570165E-07 Eh
   *** GEOMETRY OPTIMIZATION CONVERGED AFTER 67 ITERATIONS ***

 final structure:
================
61
 xtb: 6.7.1 (edcfbbe)
C            8.72054562855210        0.79936548881000        0.63231239910173
C            7.98367765943326       -0.12353452067129        1.35576178036146
C            6.62805707401875       -0.26497147850963        1.12563026444933
C            5.98926393049108        0.51792889517439        0.16555316702775
C            4.54308071375729        0.39677527682883       -0.05955930637509
C            3.89828642051723       -0.82387583495271       -0.32199821172619
C            4.65344051112925       -2.00563838219636       -0.54893879621986
C            4.05361152417028       -3.19395301788559       -0.82893587725687
C            2.65054036379252       -3.27319665059231       -0.92674814743445
C            1.88759392768556       -2.16324858808785       -0.73508191263818
C            2.46529455513417       -0.90661377499452       -0.41197411408961
C            1.65604359239121        0.22994318125405       -0.23342982490415
C            0.19388927025576        0.18257070063639       -0.17796428316552
C           -0.46645390830623       -0.71886881907354        0.65835256616744
C           -1.84177250116886       -0.73275210680237        0.74034376407436
C           -2.60621891570329        0.15154326787643       -0.02293320393999
N           -3.99999848182206        0.13387654548524        0.05259497097874
C           -4.67778978376002       -1.07877254178002        0.22367606650636
C           -5.81566076923674       -1.14622790351716        1.02737916137482
C           -6.48449558308763       -2.34402775948659        1.18753649997312
C           -6.02919667990854       -3.49210306192429        0.56006105819511
C           -4.89718800890661       -3.43154896120730       -0.23610896072941
C           -4.22636447305325       -2.23675329533886       -0.40943536783077
C           -4.72310753686976        1.32983298369912       -0.03590612934687
C           -5.94621449268791        1.36715240887159       -0.70485794977609
C           -6.65981533648920        2.54713351010204       -0.78447009921102
C           -6.16560042220302        3.70651666384133       -0.20954568655476
C           -4.94890994985059        3.67553450285425        0.45211426604442
C           -4.23176152770548        2.49873601182944        0.54493082533542
C           -1.94863098543009        1.05869829683296       -0.85602673439911
C           -0.57296251007351        1.07946938268659       -0.92099038500249
C            2.30493841836780        1.45928558939737       -0.07191178095206
N            1.73033935212865        2.66245669365238        0.07347790741302
S            2.87762011303326        3.75967182943758        0.28294081165257
N            4.15851404621969        2.80215200673022        0.21570201624440
C            3.74484487973723        1.54174431009947        0.01416162800354
C            6.73505674804084        1.45472011647166       -0.54496410189298
C            8.09132300060424        1.58893668407348       -0.31580684359833
H            9.78022423302810        0.90681513114577        0.81178876141208
H            8.46646564252537       -0.73345193045109        2.10574685117448
H            6.05048750739668       -0.96985019787510        1.70702517749490
H            5.73025747939493       -1.93547368283757       -0.52324468734118
H            4.64902311869724       -4.07768156963203       -1.00472362297455
H            2.18834365490511       -4.21599113677555       -1.17965120544879
H            0.81666413003183       -2.21592306987458       -0.85865028469832
H            0.11037875461803       -1.38863266793927        1.27986107223647
H           -2.33665115584704       -1.42313648208109        1.40781110818490
H           -6.16718052723364       -0.25460097766629        1.52565632721699
H           -7.36333059796966       -2.38264769159270        1.81429932156237
H           -6.55289403925595       -4.42692020509429        0.69023476891243
H           -4.53822365356850       -4.32029259966232       -0.73418179510831
H           -3.35079722477263       -2.18954858098590       -1.04037890592912
H           -6.32911383142878        0.46663443609809       -1.16252530188925
H           -7.60501538777326        2.56274199781320       -1.30703210208886
H           -6.72467308247319        4.62742409679700       -0.27675284941723
H           -4.55796632934464        4.57333617167617        0.90782254783162
H           -3.28801319947952        2.47553720411387        1.06970762235656
H           -2.52871049264299        1.74506430523712       -1.45511935824397
H           -0.07856387217106        1.78422541277359       -1.57089863383186
H            6.24451366227050        2.07025956181507       -1.28324960193096
H            8.66095834789139        2.31415482536638       -0.87848364533228

          :  Hamiltonian                  GFN2-xTB          :
         :: gradient norm              0.000050738162 Eh/a0 ::
         :: HOMO-LUMO gap              1.081912087420 eV    ::
         :: SCC energy               -98.292729050769 Eh    ::
         :: -> dispersion             -0.086557518810 Eh    ::
         :: repulsion energy           1.744448456969 Eh    ::

    * Orbital Energies and Occupations

         #    Occupation            Energy/Eh            Energy/eV
      -------------------------------------------------------------
         1        2.0000           -0.7568036             -20.5937
       ...           ...                  ...                  ...
        78        2.0000           -0.4164678             -11.3327
        79        2.0000           -0.4082615             -11.1094
        80        2.0000           -0.4076871             -11.0937
        81        2.0000           -0.4065977             -11.0641
        82        2.0000           -0.4052027             -11.0261
        83        2.0000           -0.4041757             -10.9982
        84        2.0000           -0.4033393             -10.9754
        85        2.0000           -0.4024159             -10.9503
        86        2.0000           -0.4018591             -10.9351
        87        2.0000           -0.3979484             -10.8287
        88        2.0000           -0.3950755             -10.7506
        89        2.0000           -0.3636864              -9.8964
        90        2.0000           -0.3469259              -9.4403 (HOMO)
        91                         -0.3071664              -8.3584 (LUMO)
        92                         -0.2491011              -6.7784
        93                         -0.2308871              -6.2828
        94                         -0.2304175              -6.2700
        95                         -0.2271414              -6.1808
        96                         -0.2251689              -6.1272
        97                         -0.2217266              -6.0335
        98                         -0.2206120              -6.0032
        99                         -0.2199196              -5.9843
       100                         -0.2185476              -5.9470
       101                         -0.2064617              -5.6181
       ...                                ...                  ...
       180                          0.7499736              20.4078
      -------------------------------------------------------------
                  HL-Gap            0.0397595 Eh            1.0819 eV

     #   Z          covCN         q      C6AA      α(0)
     1   6 C        2.920    -0.030    28.758     8.794
     2   6 C        2.919    -0.030    28.751     8.793
     3   6 C        2.924    -0.032    28.806     8.802
     4   6 C        2.977     0.019    27.589     8.616
     5   6 C        2.970    -0.014    28.356     8.735
     6   6 C        2.985     0.006    27.885     8.662
     7   6 C        2.919    -0.035    28.862     8.810
     8   6 C        2.914    -0.030    28.738     8.791
     9   6 C        2.914    -0.030    28.751     8.793
    10   6 C        2.918    -0.035    28.862     8.810
    11   6 C        2.984     0.005    27.909     8.666
    12   6 C        2.970    -0.012    28.309     8.727
    13   6 C        2.976     0.010    27.796     8.648
    14   6 C        2.923    -0.033    28.816     8.803
    15   6 C        2.920    -0.049    29.222     8.865
    16   6 C        2.924     0.065    26.554     8.451
    17   7 N        2.752    -0.073    22.649     7.068
    18   6 C        2.924     0.065    26.542     8.449
    19   6 C        2.922    -0.047    29.171     8.857
    20   6 C        2.920    -0.029    28.727     8.789
    21   6 C        2.919    -0.038    28.948     8.823
    22   6 C        2.919    -0.029    28.731     8.790
    23   6 C        2.922    -0.047    29.172     8.857
    24   6 C        2.924     0.065    26.547     8.449
    25   6 C        2.922    -0.047    29.175     8.858
    26   6 C        2.920    -0.029    28.732     8.790
    27   6 C        2.919    -0.038    28.944     8.822
    28   6 C        2.920    -0.029    28.722     8.789
    29   6 C        2.922    -0.047    29.166     8.856
    30   6 C        2.921    -0.047    29.177     8.858
    31   6 C        2.924    -0.028    28.692     8.784
    32   6 C        3.345     0.068    23.954     7.726
    33   7 N        1.851    -0.275    27.986     7.841
    34  16 S        2.677     0.333   128.200    19.057
    35   7 N        1.851    -0.275    27.991     7.841
    36   6 C        3.346     0.069    23.923     7.718
    37   6 C        2.925    -0.027    28.680     8.782
    38   6 C        2.919    -0.028    28.701     8.785
    39   1 H        0.926     0.030     2.588     2.516
    40   1 H        0.926     0.030     2.590     2.517
    41   1 H        0.926     0.031     2.575     2.509
    42   1 H        0.926     0.038     2.482     2.464
    43   1 H        0.926     0.031     2.571     2.508
    44   1 H        0.926     0.031     2.576     2.510
    45   1 H        0.926     0.037     2.489     2.467
    46   1 H        0.926     0.035     2.521     2.483
    47   1 H        0.926     0.033     2.546     2.495
    48   1 H        0.926     0.032     2.556     2.500
    49   1 H        0.926     0.032     2.560     2.502
    50   1 H        0.926     0.030     2.579     2.511
    51   1 H        0.926     0.032     2.564     2.504
    52   1 H        0.926     0.031     2.568     2.506
    53   1 H        0.926     0.032     2.564     2.504
    54   1 H        0.926     0.032     2.564     2.504
    55   1 H        0.926     0.031     2.578     2.511
    56   1 H        0.926     0.033     2.549     2.496
    57   1 H        0.926     0.035     2.522     2.483
    58   1 H        0.926     0.035     2.518     2.482
    59   1 H        0.926     0.043     2.408     2.427
    60   1 H        0.926     0.038     2.472     2.459
    61   1 H        0.926     0.032     2.562     2.503

molecular dipole:
                 x           y           z       tot (Debye)
 q only:       -0.336      -0.091      -0.063
   full:       -0.314      -0.360      -0.061       1.224

 projected vibrational frequencies (cm⁻¹)
eigval :       -0.00    -0.00    -0.00    -0.00     0.00     0.00
eigval :       14.33    16.06    18.41    37.46    48.01    51.95
eigval :       58.47    60.70    73.77    75.00    83.07    86.56
eigval :      107.04   138.01   149.23   181.63   194.02   206.19
eigval :      227.15   233.89   235.22   240.32   269.18   297.71
eigval :      314.39   325.94   355.34   373.00   378.19   380.70
eigval :      386.29   390.02   393.16   415.60   419.86   427.66
eigval :      440.63   478.96   487.95   490.65   500.97   508.40
eigval :      553.73   580.56   582.93   586.16   590.27   592.58
eigval :      601.97   612.65   618.32   633.06   649.77   660.08
eigval :      666.47   673.38   686.89   692.97   706.05   724.37
eigval :      734.68   757.20   758.49   761.21   778.19   812.71
eigval :      831.79   867.10   874.06   874.73   876.21   880.10
eigval :      882.23   892.28   893.21   897.40   898.80   903.22
eigval :      910.16   914.12   918.16   919.83   924.65   927.61
eigval :      928.74   929.30   929.65   929.68   937.96   941.18
eigval :      941.39   985.50   988.22  1005.01  1009.19  1030.59
eigval :     1083.23  1083.76  1084.17  1085.69  1121.82  1121.98
eigval :     1124.22  1142.20  1143.61  1180.70  1180.80  1182.05
eigval :     1182.75  1184.92  1187.29  1195.61  1197.26  1200.63
eigval :     1216.20  1234.20  1246.53  1271.03  1278.45  1280.42
eigval :     1282.46  1291.00  1299.80  1314.27  1317.58  1318.68
eigval :     1319.67  1326.54  1327.09  1330.38  1372.94  1374.60
eigval :     1411.69  1420.95  1430.05  1436.23  1443.09  1457.69
eigval :     1470.20  1472.22  1476.01  1491.26  1497.51  1523.52
eigval :     1533.79  1551.76  1577.09  1578.92  1581.11  1590.71
eigval :     1594.62  1596.57  1600.49  1615.93  3069.14  3074.18
eigval :     3075.09  3075.84  3076.22  3076.52  3077.17  3078.10
eigval :     3080.49  3084.20  3084.71  3086.06  3086.90  3088.19
eigval :     3089.19  3089.50  3090.66  3095.98  3097.42  3097.86
eigval :     3098.53  3098.78  3104.28

   temp. (K)  partition function   enthalpy   heat capacity  entropy
                                   cal/mol     cal/K/mol   cal/K/mol   J/K/mol
 298.15  VIB  0.132E+14            17164.631    109.905    106.830
         ROT  0.474E+08              888.752      2.981     38.105
         INT  0.626E+21            18053.384    112.886    144.935
         TR   0.110E+29             1481.254      4.968     44.529
         TOT                       19534.6376   117.8540   189.4640   792.7174

       T/K    H(0)-H(T)+PV         H(T)/Eh          T*S/Eh         G(T)/Eh
   ------------------------------------------------------------------------
    298.15    0.311304E-01    0.492776E+00    0.900205E-01    0.402755E+00
   ------------------------------------------------------------------------

         :::::::::::::::::::::::::::::::::::::::::::::::::::::
         ::                  THERMODYNAMIC                  ::
         :::::::::::::::::::::::::::::::::::::::::::::::::::::
         :: total free energy         -96.145525470436 Eh   ::
         ::.................................................::
         :: total energy              -96.548280593804 Eh   ::
         :: zero point energy           0.461645155810 Eh   ::
         :: G(RRHO) w/o ZPVE           -0.058890032442 Eh   ::
         :: G(RRHO) contrib.            0.402755123368 Eh   ::
         :::::::::::::::::::::::::::::::::::::::::::::::::::::

           -------------------------------------------------
          | TOTAL ENERGY              -96.548280593804 Eh   |
          | TOTAL ENTHALPY            -96.055505011466 Eh   |
          | TOTAL FREE ENERGY         -96.145525470436 Eh   |
          | GRADIENT NORM               0.000051030795 Eh/α |
          | HOMO-LUMO GAP               1.081910718594 eV   |
           -------------------------------------------------

 * finished run on 2025/09/10 at 11:25:12.563
