   * xtb version 6.7.1 (edcfbbe) compiled by 'albert@albert-system' on 2024-07-22

   ID    Z sym.   atoms
    1    6 C      1-16, 18-32, 36-38
    2    7 N      17, 33, 35
    3   16 S      34
    4    1 H      39-61

          program call               : xtb data2507/gas/TPA-NZP/TPA-NZP_gas_T1_crest.xyz --gfn 2 --spinpol --tblite --uhf 2 --ohess vtight --parallel 40 --molden --ceasefiles --namespace data2507/gas/TPA-NZP/TPA-NZP_gas_T1_finalOpt
 * total energy  :   -96.5059306 Eh     change       -0.9996810E-08 Eh
 * total energy  :   -96.5059473 Eh     change       -0.1667871E-04 Eh
 * total energy  :   -96.5059525 Eh     change       -0.5221625E-05 Eh
 * total energy  :   -96.5059542 Eh     change       -0.1690110E-05 Eh
 * total energy  :   -96.5059559 Eh     change       -0.1708277E-05 Eh
 * total energy  :   -96.5059571 Eh     change       -0.1172485E-05 Eh
 * total energy  :   -96.5059578 Eh     change       -0.6690302E-06 Eh
 * total energy  :   -96.5059580 Eh     change       -0.2894592E-06 Eh
 * total energy  :   -96.5059583 Eh     change       -0.2066615E-06 Eh
 * total energy  :   -96.5059584 Eh     change       -0.1517185E-06 Eh
 * total energy  :   -96.5059585 Eh     change       -0.1245507E-06 Eh
 * total energy  :   -96.5059586 Eh     change       -0.8061265E-07 Eh
   *** GEOMETRY OPTIMIZATION CONVERGED AFTER 12 ITERATIONS ***

 final structure:
================
61
 xtb: 6.7.1 (edcfbbe)
C            8.20668117821034        0.02737762228677        1.33773648446057
C            7.30995109588400       -0.89761121765348        1.85065327285755
C            6.01552214089457       -0.94941168636351        1.37612545103858
C            5.58433559194000       -0.06827699718581        0.37532070380333
C            4.21202677356575       -0.09995963714543       -0.09407312504357
C            3.50937873598176       -1.32760726478864       -0.34895035609396
C            4.21191177954785       -2.52897572128131       -0.49653270990226
C            3.56702491915321       -3.71319048274802       -0.80823025683271
C            2.20045160189751       -3.71439737489244       -1.02501127927481
C            1.48510748184475       -2.53299555784459       -0.91962695051759
C            2.10003156644258       -1.33200231449367       -0.55480392662232
C            1.33745936736323       -0.10947441392766       -0.48882667171057
C           -0.09337150320270       -0.09573561156833       -0.35870946399049
C           -0.76593308773285       -1.06357547048104        0.41200575649178
C           -2.12832047301445       -1.03135975916850        0.57048733494280
C           -2.89580746038996       -0.03104146179152       -0.04052256086968
N           -4.27611307261806       -0.00325642564070        0.11195698772310
C           -4.99827325490202       -1.19732789600429        0.23018398557464
C           -6.08639099761291       -1.28026828836452        1.09890096366961
C           -6.80022972580252       -2.45774095681496        1.20663993362956
C           -6.44024667610786       -3.56757185916475        0.45929215546585
C           -5.35920399542753       -3.49029530848027       -0.40390612626725
C           -4.64267756461783       -2.31570275053682       -0.52393945175990
C           -4.95816316272141        1.22045513714667        0.15363715757226
C           -6.20514927966992        1.35163779671201       -0.45686061542327
C           -6.87788103487359        2.55701946992206       -0.40789048967750
C           -6.31914113063906        3.64614751492094        0.24118046261779
C           -5.07957747334688        3.52045019725815        0.84737673582995
C           -4.40141820864769        2.31778888143342        0.81026744924842
C           -2.23579528133562        0.94659966149335       -0.79613120824614
C           -0.87192278605496        0.92040262459376       -0.94156990663941
C            2.07182898640874        1.10071683347677       -0.51156367944413
N            1.57380793024279        2.32533570024666       -0.59007672808454
S            2.79805057937269        3.41151824372003       -0.44491522594343
N            4.00548667235007        2.32749235416287       -0.23731262423592
C            3.50411650600181        1.10067890035038       -0.30539273390990
C            6.49385245881894        0.87460400254131       -0.11620365141025
C            7.78978065847111        0.91345658499667        0.35630710644872
H            9.22092022939556        0.06196829017492        1.70737349493515
H            7.62202590531508       -1.57754467068876        2.63051229966974
H            5.31151772274690       -1.64698931130297        1.80717907960944
H            5.28663308642739       -2.52339130353736       -0.39701853063210
H            4.13704728774816       -4.62498197635318       -0.90668661086501
H            1.69113069129327       -4.62669206346407       -1.29807440275017
H            0.43258201919099       -2.53329465295578       -1.15951704490583
H           -0.19152263489273       -1.80963890733477        0.94100370098438
H           -2.61735197762411       -1.76551155306115        1.19446803576529
H           -6.36126963239472       -0.41889718852654        1.68976130519639
H           -7.63881139528803       -2.51121309993153        1.88486874803310
H           -6.99924159507369       -4.48644772065990        0.54822684571786
H           -5.07681041997184       -4.34861745205515       -0.99525861029089
H           -3.80924287188470       -2.25143637923189       -1.20791942746091
H           -6.63640226878746        0.50611093331079       -0.97256221510950
H           -7.84132821449664        2.64833637544625       -0.88700896688442
H           -6.84670527557764        4.58704616296768        0.27452353095404
H           -4.63980377818560        4.36276707097428        1.36006716470990
H           -3.44078777471396        2.21747612420242        1.29332258531220
H           -2.81517443096614        1.71711640681052       -1.28324110514384
H           -0.38090807818338        1.67320298825104       -1.53542194195680
H            6.17259842781103        1.56230886110010       -0.88155048931419
H            8.48293924313838        1.63952086444313       -0.04292947914867

 projected vibrational frequencies (cm⁻¹)
eigval :       -0.00    -0.00    -0.00    -0.00     0.00     0.00
eigval :       12.43    16.10    19.77    36.27    46.93    53.40
eigval :       59.66    64.92    76.32    78.02    84.03    88.75
eigval :      113.59   136.12   150.07   181.38   193.11   204.75
eigval :      224.18   234.81   243.16   247.14   278.45   296.10
eigval :      305.09   324.82   355.58   367.42   374.84   377.57
eigval :      380.31   387.61   392.80   408.93   412.66   420.32
eigval :      436.24   461.56   468.07   486.99   490.69   508.56
eigval :      550.53   577.57   580.60   584.00   589.17   591.98
eigval :      593.70   606.79   612.97   623.22   646.23   660.16
eigval :      665.23   667.40   677.39   683.32   697.70   717.03
eigval :      723.46   754.13   757.75   759.98   760.78   770.95
eigval :      815.89   838.71   852.66   855.46   866.65   873.78
eigval :      875.00   878.57   891.99   895.39   898.23   899.19
eigval :      907.99   909.99   912.11   915.02   916.34   925.47
eigval :      927.99   929.05   929.44   930.31   936.83   939.07
eigval :      943.25   985.53   988.79  1004.66  1011.37  1024.81
eigval :     1082.44  1083.26  1083.40  1106.89  1121.86  1123.79
eigval :     1124.33  1127.60  1146.48  1172.60  1179.86  1180.04
eigval :     1180.70  1182.60  1183.95  1193.41  1195.71  1201.04
eigval :     1215.53  1239.95  1245.90  1269.70  1276.80  1279.90
eigval :     1280.89  1295.22  1305.43  1315.66  1317.95  1318.81
eigval :     1323.30  1326.33  1328.24  1333.98  1342.65  1364.58
eigval :     1405.44  1420.95  1422.89  1431.54  1434.87  1439.44
eigval :     1441.57  1459.10  1465.60  1468.41  1469.11  1473.84
eigval :     1514.12  1541.13  1544.63  1559.29  1574.59  1574.82
eigval :     1579.35  1582.04  1589.40  1594.53  3068.18  3075.02
eigval :     3075.86  3076.83  3079.13  3079.73  3080.28  3080.52
eigval :     3082.25  3084.35  3084.54  3088.35  3088.72  3089.43
eigval :     3089.90  3091.86  3093.57  3093.58  3097.99  3100.56
eigval :     3101.26  3114.24  3122.69

   temp. (K)  partition function   enthalpy   heat capacity  entropy
                                   cal/mol     cal/K/mol   cal/K/mol   J/K/mol
 298.15  VIB  0.129E+14            17256.993    110.856    107.141
         ROT  0.478E+08              888.752      2.981     38.122
         INT  0.617E+21            18145.745    113.837    145.264
         TR   0.110E+29             1481.254      4.968     44.529
         TOT                       19626.9990   118.8052   189.7923   794.0909

       T/K    H(0)-H(T)+PV         H(T)/Eh          T*S/Eh         G(T)/Eh
   ------------------------------------------------------------------------
    298.15    0.312776E-01    0.491257E+00    0.901764E-01    0.401080E+00
   ------------------------------------------------------------------------

         :::::::::::::::::::::::::::::::::::::::::::::::::::::
         ::                  THERMODYNAMIC                  ::
         :::::::::::::::::::::::::::::::::::::::::::::::::::::
         :: total free energy         -96.104878522611 Eh   ::
         ::.................................................::
         :: total energy              -96.505958674088 Eh   ::
         :: zero point energy           0.459978974282 Eh   ::
         :: G(RRHO) w/o ZPVE           -0.058898822806 Eh   ::
         :: G(RRHO) contrib.            0.401080151477 Eh   ::
         :::::::::::::::::::::::::::::::::::::::::::::::::::::

           -------------------------------------------------
          | TOTAL ENERGY              -96.505958674088 Eh   |
          | TOTAL ENTHALPY            -96.014702086022 Eh   |
          | TOTAL FREE ENERGY         -96.104878522611 Eh   |
          | GRADIENT NORM               0.000083632776 Eh/α |
           -------------------------------------------------

 * finished run on 2025/09/10 at 11:31:45.729
