   * xtb version 6.7.1 (edcfbbe) compiled by 'albert@albert-system' on 2024-07-22

   ID    Z sym.   atoms
    1    6 C      1-16, 18-32, 36-38
    2    7 N      17, 33, 35
    3   16 S      34
    4    1 H      39-61

          program call               : xtb data2507/gas/TPA-NZP/TPA-NZP_gas_S0_crest.xyz --gfn 2 --ohess vtight --parallel 40 --molden --ceasefiles --namespace data2507/gas/TPA-NZP/TPA-NZP_gas_S0_finalOpt
          :  Hamiltonian                  GFN2-xTB          :
 * total energy  :   -96.5482746 Eh     change       -0.6026823E-09 Eh
 * total energy  :   -96.5482751 Eh     change       -0.5063476E-06 Eh
 * total energy  :   -96.5482758 Eh     change       -0.7535875E-06 Eh
 * total energy  :   -96.5482767 Eh     change       -0.9011058E-06 Eh
 * total energy  :   -96.5482768 Eh     change       -0.5035682E-07 Eh
 * total energy  :   -96.5482772 Eh     change       -0.4400538E-06 Eh
 * total energy  :   -96.5482777 Eh     change       -0.4394957E-06 Eh
 * total energy  :   -96.5482780 Eh     change       -0.3238512E-06 Eh
 * total energy  :   -96.5482783 Eh     change       -0.3257534E-06 Eh
 * total energy  :   -96.5482786 Eh     change       -0.3065021E-06 Eh
 * total energy  :   -96.5482789 Eh     change       -0.2745300E-06 Eh
 * total energy  :   -96.5482791 Eh     change       -0.2306128E-06 Eh
 * total energy  :   -96.5482794 Eh     change       -0.2442923E-06 Eh
 * total energy  :   -96.5482796 Eh     change       -0.2827000E-06 Eh
 * total energy  :   -96.5482800 Eh     change       -0.3232861E-06 Eh
 * total energy  :   -96.5482802 Eh     change       -0.2624549E-06 Eh
 * total energy  :   -96.5482804 Eh     change       -0.1371891E-06 Eh
 * total energy  :   -96.5482804 Eh     change       -0.5687632E-07 Eh
   *** GEOMETRY OPTIMIZATION CONVERGED AFTER 18 ITERATIONS ***

 final structure:
================
61
 xtb: 6.7.1 (edcfbbe)
C            8.42291905883216        0.11998889287810        0.60163894401448
C            7.64870120795539       -0.76095738286063        1.33825420636972
C            6.28735189771814       -0.84514023219953        1.11397220739607
C            5.68024227907645       -0.04622480533552        0.14655067153942
C            4.22946299434871       -0.10677622326152       -0.07328693729588
C            3.53137769830947       -1.30136990233473       -0.31879896541976
C            4.23359772285017       -2.51775927989867       -0.53243212065532
C            3.58169184378007       -3.68233517367550       -0.79520862668117
C            2.17621274805049       -3.70156976740211       -0.88848603723628
C            1.46301621331250       -2.55693949638844       -0.70979996473060
C            2.09590932055850       -1.32264309994867       -0.40441501695364
C            1.33748618138481       -0.14966477619304       -0.23873599312996
C           -0.12526128984491       -0.13334971800382       -0.18088984638641
C           -0.82195391528918       -0.99472986822424        0.66806799192021
C           -2.19663175675944       -0.95104580358703        0.74944106401085
C           -2.92421859869600       -0.04751883669791       -0.02727550466832
N           -4.31761538104144       -0.00897436861487        0.04592582228324
C           -5.04306336055273       -1.19113473072285        0.23419499141447
C           -6.18345952225323       -1.20109229593199        1.03707231248271
C           -6.89905171281499       -2.36898695931204        1.21499741652126
C           -6.48876195824758       -3.54378284029432        0.60621807303566
C           -5.35476015816617       -3.54025966031316       -0.18941269055571
C           -4.63725431920093       -2.37566382184371       -0.38040615534919
C           -4.99315271796715        1.21292235312537       -0.06239382860579
C           -6.21163422944089        1.28815426061055       -0.73651852253839
C           -6.87845519393841        2.49375770474209       -0.83555278102831
C           -6.34140566983383        3.64103717362841       -0.27495252866241
C           -5.12904268926565        3.57222782723607        0.39181226206629
C           -4.45848104038625        2.36991512217179        0.50379364643914
C           -2.22993162721937        0.82094381276910       -0.87174131160198
C           -0.85451413413496        0.78446043928151       -0.93604817419994
C            2.03968308699623        1.05210900950255       -0.09396477521199
N            1.51839530000093        2.28086547469695        0.03765861508238
S            2.71297448107288        3.32950622642450        0.23121995781343
N            3.95075704372519        2.31629195628377        0.17311093069332
C            3.48206437875887        1.07273664712317       -0.01196852940159
C            6.46401208533144        0.84849800772209       -0.57718559499325
C            7.82567599274630        0.92549120376614       -0.35373404253844
H            9.48696170746550        0.18258707234722        0.77649533325655
H            8.10683620203243       -1.38281369226414        2.09387819380803
H            5.68136770472567       -1.51696434615801        1.70548438947227
H            5.31252230448821       -2.49432144319524       -0.51056286398642
H            4.13745884197187       -4.59341964181298       -0.96084159827588
H            1.67254468188284       -4.62651829990721       -1.12769628322058
H            0.39046583440402       -2.56445390915292       -0.83020890417266
H           -0.27297706799179       -1.67880455389085        1.29914746505228
H           -2.71945063596057       -1.61107058548033        1.42624318466830
H           -6.49995340903406       -0.28858488865022        1.52081103440702
H           -7.77917008890701       -2.36319375541937        1.84111148233777
H           -7.04881453560355       -4.45517180839348        0.75042908402418
H           -5.03077697990911       -4.45011641549968       -0.67314172248523
H           -3.76007680333185       -2.37280042323305       -1.01086752993736
H           -6.62773171643356        0.39670271765718       -1.18283314291286
H           -7.82052772157232        2.53873627164909       -1.36205761065373
H           -6.86399558119416        4.58193142639917       -0.35720447238087
H           -4.70509857882725        4.46053736443913        0.83647805831034
H           -3.51805784901678        2.31731003330318        1.03240911989224
H           -2.78132051505453        1.52219070055039       -1.48061387890363
H           -0.33152777139440        1.45944786880717       -1.59513123596358
H            5.99842014483532        1.47637146620897       -1.32121533726459
H            8.42468780386851        1.61828712417843       -0.92664884500984

          :  Hamiltonian                  GFN2-xTB          :
         :: gradient norm              0.000044674517 Eh/a0 ::
         :: HOMO-LUMO gap              1.082331545218 eV    ::
         :: SCC energy               -98.292759759449 Eh    ::
         :: -> dispersion             -0.086558669549 Eh    ::
         :: repulsion energy           1.744479313122 Eh    ::

    * Orbital Energies and Occupations

         #    Occupation            Energy/Eh            Energy/eV
      -------------------------------------------------------------
         1        2.0000           -0.7567895             -20.5933
       ...           ...                  ...                  ...
        78        2.0000           -0.4164607             -11.3325
        79        2.0000           -0.4082741             -11.1097
        80        2.0000           -0.4076960             -11.0940
        81        2.0000           -0.4066003             -11.0642
        82        2.0000           -0.4051984             -11.0260
        83        2.0000           -0.4042054             -10.9990
        84        2.0000           -0.4033313             -10.9752
        85        2.0000           -0.4024199             -10.9504
        86        2.0000           -0.4018550             -10.9350
        87        2.0000           -0.3979443             -10.8286
        88        2.0000           -0.3950627             -10.7502
        89        2.0000           -0.3636822              -9.8963
        90        2.0000           -0.3469315              -9.4405 (HOMO)
        91                         -0.3071566              -8.3582 (LUMO)
        92                         -0.2490808              -6.7778
        93                         -0.2308901              -6.2828
        94                         -0.2304305              -6.2703
        95                         -0.2271555              -6.1812
        96                         -0.2251668              -6.1271
        97                         -0.2217480              -6.0341
        98                         -0.2206151              -6.0032
        99                         -0.2199168              -5.9842
       100                         -0.2185460              -5.9469
       101                         -0.2064553              -5.6179
       ...                                ...                  ...
       180                          0.7499701              20.4077
      -------------------------------------------------------------
                  HL-Gap            0.0397749 Eh            1.0823 eV

     #   Z          covCN         q      C6AA      α(0)
     1   6 C        2.920    -0.030    28.758     8.794
     2   6 C        2.919    -0.030    28.751     8.793
     3   6 C        2.924    -0.032    28.806     8.802
     4   6 C        2.977     0.019    27.589     8.616
     5   6 C        2.970    -0.014    28.356     8.735
     6   6 C        2.985     0.006    27.885     8.662
     7   6 C        2.919    -0.035    28.862     8.810
     8   6 C        2.914    -0.030    28.739     8.791
     9   6 C        2.914    -0.030    28.751     8.793
    10   6 C        2.918    -0.035    28.862     8.810
    11   6 C        2.984     0.005    27.909     8.666
    12   6 C        2.970    -0.012    28.309     8.727
    13   6 C        2.976     0.010    27.797     8.648
    14   6 C        2.923    -0.033    28.816     8.803
    15   6 C        2.920    -0.049    29.223     8.865
    16   6 C        2.924     0.065    26.554     8.451
    17   7 N        2.752    -0.073    22.650     7.068
    18   6 C        2.924     0.065    26.542     8.449
    19   6 C        2.922    -0.047    29.171     8.857
    20   6 C        2.920    -0.029    28.727     8.789
    21   6 C        2.919    -0.038    28.948     8.823
    22   6 C        2.919    -0.029    28.731     8.790
    23   6 C        2.922    -0.047    29.172     8.857
    24   6 C        2.925     0.065    26.547     8.449
    25   6 C        2.922    -0.047    29.174     8.858
    26   6 C        2.920    -0.029    28.731     8.790
    27   6 C        2.919    -0.038    28.943     8.822
    28   6 C        2.920    -0.029    28.722     8.789
    29   6 C        2.922    -0.047    29.165     8.856
    30   6 C        2.921    -0.047    29.178     8.858
    31   6 C        2.924    -0.028    28.692     8.784
    32   6 C        3.345     0.068    23.954     7.726
    33   7 N        1.851    -0.275    27.986     7.841
    34  16 S        2.677     0.333   128.201    19.057
    35   7 N        1.851    -0.275    27.991     7.841
    36   6 C        3.346     0.069    23.924     7.719
    37   6 C        2.925    -0.027    28.680     8.782
    38   6 C        2.919    -0.028    28.701     8.785
    39   1 H        0.926     0.030     2.588     2.516
    40   1 H        0.926     0.030     2.590     2.517
    41   1 H        0.926     0.031     2.575     2.509
    42   1 H        0.926     0.038     2.482     2.463
    43   1 H        0.926     0.031     2.571     2.508
    44   1 H        0.926     0.031     2.576     2.510
    45   1 H        0.926     0.037     2.489     2.467
    46   1 H        0.926     0.035     2.521     2.483
    47   1 H        0.926     0.033     2.546     2.495
    48   1 H        0.926     0.032     2.556     2.500
    49   1 H        0.926     0.032     2.560     2.502
    50   1 H        0.926     0.030     2.579     2.511
    51   1 H        0.926     0.032     2.564     2.504
    52   1 H        0.926     0.031     2.568     2.506
    53   1 H        0.926     0.032     2.564     2.504
    54   1 H        0.926     0.032     2.564     2.504
    55   1 H        0.926     0.031     2.578     2.511
    56   1 H        0.926     0.033     2.548     2.496
    57   1 H        0.926     0.035     2.522     2.483
    58   1 H        0.926     0.035     2.519     2.482
    59   1 H        0.926     0.043     2.409     2.427
    60   1 H        0.926     0.038     2.472     2.459
    61   1 H        0.926     0.032     2.562     2.503

molecular dipole:
                 x           y           z       tot (Debye)
 q only:       -0.341      -0.078      -0.062
   full:       -0.332      -0.347      -0.057       1.229

 projected vibrational frequencies (cm⁻¹)
eigval :       -0.00    -0.00     0.00     0.00     0.00     0.00
eigval :       14.34    16.01    18.40    37.43    48.00    51.88
eigval :       58.50    60.70    73.75    74.89    83.01    86.54
eigval :      106.92   138.00   149.08   181.62   194.05   206.20
eigval :      227.23   233.83   235.21   240.33   269.17   297.68
eigval :      314.44   325.91   355.30   373.03   378.18   380.64
eigval :      386.31   390.00   393.19   415.57   419.88   427.64
eigval :      440.60   478.97   487.96   490.63   500.98   508.36
eigval :      553.73   580.55   582.93   586.16   590.27   592.59
eigval :      601.97   612.65   618.27   633.08   649.73   660.10
eigval :      666.48   673.37   686.91   692.96   706.02   724.37
eigval :      734.69   757.20   758.50   761.20   778.17   812.69
eigval :      831.77   867.09   874.04   874.74   876.19   880.01
eigval :      882.23   892.26   893.21   897.33   898.82   903.22
eigval :      910.16   914.07   918.17   919.79   924.63   927.62
eigval :      928.75   929.29   929.61   929.65   938.03   941.22
eigval :      941.39   985.49   988.24  1005.03  1009.18  1030.61
eigval :     1083.20  1083.78  1084.13  1085.73  1121.83  1121.95
eigval :     1124.17  1142.19  1143.60  1180.70  1180.80  1182.05
eigval :     1182.76  1184.91  1187.27  1195.56  1197.22  1200.64
eigval :     1216.21  1234.23  1246.58  1271.02  1278.43  1280.42
eigval :     1282.45  1290.98  1299.78  1314.28  1317.62  1318.71
eigval :     1319.64  1326.56  1327.10  1330.46  1372.96  1374.62
eigval :     1411.72  1420.96  1430.07  1436.25  1443.09  1457.69
eigval :     1470.20  1472.23  1476.00  1491.25  1497.55  1523.55
eigval :     1533.83  1551.80  1577.10  1578.92  1581.12  1590.74
eigval :     1594.62  1596.57  1600.51  1615.97  3069.16  3074.23
eigval :     3075.11  3075.83  3076.21  3076.56  3077.21  3078.09
eigval :     3080.53  3084.25  3084.70  3086.07  3086.88  3088.23
eigval :     3089.19  3089.53  3090.62  3096.05  3097.43  3097.87
eigval :     3098.57  3098.83  3104.18

   temp. (K)  partition function   enthalpy   heat capacity  entropy
                                   cal/mol     cal/K/mol   cal/K/mol   J/K/mol
 298.15  VIB  0.133E+14            17165.492    109.903    106.841
         ROT  0.474E+08              888.752      2.981     38.105
         INT  0.631E+21            18054.244    112.884    144.946
         TR   0.110E+29             1481.254      4.968     44.529
         TOT                       19535.4978   117.8517   189.4746   792.7619

       T/K    H(0)-H(T)+PV         H(T)/Eh          T*S/Eh         G(T)/Eh
   ------------------------------------------------------------------------
    298.15    0.311318E-01    0.492776E+00    0.900255E-01    0.402751E+00
   ------------------------------------------------------------------------

         :::::::::::::::::::::::::::::::::::::::::::::::::::::
         ::                  THERMODYNAMIC                  ::
         :::::::::::::::::::::::::::::::::::::::::::::::::::::
         :: total free energy         -96.145529876578 Eh   ::
         ::.................................................::
         :: total energy              -96.548280446349 Eh   ::
         :: zero point energy           0.461644284595 Eh   ::
         :: G(RRHO) w/o ZPVE           -0.058893714824 Eh   ::
         :: G(RRHO) contrib.            0.402750569771 Eh   ::
         :::::::::::::::::::::::::::::::::::::::::::::::::::::

           -------------------------------------------------
          | TOTAL ENERGY              -96.548280446349 Eh   |
          | TOTAL ENTHALPY            -96.055504364403 Eh   |
          | TOTAL FREE ENERGY         -96.145529876578 Eh   |
          | GRADIENT NORM               0.000044329238 Eh/α |
          | HOMO-LUMO GAP               1.082330887165 eV   |
           -------------------------------------------------

 * finished run on 2025/09/10 at 11:28:19.427
