   * xtb version 6.7.1 (edcfbbe) compiled by 'albert@albert-system' on 2024-07-22

   ID    Z sym.   atoms
    1    6 C      1-16, 18-32, 36-38
    2    7 N      17, 33, 35
    3   16 S      34
    4    1 H      39-61

          program call               : xtb data2507/gas/TPA-NZP/TPA-NZP_gas_S0_finalOpt.xtbopt.xyz --gfn 2 --spinpol --tblite --uhf 2 --ohess vtight --parallel 40 --molden --ceasefiles --namespace data2507/gas/TPA-NZP/TPA-NZP_gas_T1_preOpt
 * total energy  :   -96.4986746 Eh     change        0.2251085E-08 Eh
 * total energy  :   -96.5027602 Eh     change       -0.4085610E-02 Eh
 * total energy  :   -96.5044492 Eh     change       -0.1688931E-02 Eh
 * total energy  :   -96.5046879 Eh     change       -0.2386922E-03 Eh
 * total energy  :   -96.5049398 Eh     change       -0.2519015E-03 Eh
 * total energy  :   -96.5050666 Eh     change       -0.1268762E-03 Eh
 * total energy  :   -96.5051962 Eh     change       -0.1295477E-03 Eh
 * total energy  :   -96.5053015 Eh     change       -0.1053593E-03 Eh
 * total energy  :   -96.5053673 Eh     change       -0.6571333E-04 Eh
 * total energy  :   -96.5054050 Eh     change       -0.3769976E-04 Eh
 * total energy  :   -96.5059558 Eh     change       -0.4641266E-06 Eh
 * total energy  :   -96.5059567 Eh     change       -0.8564086E-06 Eh
 * total energy  :   -96.5059574 Eh     change       -0.6980335E-06 Eh
 * total energy  :   -96.5059578 Eh     change       -0.4635646E-06 Eh
 * total energy  :   -96.5059582 Eh     change       -0.3793593E-06 Eh
 * total energy  :   -96.5059584 Eh     change       -0.1975461E-06 Eh
 * total energy  :   -96.5059586 Eh     change       -0.1783331E-06 Eh
 * total energy  :   -96.5059588 Eh     change       -0.1923306E-06 Eh
 * total energy  :   -96.5059588 Eh     change       -0.6512110E-08 Eh
   *** GEOMETRY OPTIMIZATION CONVERGED AFTER 52 ITERATIONS ***

 final structure:
================
61
 xtb: 6.7.1 (edcfbbe)
C            8.22927856288891        0.10519795607217        1.12446367701635
C            7.33621789494269       -0.77755926081960        1.71270645586777
C            6.03608029156357       -0.85845658301491        1.25835854699091
C            5.59524903657172       -0.04940928819854        0.20232468123409
C            4.21736810894270       -0.10996192921658       -0.24730551890479
C            3.50864064707708       -1.35048553138395       -0.40455595737879
C            4.20631343358118       -2.56170021884273       -0.47481805568838
C            3.55465362213560       -3.76290068975628       -0.69345875418928
C            2.18548267528102       -3.77496155207099       -0.89288976429033
C            1.47441187969764       -2.58671899979735       -0.86268365253413
C            2.09681915641539       -1.36493922733885       -0.59160501213421
C            1.33788996254349       -0.13830949786826       -0.60243531086123
C           -0.09070653805362       -0.11190038199566       -0.45275114891647
C           -0.75249313418205       -1.02245369439490        0.39352517039407
C           -2.11264545606628       -0.97900724252079        0.56674305949840
C           -2.88881200994836       -0.02466464772986       -0.10403708402105
N           -4.26747249259226        0.01069929121388        0.06141503666034
C           -4.98339761116983       -1.17491186830403        0.26972507907922
C           -6.06008675304191       -1.20245604789518        1.15597519189109
C           -6.76662545491109       -2.37272280732309        1.35330782971100
C           -6.41057888240195       -3.52968432754621        0.67914928420313
C           -5.34111905579725       -3.50731538075145       -0.20147397915588
C           -4.63205333282504       -2.34078930639120       -0.41089998299622
C           -4.95353769060482        1.23222420428674        0.02720761426995
C           -6.20898026607371        1.31693446489126       -0.57420723323279
C           -6.88633911657713        2.52043807642364       -0.59894316954765
C           -6.32394620597102        3.65347470321516       -0.03359072951024
C           -5.07582389180741        3.57406728524061        0.56278141593350
C           -4.39287701704319        2.37409285883429        0.59914125559270
C           -2.23917791534411        0.89844453223365       -0.93359610990979
C           -0.87719254494455        0.86192732173919       -1.09427419824090
C            2.07469490518660        1.06462129464483       -0.72295396021911
N            1.57864147984732        2.28189707858808       -0.88382987720473
S            2.80755881670841        3.37148036495494       -0.83478506180233
N            4.01490473640934        2.30139240829883       -0.56479280888489
C            3.50971493809418        1.07461486998002       -0.53648254384851
C            6.50138818296009        0.85278964645995       -0.36587971031409
C            7.80301315059945        0.92049760789936        0.08728739664497
H            9.24799630246907        0.16236987627518        1.47864727603608
H            7.65584973383932       -1.40145046480326        2.53519464549839
H            5.33546157685153       -1.52113212162076        1.74625841046936
H            5.28220205059304       -2.55265421197457       -0.38920885328349
H            4.12109695779627       -4.68131285325825       -0.73376987881317
H            1.67058552056717       -4.70261165044071       -1.09436113625231
H            0.41893184578903       -2.60047546407680       -1.08882377169182
H           -0.17066181233565       -1.72940790866922        0.96630908374339
H           -2.59318746126936       -1.66735745057868        1.24698099285637
H           -6.33166213202907       -0.30374079637727        1.69001269573693
H           -7.59621233501318       -2.38308724866980        2.04450431569160
H           -6.96361948043243       -4.44266584624372        0.83829356115739
H           -5.06196384957610       -4.40297537581846       -0.73629100753327
H           -3.80761950863697       -2.32007168027812       -1.10837223507243
H           -6.64325809199551        0.43650606161741       -1.02486932194531
H           -7.85635721268017        2.57531662432607       -1.07033226822221
H           -6.85528901844922        4.59253364773603       -0.05754652026035
H           -4.63314002982572        4.45109885359089        1.01067466836557
H           -3.42558008726674        2.31052864016463        1.07508295247162
H           -2.82535773242721        1.63325088084888       -1.46568925922584
H           -0.39410038245633        1.57147205980050       -1.74517079392448
H            6.17273843930740        1.48543121574584       -1.17436693455765
H            8.49325742130322        1.61390877291653       -0.37073067842360

 projected vibrational frequencies (cm⁻¹)
eigval :       -0.00    -0.00    -0.00     0.00     0.00     0.00
eigval :       12.61    16.25    19.91    36.40    47.15    53.64
eigval :       59.68    65.00    76.34    78.09    84.16    88.74
eigval :      113.76   136.12   149.74   181.75   193.15   204.68
eigval :      224.22   234.75   243.24   247.16   278.47   296.45
eigval :      305.11   324.91   355.65   367.25   374.92   377.70
eigval :      380.42   387.44   392.88   408.90   412.70   420.42
eigval :      436.27   461.55   468.13   487.04   490.79   508.57
eigval :      550.58   577.64   580.68   584.13   589.31   592.10
eigval :      593.78   606.85   613.03   623.23   646.32   660.19
eigval :      665.27   667.41   677.42   683.34   697.58   716.95
eigval :      723.37   754.26   757.94   760.11   760.96   771.11
eigval :      816.02   838.46   852.77   855.78   866.81   874.05
eigval :      875.27   878.70   892.06   895.53   898.34   899.31
eigval :      908.09   910.02   912.11   915.15   916.46   925.66
eigval :      928.22   929.27   929.71   930.54   937.14   938.92
eigval :      943.60   985.34   988.60  1004.53  1011.26  1024.60
eigval :     1082.20  1083.00  1083.17  1106.49  1121.68  1123.68
eigval :     1124.14  1127.77  1146.50  1172.83  1180.21  1180.35
eigval :     1181.03  1183.10  1184.50  1193.82  1196.02  1201.46
eigval :     1215.94  1240.33  1245.93  1269.95  1277.00  1280.10
eigval :     1281.11  1295.20  1305.75  1315.73  1317.96  1318.86
eigval :     1323.49  1326.32  1328.28  1334.17  1342.90  1364.68
eigval :     1405.65  1421.22  1423.13  1431.77  1435.15  1439.64
eigval :     1441.76  1459.68  1466.15  1468.69  1469.52  1474.07
eigval :     1513.91  1541.35  1544.71  1559.18  1574.75  1574.84
eigval :     1579.33  1582.05  1589.43  1594.68  3068.65  3075.23
eigval :     3076.24  3077.01  3079.42  3080.15  3080.88  3080.89
eigval :     3082.61  3084.63  3084.83  3088.70  3089.20  3089.80
eigval :     3090.04  3092.49  3093.56  3093.95  3098.09  3100.70
eigval :     3101.31  3114.41  3122.77

   temp. (K)  partition function   enthalpy   heat capacity  entropy
                                   cal/mol     cal/K/mol   cal/K/mol   J/K/mol
 298.15  VIB  0.123E+14            17253.283    110.858    107.095
         ROT  0.478E+08              888.752      2.981     38.122
         INT  0.589E+21            18142.035    113.839    145.217
         TR   0.110E+29             1481.254      4.968     44.529
         TOT                       19623.2893   118.8068   189.7457   793.8959

       T/K    H(0)-H(T)+PV         H(T)/Eh          T*S/Eh         G(T)/Eh
   ------------------------------------------------------------------------
    298.15    0.312717E-01    0.491302E+00    0.901543E-01    0.401148E+00
   ------------------------------------------------------------------------

         :::::::::::::::::::::::::::::::::::::::::::::::::::::
         ::                  THERMODYNAMIC                  ::
         :::::::::::::::::::::::::::::::::::::::::::::::::::::
         :: total free energy         -96.104811205813 Eh   ::
         ::.................................................::
         :: total energy              -96.505958777279 Eh   ::
         :: zero point energy           0.460030160440 Eh   ::
         :: G(RRHO) w/o ZPVE           -0.058882588974 Eh   ::
         :: G(RRHO) contrib.            0.401147571466 Eh   ::
         :::::::::::::::::::::::::::::::::::::::::::::::::::::

           -------------------------------------------------
          | TOTAL ENERGY              -96.505958777279 Eh   |
          | TOTAL ENTHALPY            -96.014656914744 Eh   |
          | TOTAL FREE ENERGY         -96.104811205813 Eh   |
          | GRADIENT NORM               0.000156576781 Eh/α |
           -------------------------------------------------

 * finished run on 2025/09/10 at 11:28:26.049
