   * xtb version 6.7.1 (edcfbbe) compiled by 'albert@albert-system' on 2024-07-22

   ID    Z sym.   atoms
    1    6 C      1-5, 7-15, 17-48, 50-74
    2    7 N      6, 16, 49
    3    1 H      75-145

          program call               : xtb data2507/toluene/TPA-PyF2/TPA-PyF2.xyz --gfn 2 --gbsa toluene --ohess vtight --parallel 40 --molden --ceasefiles --namespace data2507/toluene/TPA-PyF2/TPA-PyF2_toluene_S0_preOpt
      * Solvation model:               GBSA
        Solvent                        toluene
        Solvent mass                       9.2140E+01 g/mol
          :  Hamiltonian                  GFN2-xTB          :
 * total energy  :  -197.1589678 Eh     change       -0.4959929E-08 Eh
 * total energy  :  -197.1793114 Eh     change       -0.2034365E-01 Eh
 * total energy  :  -197.1875463 Eh     change       -0.8234854E-02 Eh
 * total energy  :  -197.1914142 Eh     change       -0.3867895E-02 Eh
 * total energy  :  -197.1937636 Eh     change       -0.2349459E-02 Eh
 * total energy  :  -197.1947705 Eh     change       -0.1006898E-02 Eh
 * total energy  :  -197.1952663 Eh     change       -0.4957625E-03 Eh
 * total energy  :  -197.1956746 Eh     change       -0.4082712E-03 Eh
 * total energy  :  -197.1960173 Eh     change       -0.3427038E-03 Eh
 * total energy  :  -197.1962116 Eh     change       -0.1942840E-03 Eh
 * total energy  :  -197.1973162 Eh     change       -0.8027937E-06 Eh
 * total energy  :  -197.1973172 Eh     change       -0.9436366E-06 Eh
 * total energy  :  -197.1973184 Eh     change       -0.1264009E-05 Eh
 * total energy  :  -197.1973203 Eh     change       -0.1836691E-05 Eh
 * total energy  :  -197.1973228 Eh     change       -0.2474225E-05 Eh
 * total energy  :  -197.1973254 Eh     change       -0.2658498E-05 Eh
 * total energy  :  -197.1973276 Eh     change       -0.2208043E-05 Eh
 * total energy  :  -197.1973294 Eh     change       -0.1770572E-05 Eh
 * total energy  :  -197.1973294 Eh     change       -0.7354458E-08 Eh
   *** GEOMETRY OPTIMIZATION CONVERGED AFTER 185 ITERATIONS ***

 final structure:
================
145
 xtb: 6.7.1 (edcfbbe)
C            0.28996553920296       -1.45103294676941        7.88526985009688
C            0.20237327215279       -1.15947825810800        6.41760258988815
C           -0.72799587700881       -0.25493474887841        5.91970200341123
C           -0.81981428797231        0.00496525090719        4.56619805109743
C            0.01788308165188       -0.64880778450340        3.66489316204475
N           -0.07048060215585       -0.39356912825758        2.28698962933592
C            1.10000371104905       -0.30045670206841        1.52786308442757
C            2.24996916241206        0.27762964335765        2.06470646357075
C            3.40614160841792        0.36852582774886        1.31610629093642
C            3.44828604712059       -0.09424261511454        0.00660984741149
C            4.72805424565807       -0.03947327050684       -0.80161701199911
C            4.47869983231086        0.27593036645253       -2.25933298922606
C            5.24009530647411       -0.28877282712004       -3.27643916427991
C            5.00746846234848        0.09144544851056       -4.58825967866024
C            4.02660486892615        1.03780927201810       -4.83765670445248
N            3.30051779545398        1.59180407310793       -3.87940860959714
C            3.52291197979198        1.21886563436908       -2.63223380362647
C            5.49044662002148       -1.33612916561804       -0.59544147026273
C            5.07824478178850       -2.61909647355267       -0.86756648606094
C            5.92427590856698       -3.69934909921125       -0.60259981446579
C            5.43873440411507       -5.10554592807345       -0.92197036362174
C            6.46692065204276       -6.18471671236506       -0.56923892558992
C            5.14279010065073       -5.20084468236273       -2.42661169985212
C            4.15849175265447       -5.38539740325519       -0.12027635389589
C            7.17825070030573       -3.43746852371079       -0.05902704589328
C            7.60099809991523       -2.14747798497483        0.22494396885831
C            6.75421681017533       -1.08734540137730       -0.04268740788206
C            6.90712832565149        0.34569030779895        0.13831723946735
C            7.95130724483916        1.10875681739791        0.62837937103931
C            7.80993537678065        2.48692582770680        0.68888894166034
C            6.64835368361410        3.12826717210060        0.26885869666375
C            6.46873152068778        4.63782235539502        0.32967263432482
C            5.27477749179637        4.96046960138282        1.24116495718868
C            7.70011571903238        5.36186224570870        0.88261073120155
C            6.20021241381352        5.16688489049283       -1.08748805732652
C            5.60236014485656        2.34604681990684       -0.22779468539224
C            5.73091670858687        0.97855129657809       -0.28572866012830
C            2.30409283680071       -0.68241802965343       -0.52295344577597
C            1.14739588617957       -0.78847612913745        0.22187782685306
C           -1.32163240147581       -0.22165015672708        1.69003305844193
C           -2.42970155174104       -0.93676867810591        2.14639228804599
C           -3.67063641684021       -0.74655490736656        1.57488043296822
C           -3.84929995760936        0.14897343417981        0.52472366413330
C           -5.21119389515661        0.30168020638873       -0.12150015472796
C           -6.32548277302541        0.34029191788399        0.90046867086132
C           -6.16660778501924        1.00346533693247        2.11391309827118
C           -7.23404228571930        1.07719816648786        2.99229065268551
C           -8.43162226107992        0.48379797445569        2.62430933601463
N           -8.60000057388067       -0.14469586106873        1.47238968516747
C           -7.57756290469287       -0.20764787116505        0.63723853122618
C           -5.39050372206729       -0.79248041829014       -1.15974145047765
C           -5.35907041858839       -2.15746304391780       -0.97231031717768
C           -5.53951546854129       -3.01245783298255       -2.05789033755340
C           -5.51961846307027       -4.52736686610584       -1.91437356052804
C           -4.37881511701065       -5.09538554765523       -2.77222138512505
C           -6.86382980994212       -5.09713097773298       -2.39205276995822
C           -5.29903108638099       -4.98093931623628       -0.46778532947569
C           -5.74403117858152       -2.44782681925357       -3.31741424710831
C           -5.77194928310600       -1.07945167200818       -3.51761924493057
C           -5.59275950012884       -0.24101255937135       -2.43013701468255
C           -5.57611887363193        1.20661608516620       -2.31781111394941
C           -5.74174802219054        2.20789815079888       -3.25725841268261
C           -5.67578639826365        3.53226164620457       -2.85148724852278
C           -5.44899250495671        3.88649442133955       -1.52494578160075
C           -5.36469909990213        5.33253463817038       -1.05833084515004
C           -5.56438075102404        6.33771605209151       -2.19672656328806
C           -6.45361300780387        5.58302235824860       -0.00393935332281
C           -3.97832498458609        5.57810850041666       -0.44321652092659
C           -5.28843677077043        2.86483188276556       -0.58515741063346
C           -5.34486832460964        1.54868217828844       -0.97882229402044
C           -2.74015091912230        0.84122422556908        0.05466484520918
C           -1.49793916097690        0.67165929605232        0.63337471393672
C            0.95030949465737       -1.56066583362808        4.15690748209618
C            1.03921151760802       -1.80417902072332        5.51304604683127
H            1.32145758832568       -1.62648951980659        8.18362271940647
H           -0.11222282478462       -0.62688690648481        8.46980651905070
H           -0.28471381615855       -2.34736440832460        8.12327898783607
H           -1.38581974078884        0.26404396323612        6.60256460896032
H           -1.54158986156487        0.72008344195713        4.19876162315254
H            2.23194460406219        0.65875906438286        3.07523754323608
H            4.28468280205623        0.81915596168984        1.75367783086697
H            6.00301782830171       -1.01818962201626       -3.04478451944904
H            5.57933698572855       -0.33568426901155       -5.39775210893909
H            3.80648784354460        1.37348354785672       -5.84290630547488
H            2.89461900801942        1.69459540424810       -1.88930596321795
H            4.09784663621329       -2.78155285185725       -1.28849837802528
H            7.38706285389142       -6.04986847670650       -1.13339837440784
H            6.69472693209891       -6.17565734020632        0.49435354079870
H            6.06230961708333       -7.16405750122167       -0.81746995959961
H            4.36800900004284       -4.49933061152731       -2.72438253057226
H            6.04092373802351       -4.98214062415171       -3.00148964488850
H            4.80753231797870       -6.20460543059742       -2.67952804731403
H            4.35530825154671       -5.29247244360810        0.94625180553363
H            3.80533214891358       -6.39507758068542       -0.31991839054024
H            3.36484063669663       -4.68997551885145       -0.38022588327594
H            7.85514033358919       -4.24810876109692        0.15611216765301
H            8.58032750980903       -1.97927033754263        0.64883731738594
H            8.86750127898078        0.64286375609534        0.96098317235192
H            8.63560045981585        3.06161832240074        1.07558999094614
H            5.44974616427374        4.57138778058736        2.24265648253054
H            4.35547407963753        4.52259196275581        0.86160031897056
H            5.13631553466228        6.03756402072320        1.30859855704222
H            8.57287779154532        5.18312036021681        0.25845025416795
H            7.51213686812794        6.43366648879077        0.89733872125453
H            7.91694615405282        5.04581391289106        1.90057099545305
H            7.03030864454849        4.91716018937175       -1.74589861785339
H            6.08894022701188        6.24908288565716       -1.06766938268209
H            5.29374716983568        4.74001462516992       -1.50845558993356
H            4.68573377896955        2.80589020243123       -0.56434219146583
H            2.31216140711402       -1.06016745730132       -1.53564198834432
H            0.27048573587288       -1.25197981014933       -0.20649519874738
H           -2.31143896800442       -1.64295995357536        2.95526918292201
H           -4.51474640461236       -1.30291195927890        1.95683408486861
H           -5.21499685482637        1.44757083248374        2.36986328349554
H           -7.13876262244416        1.58350821841446        3.94079738003679
H           -9.29785250896555        0.50918824387175        3.27287725409666
H           -7.77067712566522       -0.72752251137450       -0.29263464178860
H           -5.19885319412013       -2.54680476455318        0.01890015847879
H           -3.42498677589930       -4.68149130769507       -2.45015498648737
H           -4.51595498690425       -4.85655124488676       -3.82329618961729
H           -4.33834660657151       -6.17801993502457       -2.67105823669715
H           -7.67937776601538       -4.68112634914625       -1.80331409777487
H           -6.87266620100543       -6.17919356844165       -2.27774098099771
H           -7.04551077011202       -4.86465324201944       -3.43771712393262
H           -5.29589865426349       -6.06850222160069       -0.42678856260743
H           -4.34288294959956       -4.62787701709257       -0.08725539270347
H           -6.09642072275734       -4.62370068834934        0.18050939759299
H           -5.88603399566062       -3.09076963347605       -4.17315598060479
H           -5.93216344664652       -0.67583994836214       -4.50673888670921
H           -5.92107048336627        1.96750117431566       -4.29509310735131
H           -5.80696526046418        4.29566043322060       -3.60086346141765
H           -5.49287549290754        7.34939358392480       -1.80192137461641
H           -4.79917026652298        6.22159213600733       -2.96101069529136
H           -6.54553363778338        6.22411860627191       -2.65231690525692
H           -7.43771262535205        5.38407761834767       -0.42446986347178
H           -6.42232307286544        6.61913072170948        0.32698891034640
H           -6.32129138431876        4.94436841585704        0.86529166901802
H           -3.80205991593907        4.93093498454115        0.41179355552044
H           -3.20023737581409        5.38781894461003       -1.18022925299951
H           -3.89400184619519        6.61108956502857       -0.11179632482888
H           -5.11219689237207        3.10014639188921        0.45342689563424
H           -2.84819473037370        1.53537241078082       -0.76559515329179
H           -0.65433326747306        1.23780101610050        0.26647558749872
H            1.60545721630846       -2.07467540470362        3.46825752808797
H            1.76861123305205       -2.51469109484811        5.87552213825581

          :  Hamiltonian                  GFN2-xTB          :
         :: gradient norm              0.000068528459 Eh/a0 ::
         :: HOMO-LUMO gap              2.581050730496 eV    ::
         :: SCC energy              -200.700263400179 Eh    ::
         :: -> dispersion             -0.197330799638 Eh    ::
         :: -> Gsolv                  -0.076887418573 Eh    ::
         :: repulsion energy           3.502934002250 Eh    ::

    * Orbital Energies and Occupations

         #    Occupation            Energy/Eh            Energy/eV
      -------------------------------------------------------------
         1        2.0000           -0.6657190             -18.1151
       ...           ...                  ...                  ...
       173        2.0000           -0.4051089             -11.0236
       174        2.0000           -0.4035223             -10.9804
       175        2.0000           -0.3987433             -10.8504
       176        2.0000           -0.3972741             -10.8104
       177        2.0000           -0.3962922             -10.7837
       178        2.0000           -0.3953065             -10.7568
       179        2.0000           -0.3943317             -10.7303
       180        2.0000           -0.3933093             -10.7025
       181        2.0000           -0.3721566             -10.1269
       182        2.0000           -0.3703918             -10.0789
       183        2.0000           -0.3700089             -10.0685
       184        2.0000           -0.3682534             -10.0207
       185        2.0000           -0.3462981              -9.4233 (HOMO)
       186                         -0.2514462              -6.8422 (LUMO)
       187                         -0.2499842              -6.8024
       188                         -0.2476833              -6.7398
       189                         -0.2474253              -6.7328
       190                         -0.2390011              -6.5036
       191                         -0.2369899              -6.4488
       192                         -0.2322566              -6.3200
       193                         -0.2288499              -6.2273
       194                         -0.2269408              -6.1754
       195                         -0.2222496              -6.0477
       196                         -0.2206397              -6.0039
       ...                                ...                  ...
       367                          0.7356145              20.0171
      -------------------------------------------------------------
                  HL-Gap            0.0948519 Eh            2.5811 eV

     #   Z          covCN         q      C6AA      α(0)
     1   6 C        3.757    -0.110    22.649     6.785
     2   6 C        2.965     0.010    27.784     8.646
     3   6 C        2.924    -0.041    29.014     8.833
     4   6 C        2.921    -0.049    29.219     8.864
     5   6 C        2.924     0.060    26.648     8.466
     6   7 N        2.751    -0.080    22.796     7.091
     7   6 C        2.923     0.064    26.558     8.451
     8   6 C        2.922    -0.049    29.222     8.865
     9   6 C        2.923    -0.036    28.891     8.815
    10   6 C        2.977     0.005    27.906     8.665
    11   6 C        3.946     0.009    20.361     6.412
    12   6 C        2.976     0.010    27.799     8.649
    13   6 C        2.933    -0.018    28.458     8.749
    14   6 C        2.912    -0.041    29.010     8.832
    15   6 C        2.912     0.056    26.734     8.478
    16   7 N        1.835    -0.245    27.229     7.733
    17   6 C        2.917     0.059    26.687     8.471
    18   6 C        3.054    -0.002    28.020     8.681
    19   6 C        2.922    -0.041    29.020     8.834
    20   6 C        2.974     0.006    27.886     8.662
    21   6 C        3.903     0.025    20.091     6.371
    22   6 C        3.761    -0.107    22.595     6.776
    23   6 C        3.761    -0.103    22.521     6.765
    24   6 C        3.761    -0.103    22.523     6.765
    25   6 C        2.925    -0.044    29.097     8.846
    26   6 C        2.914    -0.039    28.961     8.825
    27   6 C        3.034    -0.005    28.114     8.697
    28   6 C        3.034    -0.005    28.114     8.697
    29   6 C        2.914    -0.039    28.963     8.825
    30   6 C        2.925    -0.044    29.096     8.846
    31   6 C        2.974     0.006    27.874     8.660
    32   6 C        3.903     0.025    20.091     6.371
    33   6 C        3.761    -0.104    22.528     6.766
    34   6 C        3.761    -0.107    22.597     6.777
    35   6 C        3.761    -0.104    22.524     6.765
    36   6 C        2.921    -0.041    29.023     8.835
    37   6 C        3.056    -0.002    28.015     8.680
    38   6 C        2.923    -0.035    28.868     8.811
    39   6 C        2.921    -0.049    29.223     8.865
    40   6 C        2.922     0.064    26.568     8.453
    41   6 C        2.922    -0.051    29.256     8.870
    42   6 C        2.923    -0.035    28.868     8.811
    43   6 C        2.976     0.006    27.885     8.662
    44   6 C        3.946     0.009    20.361     6.412
    45   6 C        2.976     0.010    27.791     8.647
    46   6 C        2.933    -0.016    28.409     8.741
    47   6 C        2.912    -0.041    29.021     8.834
    48   6 C        2.912     0.057    26.729     8.478
    49   7 N        1.835    -0.245    27.232     7.733
    50   6 C        2.915     0.056    26.735     8.479
    51   6 C        3.054    -0.004    28.064     8.688
    52   6 C        2.920    -0.046    29.141     8.852
    53   6 C        2.974     0.006    27.883     8.662
    54   6 C        3.902     0.025    20.093     6.372
    55   6 C        3.761    -0.104    22.543     6.768
    56   6 C        3.761    -0.105    22.548     6.769
    57   6 C        3.761    -0.106    22.564     6.772
    58   6 C        2.928    -0.040    28.989     8.830
    59   6 C        2.913    -0.038    28.956     8.824
    60   6 C        3.035    -0.006    28.125     8.699
    61   6 C        3.034    -0.005    28.116     8.697
    62   6 C        2.914    -0.038    28.955     8.824
    63   6 C        2.925    -0.044    29.093     8.845
    64   6 C        2.974     0.006    27.892     8.663
    65   6 C        3.903     0.025    20.090     6.371
    66   6 C        3.761    -0.107    22.596     6.776
    67   6 C        3.761    -0.103    22.522     6.765
    68   6 C        3.761    -0.104    22.526     6.766
    69   6 C        2.922    -0.041    29.026     8.835
    70   6 C        3.056    -0.002    28.017     8.680
    71   6 C        2.922    -0.036    28.897     8.815
    72   6 C        2.922    -0.050    29.245     8.868
    73   6 C        2.921    -0.049    29.214     8.863
    74   6 C        2.925    -0.041    29.010     8.833
    75   1 H        0.925     0.046     2.374     2.409
    76   1 H        0.925     0.045     2.389     2.417
    77   1 H        0.924     0.049     2.327     2.385
    78   1 H        0.926     0.033     2.538     2.491
    79   1 H        0.926     0.029     2.595     2.519
    80   1 H        0.926     0.033     2.542     2.493
    81   1 H        0.926     0.034     2.529     2.487
    82   1 H        0.926     0.039     2.456     2.451
    83   1 H        0.926     0.040     2.442     2.444
    84   1 H        0.925     0.036     2.509     2.477
    85   1 H        0.925     0.032     2.552     2.498
    86   1 H        0.926     0.028     2.620     2.531
    87   1 H        0.925     0.036     2.497     2.471
    88   1 H        0.925     0.036     2.498     2.472
    89   1 H        0.925     0.038     2.473     2.459
    90   1 H        0.925     0.035     2.518     2.482
    91   1 H        0.925     0.032     2.552     2.498
    92   1 H        0.925     0.039     2.459     2.452
    93   1 H        0.925     0.032     2.555     2.500
    94   1 H        0.925     0.039     2.458     2.452
    95   1 H        0.925     0.035     2.515     2.480
    96   1 H        0.926     0.039     2.465     2.455
    97   1 H        0.926     0.029     2.599     2.521
    98   1 H        0.926     0.030     2.591     2.517
    99   1 H        0.926     0.039     2.457     2.451
   100   1 H        0.925     0.033     2.542     2.494
   101   1 H        0.925     0.036     2.505     2.475
   102   1 H        0.925     0.040     2.453     2.449
   103   1 H        0.925     0.036     2.501     2.473
   104   1 H        0.925     0.039     2.468     2.457
   105   1 H        0.925     0.037     2.491     2.468
   106   1 H        0.925     0.031     2.568     2.506
   107   1 H        0.925     0.040     2.451     2.448
   108   1 H        0.925     0.035     2.519     2.482
   109   1 H        0.926     0.027     2.632     2.537
   110   1 H        0.926     0.026     2.640     2.541
   111   1 H        0.926     0.032     2.562     2.503
   112   1 H        0.926     0.032     2.558     2.501
   113   1 H        0.926     0.029     2.604     2.523
   114   1 H        0.926     0.039     2.465     2.455
   115   1 H        0.926     0.041     2.438     2.442
   116   1 H        0.925     0.035     2.510     2.478
   117   1 H        0.925     0.033     2.545     2.494
   118   1 H        0.926     0.035     2.511     2.478
   119   1 H        0.925     0.032     2.557     2.501
   120   1 H        0.925     0.037     2.488     2.467
   121   1 H        0.925     0.040     2.453     2.449
   122   1 H        0.925     0.033     2.546     2.495
   123   1 H        0.925     0.040     2.455     2.450
   124   1 H        0.925     0.037     2.486     2.466
   125   1 H        0.925     0.038     2.474     2.460
   126   1 H        0.925     0.035     2.518     2.481
   127   1 H        0.925     0.035     2.522     2.483
   128   1 H        0.926     0.032     2.562     2.503
   129   1 H        0.926     0.029     2.600     2.522
   130   1 H        0.926     0.029     2.596     2.520
   131   1 H        0.926     0.039     2.461     2.453
   132   1 H        0.925     0.038     2.471     2.458
   133   1 H        0.925     0.037     2.492     2.468
   134   1 H        0.925     0.036     2.503     2.474
   135   1 H        0.925     0.031     2.565     2.505
   136   1 H        0.925     0.040     2.453     2.449
   137   1 H        0.925     0.034     2.525     2.485
   138   1 H        0.925     0.036     2.506     2.476
   139   1 H        0.925     0.033     2.542     2.493
   140   1 H        0.925     0.039     2.458     2.452
   141   1 H        0.926     0.028     2.619     2.531
   142   1 H        0.926     0.034     2.535     2.490
   143   1 H        0.926     0.031     2.571     2.507
   144   1 H        0.926     0.029     2.593     2.518
   145   1 H        0.926     0.034     2.534     2.489

molecular dipole:
                 x           y           z       tot (Debye)
 q only:        1.045      -0.229       0.787
   full:        1.562      -0.329       0.886       4.640

 projected vibrational frequencies (cm⁻¹)
eigval :       -0.00    -0.00    -0.00     0.00     0.00     0.00
eigval :        3.80     4.41     9.74    13.29    17.04    20.36
eigval :       22.27    25.64    30.72    33.18    35.21    36.00
eigval :       37.78    39.28    42.93    43.14    48.83    54.25
eigval :       56.76    58.26    60.34    67.48    72.64    75.94
eigval :       79.23    80.68    85.67    89.99   111.90   128.27
eigval :      134.49   138.98   142.68   148.22   150.73   152.61
eigval :      159.75   172.83   178.19   181.02   185.26   188.63
eigval :      191.72   192.87   198.51   205.03   207.23   213.23
eigval :      219.49   221.36   224.21   230.94   240.15   242.82
eigval :      247.95   253.51   256.63   266.81   277.70   283.71
eigval :      294.18   296.41   301.19   307.15   317.08   319.79
eigval :      320.82   324.84   325.67   326.24   330.16   330.91
eigval :      334.29   341.27   343.26   351.99   356.08   359.58
eigval :      364.49   365.47   366.85   367.49   372.47   380.51
eigval :      384.24   385.14   385.77   388.52   391.42   396.24
eigval :      424.25   428.33   429.81   432.86   439.91   443.87
eigval :      447.17   448.43   450.28   456.97   458.74   477.40
eigval :      477.79   481.23   484.75   497.23   510.18   518.89
eigval :      529.46   529.97   542.33   543.37   555.01   556.45
eigval :      581.97   595.20   599.13   601.98   604.66   609.51
eigval :      612.44   613.43   617.96   619.61   625.87   626.03
eigval :      641.57   657.25   659.62   669.05   677.43   680.83
eigval :      688.66   690.51   690.97   696.80   704.45   717.52
eigval :      717.96   725.02   727.84   728.80   734.33   783.65
eigval :      786.94   800.31   802.69   804.49   810.78   816.05
eigval :      817.40   818.65   822.63   829.89   831.03   869.67
eigval :      870.27   870.52   872.26   874.56   876.87   877.90
eigval :      885.01   887.65   889.72   892.00   903.17   905.58
eigval :      905.87   909.91   911.40   912.19   912.67   912.78
eigval :      915.04   916.25   918.31   918.78   922.76   925.61
eigval :      929.09   931.43   934.01   934.73   941.13   944.79
eigval :      958.29   958.64   958.86   959.79   960.16   960.30
eigval :      960.77   961.21   961.89   962.21   962.64   963.99
eigval :      964.36   965.10   965.82   967.46  1009.54  1011.15
eigval :     1012.51  1013.67  1014.51  1017.50  1029.61  1031.14
eigval :     1033.53  1033.73  1034.13  1034.42  1034.86  1034.88
eigval :     1035.53  1036.84  1036.98  1095.61  1095.63  1114.24
eigval :     1114.68  1125.58  1125.68  1137.53  1138.28  1140.35
eigval :     1141.37  1143.07  1144.34  1146.87  1176.30  1178.73
eigval :     1184.10  1188.55  1189.80  1193.29  1193.62  1196.68
eigval :     1196.86  1197.37  1199.08  1210.30  1224.29  1224.57
eigval :     1225.10  1225.68  1226.92  1228.72  1230.08  1231.91
eigval :     1232.96  1233.59  1235.27  1237.55  1239.09  1241.78
eigval :     1253.03  1255.33  1257.61  1267.93  1269.52  1271.71
eigval :     1276.13  1277.52  1280.83  1282.96  1283.06  1283.85
eigval :     1287.84  1288.51  1297.97  1303.98  1314.12  1322.48
eigval :     1324.58  1325.67  1326.12  1327.62  1329.85  1370.26
eigval :     1374.03  1397.57  1399.63  1400.16  1400.40  1401.29
eigval :     1401.49  1402.99  1403.00  1403.09  1404.24  1404.57
eigval :     1405.62  1413.94  1415.09  1417.35  1418.55  1426.73
eigval :     1426.91  1427.50  1428.15  1432.26  1432.43  1446.15
eigval :     1446.69  1451.87  1452.44  1472.72  1477.52  1480.08
eigval :     1482.14  1484.43  1485.15  1488.41  1489.01  1489.09
eigval :     1489.67  1491.67  1491.77  1491.98  1492.40  1493.28
eigval :     1498.42  1498.43  1499.35  1500.02  1501.61  1502.68
eigval :     1503.02  1503.33  1510.72  1510.98  1511.56  1511.72
eigval :     1516.96  1517.06  1518.21  1519.18  1558.80  1563.86
eigval :     1565.55  1567.97  1572.88  1574.19  1574.83  1576.72
eigval :     1577.44  1591.45  1593.56  1597.52  1600.25  1603.38
eigval :     1604.74  1607.12  1609.17  1610.49  2989.95  3018.77
eigval :     3019.05  3019.30  3019.42  3019.79  3020.03  3020.26
eigval :     3020.51  3022.50  3022.67  3023.05  3023.86  3024.21
eigval :     3024.23  3024.55  3024.59  3026.39  3027.02  3027.18
eigval :     3027.89  3028.63  3030.30  3030.58  3030.71  3030.89
eigval :     3034.39  3035.79  3035.85  3036.35  3038.29  3040.71
eigval :     3042.80  3042.83  3044.33  3044.60  3046.10  3046.69
eigval :     3047.22  3048.03  3053.15  3053.36  3055.90  3067.86
eigval :     3068.28  3068.60  3070.41  3070.99  3072.42  3073.00
eigval :     3075.22  3075.63  3075.75  3077.53  3078.88  3081.45
eigval :     3082.48  3084.83  3085.81  3086.19  3086.92  3087.29
eigval :     3088.07  3088.43  3090.08  3090.69  3092.21  3112.39
eigval :     3112.74  3114.26  3122.42

   temp. (K)  partition function   enthalpy   heat capacity  entropy
                                   cal/mol     cal/K/mol   cal/K/mol   J/K/mol
 298.15  VIB  0.877E+35            42416.191    255.650    268.087
         ROT  0.310E+09              888.752      2.981     41.837
         INT  0.272E+44            43304.944    258.631    309.924
         TR   0.291E+29             1481.254      4.968     46.458
         TOT                       44786.1978   263.5993   356.3823  1491.1035

       T/K    H(0)-H(T)+PV         H(T)/Eh          T*S/Eh         G(T)/Eh
   ------------------------------------------------------------------------
    298.15    0.713713E-01    0.127096E+01    0.169329E+00    0.110163E+01
   ------------------------------------------------------------------------

         :::::::::::::::::::::::::::::::::::::::::::::::::::::
         ::                  THERMODYNAMIC                  ::
         :::::::::::::::::::::::::::::::::::::::::::::::::::::
         :: total free energy        -196.095696202817 Eh   ::
         ::.................................................::
         :: total energy             -197.197329392332 Eh   ::
         :: zero point energy           1.199590561038 Eh   ::
         :: G(RRHO) w/o ZPVE           -0.097957371524 Eh   ::
         :: G(RRHO) contrib.            1.101633189514 Eh   ::
         :::::::::::::::::::::::::::::::::::::::::::::::::::::

           -------------------------------------------------
          | TOTAL ENERGY             -197.197329392332 Eh   |
          | TOTAL ENTHALPY           -195.926367482192 Eh   |
          | TOTAL FREE ENERGY        -196.095696202817 Eh   |
          | GRADIENT NORM               0.000068529454 Eh/α |
          | HOMO-LUMO GAP               2.581050994766 eV   |
           -------------------------------------------------

 * finished run on 2025/08/23 at 04:17:11.507
