   * xtb version 6.7.1 (edcfbbe) compiled by 'albert@albert-system' on 2024-07-22

   ID    Z sym.   atoms
    1    6 C      1-5, 7-15, 17-48, 50-74
    2    7 N      6, 16, 49
    3    1 H      75-145

          program call               : xtb data2507/toluene/TPA-PyF2/TPA-PyF2_toluene_S0_crest.xyz --gfn 2 --gbsa toluene --ohess vtight --parallel 40 --molden --ceasefiles --namespace data2507/toluene/TPA-PyF2/TPA-PyF2_toluene_S0_finalOpt
      * Solvation model:               GBSA
        Solvent                        toluene
        Solvent mass                       9.2140E+01 g/mol
          :  Hamiltonian                  GFN2-xTB          :
 * total energy  :  -197.1963184 Eh     change       -0.7839304E-08 Eh
 * total energy  :  -197.1964948 Eh     change       -0.1763323E-03 Eh
 * total energy  :  -197.1966574 Eh     change       -0.1626029E-03 Eh
 * total energy  :  -197.1967324 Eh     change       -0.7497612E-04 Eh
 * total energy  :  -197.1968277 Eh     change       -0.9535181E-04 Eh
 * total energy  :  -197.1969041 Eh     change       -0.7639460E-04 Eh
 * total energy  :  -197.1969731 Eh     change       -0.6900265E-04 Eh
 * total energy  :  -197.1970237 Eh     change       -0.5059986E-04 Eh
 * total energy  :  -197.1971072 Eh     change       -0.8349727E-04 Eh
 * total energy  :  -197.1972029 Eh     change       -0.9565335E-04 Eh
 * total energy  :  -197.1984300 Eh     change       -0.4099574E-06 Eh
 * total energy  :  -197.1984304 Eh     change       -0.4285984E-06 Eh
 * total energy  :  -197.1984308 Eh     change       -0.4110544E-06 Eh
 * total energy  :  -197.1984312 Eh     change       -0.3773140E-06 Eh
 * total energy  :  -197.1984315 Eh     change       -0.3253631E-06 Eh
 * total energy  :  -197.1984318 Eh     change       -0.3127448E-06 Eh
 * total energy  :  -197.1984322 Eh     change       -0.3206157E-06 Eh
 * total energy  :  -197.1984325 Eh     change       -0.3796682E-06 Eh
 * total energy  :  -197.1984325 Eh     change       -0.3471598E-08 Eh
   *** GEOMETRY OPTIMIZATION CONVERGED AFTER 68 ITERATIONS ***

 final structure:
================
145
 xtb: 6.7.1 (edcfbbe)
C           -0.02465797347563        8.22105570039951       -0.03750691682685
C           -0.02643480782550        6.72205697870193       -0.01927433086145
C           -0.98413165191064        6.00578493402902        0.68673600512003
C           -0.97934942401991        4.62410540061734        0.70105527049961
C           -0.01322369668788        3.91381757698276       -0.00906066458343
N           -0.00894156518660        2.51537463896431       -0.00703860477172
C            1.19514595171015        1.80343759281083       -0.06281255280243
C            1.28332537153180        0.64017904408266       -0.82807701090775
C            2.45346081471801       -0.08842195096546       -0.86086427429312
C            3.57337474888930        0.32194852221435       -0.14367914689526
C            4.81014188839331       -0.55072354828835       -0.11233286092920
C            5.13092426677704       -1.14346136760025       -1.46613368352658
C            4.98517471490393       -0.39486615051073       -2.63065005698142
C            5.35511664256949       -0.94900540303520       -3.84411787103373
C            5.86494174130679       -2.23824268377032       -3.85114269455909
N            6.01395030767707       -2.96007780066175       -2.75253320327975
C            5.66005020143494       -2.42405942054342       -1.59732322094082
C            4.61841760341610       -1.59744872009747        0.97176110537496
C            3.60953277610286       -2.52304780806622        1.09548493260706
C            3.58642744077114       -3.39545474166157        2.18678623658392
C            2.45009389434645       -4.40169861644462        2.29617119600602
C            1.11771704566715       -3.63987404239662        2.36718650136138
C            2.55831725877241       -5.28892962082115        3.53996286664236
C            2.46255017534497       -5.31085676465776        1.05789575815660
C            4.60472724854108       -3.29837679172555        3.13034944406372
C            5.62289517300160       -2.36353168980475        3.01859240000196
C            5.63012003145981       -1.50212265307987        1.93668730807758
C            6.53037722605516       -0.42708215796783        1.55894975004104
C            7.68057499332109        0.06495079384070        2.15274763934655
C            8.34003320317380        1.12424794596382        1.55563452911071
C            7.88656540220932        1.71499656615986        0.37560962345220
C            8.66537859476893        2.87737162897305       -0.22289974787362
C            8.03433890616716        3.40885052453637       -1.51373631372970
C            8.71272724182497        4.02817243552713        0.79371757854561
C           10.09266651651893        2.41069832865778       -0.54671881959231
C            6.72879304098031        1.20948116683256       -0.21286532183689
C            6.06204156758927        0.15706766270783        0.37648915366604
C            3.48712439376379        1.48731265801826        0.60777202708242
C            2.31819605044399        2.22270883393808        0.64767144670924
C           -1.20901479907891        1.79672192872529        0.04834461234669
C           -1.29007657789058        0.63155450552982        0.81150612654986
C           -2.45626802554028       -0.10345082737587        0.84423171239369
C           -3.57936151886768        0.30256083655402        0.12958719387520
C           -4.81266852292699       -0.57497035620496        0.09961201723425
C           -5.12959623003276       -1.17077894559883        1.45294704192097
C           -4.98126086178958       -0.42509135315774        2.61891947844875
C           -5.34944550736940       -0.98155462570514        3.83183665175691
C           -5.85986461341018       -2.27055399924943        3.83687148715109
N           -6.01091191077157       -2.98991594229425        2.73696590697551
C           -5.65904941864343       -2.45144232502459        1.58233924361604
C           -4.62120751376022       -1.61975677923954       -0.98637196998152
C           -3.61008798224358       -2.54253895922227       -1.11292786330594
C           -3.58757166685183       -3.41490954365092       -2.20424225033958
C           -2.44939854657682       -4.41876563899660       -2.31612808519879
C           -2.55796912972987       -5.30548391559804       -3.56024743474379
C           -2.45841169930266       -5.32860997882620       -1.07831891817936
C           -1.11846661440938       -3.65457885572097       -2.38873615487034
C           -4.60869182304444       -3.32050099372273       -3.14503203051952
C           -5.62907138749985       -2.38841817645911       -3.03044218401392
C           -5.63591281800899       -1.52710765515029       -1.94842034892463
C           -6.53885037240892       -0.45506859233889       -1.56822374040289
C           -7.69021479111455        0.03443597122596       -2.15734556994595
C           -8.35648499120534        1.09416451048108       -1.56058678982957
C           -7.90163385557415        1.68239988861496       -0.38432367114838
C           -8.61407898047150        2.84740171492687        0.28694540768144
C           -9.88337772500902        3.27598473322938       -0.45549514210246
C           -9.01235864314710        2.43630381327832        1.71272405449737
C           -7.66081075394405        4.05116014181437        0.33913454121619
C           -6.73774983689393        1.17734652892106        0.20130216152608
C           -6.06769138117450        0.12969641911564       -0.38488674976657
C           -3.50016299713479        1.46969838746094       -0.61998255736763
C           -2.33509726863155        2.21103489694030       -0.66031847596589
C            0.94909638662938        4.62782016712116       -0.72368811794502
C            0.94060581206413        6.00754529851067       -0.71965746215686
H           -0.83250007649950        8.61850315150697        0.57176686110190
H            0.92087529247159        8.60551393733008        0.34389369312369
H           -0.14492445099928        8.58825990091721       -1.05659383640407
H           -1.74444780433138        6.53511057669588        1.24378313015926
H           -1.72696317502373        4.08656178042552        1.26616881869119
H            0.42385694664793        0.31083466198452       -1.39396599152522
H            2.49944293656624       -0.98346288878593       -1.46498571721627
H            4.57639716442273        0.60480032856146       -2.58690282754783
H            5.25099882656923       -0.39287884692387       -4.76331034682039
H            6.16891374062608       -2.72043056584271       -4.77136514627463
H            5.80543741804218       -3.05562392206516       -0.73001797024503
H            2.83686368054060       -2.56874623428937        0.34363357748576
H            0.29159263975648       -4.34079122406344        2.46865773670179
H            1.11113029914993       -2.97138479239923        3.22639913171850
H            0.95444539195483       -3.04501637640534        1.47278920538690
H            2.52279332771415       -4.69423188351940        4.45011696277796
H            1.72170196929316       -5.98468513171373        3.56128206954432
H            3.47749904899880       -5.87025410193915        3.52791857488216
H            3.40901911411837       -5.84421028447001        0.99154172444162
H            2.33086836603611       -4.73909583814029        0.14333531026275
H            1.65817357609050       -6.04079348142578        1.12238591915578
H            4.61803074436977       -3.95792327032955        3.98272223389907
H            6.39546464855125       -2.31107683954966        3.77189786502700
H            8.06054409380660       -0.36944264807819        3.06587387667807
H            9.23625622611562        1.49738881208421        2.02816718875233
H            7.02742618394734        3.77959047366604       -1.33414374277454
H            8.00078910366196        2.63725608566412       -2.28010485006476
H            8.63268144555022        4.23415073855834       -1.89483901452342
H            9.21010995124968        3.72733689391835        1.71167013608763
H            9.25399187546025        4.87409438273953        0.37499411516807
H            7.70407041066874        4.35262359842166        1.04289806351284
H           10.61634102955683        2.08329745651087        0.34721017984230
H           10.65968289438466        3.22440020059055       -0.99436761296961
H           10.06650305054733        1.58011150639836       -1.24984280238331
H            6.33920770791016        1.63183811503014       -1.12418076328056
H            4.34072229945074        1.81952795439500        1.18020610303151
H            2.26589562753583        3.12253433211562        1.24323991470640
H           -0.42830608371171        0.30581879599644        1.37598460426938
H           -2.49669038108853       -0.99993863982455        1.44664826368266
H           -4.57154675162964        0.57436875746022        2.57650131438804
H           -5.24348418041821       -0.42757006338515        4.75212074627402
H           -6.16245593253935       -2.75451112719910        4.75658093676242
H           -5.80627527704150       -3.08094421067296        0.71385282094474
H           -2.83534681756770       -2.58609683720634       -0.36307353348190
H           -2.52546612077711       -4.71011826871040       -4.47007064213307
H           -3.47583680762547       -5.88885158534328       -3.54687318950410
H           -1.71987572150747       -5.99939254541844       -3.58353135195193
H           -2.32713567488623       -4.75696570694133       -0.16362535542281
H           -1.65240986141583       -6.05663958562299       -1.14402229745600
H           -3.40357236996654       -5.86418998801016       -1.01121494261468
H           -1.11435525449445       -2.98560412082925       -3.24757379488817
H           -0.95469987413800       -3.05994711730522       -1.49427412179433
H           -0.29133581885940       -4.35405675921000       -2.49189747647612
H           -4.62261850456684       -3.98013622630583       -3.99732205485193
H           -6.40396502532795       -2.33813831250492       -3.78149227625916
H           -8.07119681434415       -0.40016613157500       -3.07001281690025
H           -9.25202662878329        1.45826242280252       -2.03703687926599
H          -10.34897528746407        4.10509390364892        0.07387131955480
H           -9.65413555932373        3.60962387314773       -1.46510231627011
H          -10.60321130542559        2.46182494617971       -0.50223906328114
H           -9.66152517173742        1.56296130053014        1.68518795739421
H           -9.54686299059919        3.24880634484642        2.20069273425300
H           -8.14191460225734        2.19193333668061        2.31561914565294
H           -7.36234295732057        4.33890025603828       -0.66730563932605
H           -8.15506440183136        4.89941989965158        0.80824855050384
H           -6.76314608593036        3.82298760014797        0.90757984424646
H           -6.35376502179834        1.60811321616431        1.11344307569897
H           -4.35630391344545        1.79911104122053       -1.19015740357353
H           -2.28869476995878        3.11207946805399       -1.25443816370446
H            1.70100637971185        4.09189715696649       -1.28468159019224
H            1.69388261920071        6.54338949666338       -1.28006153014950

          :  Hamiltonian                  GFN2-xTB          :
         :: gradient norm              0.000040122402 Eh/a0 ::
         :: HOMO-LUMO gap              2.612893544430 eV    ::
         :: SCC energy              -200.701889991947 Eh    ::
         :: -> dispersion             -0.199317822656 Eh    ::
         :: -> Gsolv                  -0.076727771646 Eh    ::
         :: repulsion energy           3.503457443529 Eh    ::

    * Orbital Energies and Occupations

         #    Occupation            Energy/Eh            Energy/eV
      -------------------------------------------------------------
         1        2.0000           -0.6655129             -18.1095
       ...           ...                  ...                  ...
       173        2.0000           -0.4049924             -11.0204
       174        2.0000           -0.4028319             -10.9616
       175        2.0000           -0.3982474             -10.8369
       176        2.0000           -0.3980357             -10.8311
       177        2.0000           -0.3967340             -10.7957
       178        2.0000           -0.3965582             -10.7909
       179        2.0000           -0.3944170             -10.7326
       180        2.0000           -0.3940872             -10.7237
       181        2.0000           -0.3715824             -10.1113
       182        2.0000           -0.3712928             -10.1034
       183        2.0000           -0.3688511             -10.0369
       184        2.0000           -0.3688226             -10.0362
       185        2.0000           -0.3467666              -9.4360 (HOMO)
       186                         -0.2507446              -6.8231 (LUMO)
       187                         -0.2507352              -6.8229
       188                         -0.2486853              -6.7671
       189                         -0.2484043              -6.7594
       190                         -0.2379205              -6.4741
       191                         -0.2374212              -6.4606
       192                         -0.2337167              -6.3598
       193                         -0.2291974              -6.2368
       194                         -0.2282422              -6.2108
       195                         -0.2232829              -6.0758
       196                         -0.2201955              -5.9918
       ...                                ...                  ...
       367                          0.7362561              20.0345
      -------------------------------------------------------------
                  HL-Gap            0.0960221 Eh            2.6129 eV

     #   Z          covCN         q      C6AA      α(0)
     1   6 C        3.757    -0.109    22.638     6.784
     2   6 C        2.965     0.008    27.835     8.654
     3   6 C        2.924    -0.041    29.014     8.833
     4   6 C        2.921    -0.051    29.278     8.873
     5   6 C        2.921     0.060    26.647     8.465
     6   7 N        2.752    -0.082    22.826     7.096
     7   6 C        2.925     0.064    26.562     8.452
     8   6 C        2.922    -0.049    29.215     8.864
     9   6 C        2.923    -0.035    28.861     8.810
    10   6 C        2.978     0.007    27.848     8.656
    11   6 C        3.947     0.009    20.358     6.411
    12   6 C        2.976     0.010    27.794     8.648
    13   6 C        2.933    -0.016    28.414     8.742
    14   6 C        2.912    -0.041    29.023     8.834
    15   6 C        2.912     0.057    26.729     8.478
    16   7 N        1.835    -0.244    27.222     7.732
    17   6 C        2.915     0.056    26.737     8.479
    18   6 C        3.055    -0.004    28.062     8.688
    19   6 C        2.922    -0.042    29.035     8.836
    20   6 C        2.974     0.006    27.880     8.661
    21   6 C        3.903     0.025    20.091     6.371
    22   6 C        3.761    -0.101    22.481     6.759
    23   6 C        3.761    -0.107    22.594     6.776
    24   6 C        3.761    -0.103    22.522     6.765
    25   6 C        2.925    -0.044    29.096     8.846
    26   6 C        2.914    -0.039    28.960     8.824
    27   6 C        3.034    -0.006    28.128     8.699
    28   6 C        3.035    -0.005    28.115     8.697
    29   6 C        2.913    -0.038    28.953     8.823
    30   6 C        2.928    -0.040    28.986     8.829
    31   6 C        2.974     0.006    27.890     8.663
    32   6 C        3.902     0.025    20.092     6.372
    33   6 C        3.761    -0.106    22.565     6.772
    34   6 C        3.761    -0.105    22.545     6.769
    35   6 C        3.761    -0.105    22.543     6.768
    36   6 C        2.919    -0.046    29.137     8.852
    37   6 C        3.056    -0.002    28.020     8.681
    38   6 C        2.922    -0.036    28.891     8.814
    39   6 C        2.921    -0.048    29.199     8.861
    40   6 C        2.925     0.064    26.563     8.452
    41   6 C        2.922    -0.049    29.218     8.864
    42   6 C        2.923    -0.035    28.863     8.810
    43   6 C        2.978     0.007    27.856     8.657
    44   6 C        3.946     0.009    20.355     6.411
    45   6 C        2.976     0.010    27.795     8.648
    46   6 C        2.933    -0.016    28.411     8.742
    47   6 C        2.912    -0.041    29.021     8.834
    48   6 C        2.912     0.057    26.726     8.477
    49   7 N        1.835    -0.244    27.213     7.731
    50   6 C        2.915     0.056    26.735     8.479
    51   6 C        3.055    -0.004    28.060     8.687
    52   6 C        2.922    -0.042    29.034     8.836
    53   6 C        2.974     0.006    27.879     8.661
    54   6 C        3.903     0.025    20.090     6.371
    55   6 C        3.761    -0.107    22.594     6.776
    56   6 C        3.761    -0.103    22.522     6.765
    57   6 C        3.761    -0.101    22.483     6.759
    58   6 C        2.925    -0.044    29.095     8.846
    59   6 C        2.914    -0.039    28.959     8.824
    60   6 C        3.034    -0.006    28.127     8.699
    61   6 C        3.034    -0.005    28.115     8.697
    62   6 C        2.914    -0.038    28.957     8.824
    63   6 C        2.925    -0.044    29.094     8.846
    64   6 C        2.974     0.006    27.891     8.663
    65   6 C        3.903     0.025    20.090     6.371
    66   6 C        3.761    -0.107    22.595     6.776
    67   6 C        3.761    -0.103    22.523     6.765
    68   6 C        3.761    -0.104    22.524     6.766
    69   6 C        2.922    -0.041    29.028     8.835
    70   6 C        3.056    -0.002    28.018     8.681
    71   6 C        2.922    -0.036    28.893     8.815
    72   6 C        2.921    -0.048    29.200     8.861
    73   6 C        2.921    -0.051    29.271     8.872
    74   6 C        2.925    -0.041    29.025     8.835
    75   1 H        0.925     0.042     2.418     2.432
    76   1 H        0.925     0.047     2.359     2.402
    77   1 H        0.925     0.047     2.356     2.400
    78   1 H        0.926     0.031     2.566     2.505
    79   1 H        0.926     0.028     2.620     2.531
    80   1 H        0.926     0.031     2.567     2.505
    81   1 H        0.926     0.029     2.598     2.521
    82   1 H        0.926     0.040     2.445     2.445
    83   1 H        0.926     0.041     2.438     2.442
    84   1 H        0.925     0.035     2.512     2.478
    85   1 H        0.925     0.034     2.534     2.489
    86   1 H        0.926     0.029     2.603     2.523
    87   1 H        0.925     0.039     2.462     2.454
    88   1 H        0.925     0.030     2.581     2.513
    89   1 H        0.925     0.035     2.520     2.482
    90   1 H        0.925     0.036     2.507     2.476
    91   1 H        0.925     0.038     2.470     2.458
    92   1 H        0.925     0.036     2.497     2.471
    93   1 H        0.925     0.032     2.552     2.498
    94   1 H        0.925     0.036     2.503     2.474
    95   1 H        0.925     0.040     2.447     2.446
    96   1 H        0.926     0.039     2.463     2.454
    97   1 H        0.926     0.029     2.599     2.521
    98   1 H        0.926     0.029     2.598     2.521
    99   1 H        0.926     0.032     2.562     2.503
   100   1 H        0.925     0.036     2.505     2.475
   101   1 H        0.925     0.034     2.529     2.487
   102   1 H        0.925     0.038     2.474     2.460
   103   1 H        0.925     0.037     2.488     2.467
   104   1 H        0.925     0.040     2.455     2.450
   105   1 H        0.925     0.033     2.544     2.494
   106   1 H        0.925     0.037     2.489     2.467
   107   1 H        0.925     0.040     2.454     2.450
   108   1 H        0.925     0.032     2.565     2.504
   109   1 H        0.926     0.035     2.510     2.477
   110   1 H        0.926     0.034     2.535     2.490
   111   1 H        0.926     0.033     2.544     2.494
   112   1 H        0.926     0.031     2.569     2.506
   113   1 H        0.926     0.029     2.601     2.522
   114   1 H        0.926     0.039     2.465     2.455
   115   1 H        0.926     0.041     2.440     2.443
   116   1 H        0.925     0.036     2.508     2.477
   117   1 H        0.925     0.034     2.532     2.489
   118   1 H        0.926     0.029     2.603     2.523
   119   1 H        0.925     0.036     2.506     2.476
   120   1 H        0.925     0.036     2.497     2.471
   121   1 H        0.925     0.038     2.470     2.458
   122   1 H        0.925     0.036     2.504     2.475
   123   1 H        0.925     0.040     2.447     2.446
   124   1 H        0.925     0.032     2.552     2.498
   125   1 H        0.925     0.030     2.580     2.512
   126   1 H        0.925     0.035     2.520     2.482
   127   1 H        0.925     0.039     2.461     2.453
   128   1 H        0.926     0.039     2.462     2.454
   129   1 H        0.926     0.029     2.597     2.520
   130   1 H        0.926     0.029     2.595     2.519
   131   1 H        0.926     0.039     2.462     2.454
   132   1 H        0.925     0.038     2.472     2.459
   133   1 H        0.925     0.037     2.494     2.469
   134   1 H        0.925     0.036     2.503     2.474
   135   1 H        0.925     0.031     2.566     2.505
   136   1 H        0.925     0.040     2.453     2.449
   137   1 H        0.925     0.034     2.524     2.484
   138   1 H        0.925     0.033     2.543     2.494
   139   1 H        0.925     0.039     2.457     2.451
   140   1 H        0.925     0.036     2.505     2.475
   141   1 H        0.926     0.028     2.616     2.529
   142   1 H        0.926     0.034     2.528     2.486
   143   1 H        0.926     0.033     2.539     2.492
   144   1 H        0.926     0.028     2.617     2.530
   145   1 H        0.926     0.033     2.549     2.496

molecular dipole:
                 x           y           z       tot (Debye)
 q only:        0.011       1.450      -0.024
   full:        0.029       2.080      -0.014       5.289

 projected vibrational frequencies (cm⁻¹)
eigval :       -0.00    -0.00    -0.00     0.00     0.00     0.00
eigval :        6.73     6.97    12.82    13.66    22.69    23.91
eigval :       26.49    27.25    30.74    31.82    37.02    37.69
eigval :       39.69    40.83    43.20    45.41    48.90    52.56
eigval :       53.76    55.47    56.86    61.60    72.00    78.70
eigval :       81.03    83.98    85.52    93.47   110.31   130.45
eigval :      131.81   133.97   144.45   149.01   155.30   156.49
eigval :      161.09   173.83   177.57   183.47   184.75   185.88
eigval :      189.73   194.59   199.76   204.66   211.63   216.71
eigval :      221.38   223.80   224.97   231.35   238.25   239.05
eigval :      251.68   257.47   261.96   269.53   275.24   282.77
eigval :      293.30   297.40   299.06   308.38   313.80   321.39
eigval :      324.11   326.64   327.91   330.69   332.11   333.96
eigval :      336.25   339.24   344.35   351.45   356.55   358.82
eigval :      365.46   366.04   367.20   369.82   370.71   380.08
eigval :      383.56   384.86   386.24   388.39   390.36   393.05
eigval :      425.74   429.76   431.46   435.58   440.67   443.87
eigval :      446.73   448.57   450.15   457.06   459.66   475.25
eigval :      478.69   480.39   485.38   492.94   510.67   518.36
eigval :      530.47   530.51   542.77   543.38   555.48   556.51
eigval :      581.53   596.63   600.54   601.96   603.31   609.11
eigval :      612.21   613.93   619.38   619.98   625.83   626.19
eigval :      640.99   658.12   659.04   668.65   676.38   677.98
eigval :      688.33   689.42   693.01   697.48   702.91   716.90
eigval :      718.93   725.02   728.62   729.91   733.46   785.54
eigval :      785.76   798.51   801.69   805.22   811.49   816.19
eigval :      817.16   817.23   822.19   829.89   831.99   867.71
eigval :      870.95   871.07   875.59   875.77   881.01   883.92
eigval :      885.72   887.56   889.90   892.82   900.21   900.29
eigval :      902.79   905.16   907.43   910.10   912.61   913.64
eigval :      913.82   916.44   919.28   919.86   921.38   924.41
eigval :      931.51   931.80   933.49   935.17   943.20   943.54
eigval :      957.97   959.03   959.91   960.07   960.32   960.89
eigval :      961.42   962.38   963.16   963.42   963.83   964.05
eigval :      964.13   966.33   966.58   967.74  1007.63  1009.68
eigval :     1011.17  1013.37  1014.41  1017.66  1029.99  1030.03
eigval :     1031.58  1034.12  1034.89  1035.97  1036.01  1036.91
eigval :     1037.31  1037.71  1038.97  1095.12  1095.26  1114.22
eigval :     1114.58  1125.66  1125.81  1137.04  1137.37  1139.26
eigval :     1139.43  1142.61  1144.18  1146.38  1176.49  1178.12
eigval :     1183.68  1188.12  1189.11  1193.67  1193.83  1196.43
eigval :     1196.62  1197.10  1198.94  1210.70  1224.48  1224.52
eigval :     1224.71  1225.48  1227.53  1229.17  1230.25  1232.22
eigval :     1233.66  1234.24  1235.53  1237.44  1239.94  1242.17
eigval :     1253.03  1254.99  1257.80  1268.70  1269.04  1271.65
eigval :     1275.28  1278.04  1280.81  1282.14  1282.42  1282.68
eigval :     1287.38  1288.93  1298.41  1303.84  1312.36  1323.68
eigval :     1324.79  1325.32  1326.32  1328.00  1333.41  1370.16
eigval :     1374.13  1399.43  1399.49  1400.40  1400.64  1401.06
eigval :     1401.75  1402.25  1402.73  1403.33  1404.11  1404.57
eigval :     1405.06  1413.42  1415.21  1416.75  1419.12  1427.42
eigval :     1427.43  1428.32  1429.39  1431.76  1432.52  1446.18
eigval :     1446.34  1451.52  1452.37  1472.84  1477.56  1478.54
eigval :     1482.95  1483.48  1484.59  1488.45  1489.16  1489.24
eigval :     1489.52  1492.20  1492.25  1492.34  1492.67  1493.55
eigval :     1496.34  1499.34  1499.71  1501.33  1502.70  1503.02
eigval :     1503.76  1504.61  1511.66  1511.78  1513.37  1514.52
eigval :     1517.63  1517.78  1518.44  1518.69  1559.43  1563.80
eigval :     1565.14  1567.69  1572.60  1574.48  1574.69  1576.62
eigval :     1577.68  1591.43  1593.58  1597.18  1599.68  1603.20
eigval :     1604.88  1608.29  1609.43  1610.48  2999.58  3013.35
eigval :     3019.10  3019.21  3019.22  3019.75  3019.96  3020.05
eigval :     3020.27  3020.51  3022.63  3023.01  3023.34  3023.84
eigval :     3024.07  3024.48  3024.71  3025.03  3026.93  3027.02
eigval :     3027.37  3027.67  3029.22  3030.75  3030.94  3031.49
eigval :     3035.23  3036.15  3036.37  3036.79  3042.96  3043.00
eigval :     3044.01  3044.65  3045.05  3046.36  3047.56  3047.74
eigval :     3048.14  3053.30  3053.72  3054.04  3054.20  3065.96
eigval :     3066.90  3068.20  3068.77  3069.29  3070.41  3072.15
eigval :     3073.28  3074.81  3076.25  3077.89  3078.18  3081.06
eigval :     3083.74  3084.62  3085.67  3086.53  3086.99  3088.10
eigval :     3088.30  3089.81  3089.91  3090.58  3091.18  3111.36
eigval :     3111.47  3113.97  3116.90

   temp. (K)  partition function   enthalpy   heat capacity  entropy
                                   cal/mol     cal/K/mol   cal/K/mol   J/K/mol
 298.15  VIB  0.110E+35            42344.222    255.642    265.969
         ROT  0.285E+09              888.752      2.981     41.672
         INT  0.314E+43            43232.974    258.623    307.641
         TR   0.291E+29             1481.254      4.968     46.458
         TOT                       44714.2283   263.5912   354.0992  1481.5511

       T/K    H(0)-H(T)+PV         H(T)/Eh          T*S/Eh         G(T)/Eh
   ------------------------------------------------------------------------
    298.15    0.712567E-01    0.127105E+01    0.168244E+00    0.110280E+01
   ------------------------------------------------------------------------

         :::::::::::::::::::::::::::::::::::::::::::::::::::::
         ::                  THERMODYNAMIC                  ::
         :::::::::::::::::::::::::::::::::::::::::::::::::::::
         :: total free energy        -196.095630488946 Eh   ::
         ::.................................................::
         :: total energy             -197.198432550680 Eh   ::
         :: zero point energy           1.199789359487 Eh   ::
         :: G(RRHO) w/o ZPVE           -0.096987297753 Eh   ::
         :: G(RRHO) contrib.            1.102802061734 Eh   ::
         :::::::::::::::::::::::::::::::::::::::::::::::::::::

           -------------------------------------------------
          | TOTAL ENERGY             -197.198432550680 Eh   |
          | TOTAL ENTHALPY           -195.927386532790 Eh   |
          | TOTAL FREE ENERGY        -196.095630488946 Eh   |
          | GRADIENT NORM               0.000040125720 Eh/α |
          | HOMO-LUMO GAP               2.612893661280 eV   |
           -------------------------------------------------

 * finished run on 2025/08/23 at 04:56:11.967
