   * xtb version 6.7.1 (edcfbbe) compiled by 'albert@albert-system' on 2024-07-22

   ID    Z sym.   atoms
    1    6 C      1-5, 7-15, 17-48, 50-74
    2    7 N      6, 16, 49
    3    1 H      75-145

          program call               : xtb data2507/toluene/TPA-PyF2/TPA-PyF2_toluene_S0_finalOpt.xtbopt.xyz --gfn 2 --uhf 2 --gbsa toluene --ohess vtight --parallel 40 --molden --ceasefiles --namespace data2507/toluene/TPA-PyF2/TPA-PyF2_toluene_T1_preOpt
      * Solvation model:               GBSA
        Solvent                        toluene
        Solvent mass                       9.2140E+01 g/mol
          :  Hamiltonian                  GFN2-xTB          :
 * total energy  :  -197.0881878 Eh     change        0.1015280E-06 Eh
 * total energy  :  -197.0901965 Eh     change       -0.2008640E-02 Eh
 * total energy  :  -197.0907032 Eh     change       -0.5066954E-03 Eh
 * total energy  :  -197.0908001 Eh     change       -0.9696222E-04 Eh
 * total energy  :  -197.0909037 Eh     change       -0.1035455E-03 Eh
 * total energy  :  -197.0911304 Eh     change       -0.2266950E-03 Eh
 * total energy  :  -197.0874165 Eh     change        0.3713860E-02 Eh
 * total energy  :  -197.0874165 Eh     change       -0.9557084E-09 Eh
 * total energy  :  -197.0908857 Eh     change       -0.3469181E-02 Eh
 * total energy  :  -197.0919441 Eh     change       -0.1058417E-02 Eh
 * total energy  :  -197.0923217 Eh     change       -0.1751984E-06 Eh
 * total energy  :  -197.0923217 Eh     change        0.3161685E-07 Eh
 * total energy  :  -197.0923217 Eh     change        0.1997665E-07 Eh
 * total energy  :  -197.0923217 Eh     change        0.4946884E-08 Eh
 * total energy  :  -197.0923216 Eh     change        0.5765344E-08 Eh
 * total energy  :  -197.0923216 Eh     change        0.5371078E-08 Eh
 * total energy  :  -197.0923216 Eh     change        0.6023811E-08 Eh
 * total energy  :  -197.0923216 Eh     change        0.7078398E-08 Eh
 * total energy  :  -197.0923217 Eh     change       -0.8043102E-07 Eh
   *** GEOMETRY OPTIMIZATION CONVERGED AFTER 62 ITERATIONS ***

 final structure:
================
145
 xtb: 6.7.1 (edcfbbe)
C           -0.04499736382051        8.20089439898582        0.08098043276568
C           -0.04290681453182        6.70418284193991        0.06972071350337
C           -1.01332091367956        5.97149766467702        0.74414364981823
C           -1.00732640542915        4.59118165430894        0.72849646895292
C           -0.02208820863242        3.89788938827819        0.02300913710950
N           -0.01331965718744        2.50418581366145       -0.00388025368431
C            1.19025415696196        1.79737157192732       -0.07326876880173
C            1.27860375715869        0.64568003830883       -0.86159481153206
C            2.45203744809715       -0.07253020828354       -0.91491891383217
C            3.57170121776900        0.32659468312693       -0.18544082492920
C            4.80515092884793       -0.54364540636721       -0.14466330559090
C            5.14537777811099       -1.16265481068126       -1.48096255902722
C            5.03825938427293       -0.43411724522986       -2.66509643980778
C            5.46087710848445       -1.00581782073702       -3.85179793730087
C            5.97633777911961       -2.29317798119884       -3.81819119866686
N            6.08467039888297       -2.99850385873112       -2.70124144221742
C            5.68661926951960       -2.44244639221620       -1.57111347285942
C            4.58091990633320       -1.55512113667500        0.96558782068713
C            3.56835336399555       -2.45229587636666        1.10872353960655
C            3.51957658955924       -3.31308292915146        2.22698060873172
C            2.38824643715899       -4.31485990348236        2.33344035720454
C            1.04744146933597       -3.55999408958125        2.35057515135878
C            2.46615553829100       -5.17377891602253        3.59932019773624
C            2.42769142143981       -5.25517661545520        1.11603517253371
C            4.54150758648189       -3.19495274717140        3.19826455539036
C            5.56112423513642       -2.29219402362788        3.08899886757958
C            5.61724375994928       -1.43011510473949        1.96060800414171
C            6.50459861800175       -0.42767518435389        1.57951905052873
C            7.69331045101215        0.08307136266416        2.16690002117866
C            8.35040331765751        1.11114595787456        1.55900577509132
C            7.90538021583736        1.70199743196399        0.34675290766932
C            8.69729049231342        2.84441473271806       -0.25406441478433
C            8.08499427119014        3.36997108534723       -1.55647336586283
C            8.75137549144230        4.00897918422299        0.75029338444081
C           10.12724461529869        2.36588074001741       -0.55937425710367
C            6.73828989692715        1.18648137960455       -0.24745704746698
C            6.05534782717326        0.16467236165500        0.34292519455788
C            3.47905041519120        1.47513819571135        0.59760894938067
C            2.31266364377847        2.20819639014076        0.64914903929927
C           -1.20895537923608        1.78043862829180        0.04479563146588
C           -1.27967245400289        0.60075596684725        0.78911985789056
C           -2.44514918342428       -0.13388030773382        0.82046617356214
C           -3.57357501292800        0.28119389023358        0.11659251128968
C           -4.80685026154860       -0.59215593470441        0.08316470136334
C           -5.11862201665501       -1.20945544636388        1.42842819752048
C           -4.96195470520065       -0.48193743180285        2.60709278166036
C           -5.33096935506222       -1.05846677994431        3.81153794344469
C           -5.84706967250072       -2.34383853500297        3.79686225487755
N           -6.00609111289482       -3.04651297614600        2.68442041368137
C           -5.65470722809040       -2.48770945376880        1.53770522204690
C           -4.61889310044004       -1.61975391546074       -1.02094777424904
C           -3.61186092927004       -2.54387932829788       -1.16254961099915
C           -3.59568744751502       -3.40262245398496       -2.26544892125080
C           -2.46473727047209       -4.41294383211584       -2.39050806869761
C           -2.57850260875502       -5.28076113452048       -3.64740767288853
C           -2.48308188462933       -5.34081487610402       -1.16609951236757
C           -1.12710390375624       -3.65926612817229       -2.44998380238796
C           -4.61850438994210       -3.28966971286689       -3.20325856996453
C           -5.63466083108886       -2.35587220888342       -3.07368560774176
C           -5.63750475028866       -1.50879113192942       -1.97884346157245
C           -6.53632786796945       -0.44329382344697       -1.57993389477809
C           -7.68924991211194        0.05966758302660       -2.15756837177578
C           -8.34879244284303        1.11311613702929       -1.54409484926363
C           -7.88875794819953        1.68303710968407       -0.35983905237308
C           -8.59217680151301        2.84359122109177        0.32823311889595
C           -9.85797861233537        3.29271884903746       -0.40797487673367
C           -8.99363646468963        2.41591249139400        1.74827097599695
C           -7.62993356087184        4.03947415818243        0.39771132844829
C           -6.72629090514762        1.16307718180147        0.21628123903210
C           -6.06145413880745        0.12254991644230       -0.38727881019944
C           -3.50033166844999        1.45876530281416       -0.62029129602905
C           -2.33935080963679        2.20455573469581       -0.65437248738650
C            0.95555450987018        4.62853134499847       -0.65808523446828
C            0.94084813650696        6.00649466426692       -0.62786810900195
H           -0.85457042159264        8.58625597097584        0.69521232534852
H            0.89987791989745        8.57921996324214        0.46950785302422
H           -0.16270066727295        8.58589426375010       -0.93175487063915
H           -1.78283535571850        6.48848995354943        1.29900998306754
H           -1.75932434945930        4.03994333490415        1.27323014406750
H            0.42130298376228        0.33122055620851       -1.43876850446927
H            2.50805531680873       -0.95131578807720       -1.54113985189070
H            4.61993355423958        0.56270379522755       -2.65334950719559
H            5.38998071570002       -0.46714650215139       -4.78478926461639
H            6.31781418314623       -2.78900460840386       -4.71768975979278
H            5.80166586501999       -3.05475373305616       -0.68501351813021
H            2.80219180486759       -2.51583712069044        0.35039165090486
H            0.22378627757143       -4.26454772449075        2.44791590954519
H            1.01532529367116       -2.87053447947272        3.19232580655759
H            0.90573849252817       -2.99018089636343        1.43659300410230
H            2.40959062863004       -4.55835496311262        4.49460661512203
H            1.62945383469735       -5.86972230114224        3.61675308910714
H            3.38574625974436       -5.75424855505662        3.62279521806539
H            3.37367485684456       -5.79261573772853        1.08687994913909
H            2.32263055488502       -4.70422057319715        0.18530733910762
H            1.61871860254086       -5.98044077040638        1.17786362484392
H            4.52086052613335       -3.83612507022581        4.06515010577168
H            6.31843452087531       -2.21789990372166        3.85563848733668
H            8.06430836255319       -0.34808450904876        3.08527797817886
H            9.25103648142114        1.48977577114253        2.01997432273124
H            7.07879069689898        3.74881384444466       -1.39059321838212
H            8.05313549460502        2.59128772780295       -2.31575275858705
H            8.69373920395732        4.18719432693913       -1.93871973357513
H            9.23080150424254        3.71036107082800        1.67844947310887
H            9.31324845168403        4.83965666741803        0.32799137210043
H            7.74490074465265        4.35261512747331        0.98142998753397
H           10.63704048839798        2.03706750459702        0.34204299657723
H           10.70535659109079        3.17427412348741       -1.00274863138839
H           10.10243717750577        1.53285016053078       -1.25963543653132
H            6.37150112565194        1.59844170574835       -1.17380801987774
H            4.33417892598143        1.78848886506447        1.17850517212271
H            2.25330794022240        3.09154936057544        1.26787509684262
H           -0.41526967717487        0.27314789186017        1.34770548895467
H           -2.48364721599296       -1.03683651552708        1.41232896236369
H           -4.54794886336384        0.51613393346159        2.58144767569899
H           -5.22029227621567       -0.52079066530115        4.74108361043696
H           -6.14926979495418       -2.84171405898722        4.70928654542923
H           -5.80909678775071       -3.10104295440350        0.65881704262909
H           -2.83632570683913       -2.60333588254132       -0.41452745675729
H           -2.54187187144169       -4.67257889801942       -4.54858474026324
H           -3.50019249335673       -5.85827228147728       -3.64281097069439
H           -1.74500407716318       -5.97984537502217       -3.68053461461327
H           -2.34606611262893       -4.78428294020377       -0.24291607026991
H           -1.68470030008946       -6.07626604767970       -1.24226821853426
H           -3.43372187257079       -5.86759638292531       -1.10663261917441
H           -1.11450823293834       -2.98098404327848       -3.30137031590542
H           -0.96131648494652       -3.07675127239997       -1.54801432246149
H           -0.30510414303849       -4.36416930222733       -2.55782563159790
H           -4.63684925487089       -3.93741188201796       -4.06464372876710
H           -6.41106977290728       -2.29234770835501       -3.82224644506003
H           -8.07488609292540       -0.36052579859736       -3.07509303217267
H           -9.24398471170481        1.48798685763492       -2.01299293145486
H          -10.31731106528891        4.11791665408188        0.13295347136591
H           -9.62602696789064        3.63846199149076       -1.41290670732186
H          -10.58427045317231        2.48505134063758       -0.46634657529156
H           -9.65025045563690        1.54860043779088        1.70872990390496
H           -9.52110782311809        3.22581684836451        2.24818709113615
H           -8.12522714844881        2.15514405650915        2.34729291249305
H           -7.32791503572283        4.33796738049245       -0.60450727242920
H           -8.11882516191755        4.88508718708772        0.87712647332442
H           -6.73549870575958        3.79658843494462        0.96504255913814
H           -6.34013832126872        1.57704182480455        1.13535981775833
H           -4.36034286750422        1.79078138144753       -1.18230381737047
H           -2.29500438315019        3.11068802658800       -1.24020355614916
H            1.71548437541075        4.10512700447438       -1.21913592532756
H            1.70095224875476        6.55627539069426       -1.16397324373166

          :  Hamiltonian                  GFN2-xTB          :
         :: gradient norm              0.000043987779 Eh/a0 ::
         :: HOMO-LUMO gap              0.127269441135 eV    ::
         :: SCC energy              -200.574635768629 Eh    ::
         :: -> dispersion             -0.199178986183 Eh    ::
         :: -> Gsolv                  -0.079022454147 Eh    ::
         :: repulsion energy           3.482313995886 Eh    ::

    * Orbital Energies and Occupations

         #    Occupation            Energy/Eh            Energy/eV
      -------------------------------------------------------------
         1        2.0000           -0.6781909             -18.4545
       ...           ...                  ...                  ...
       174        2.0000           -0.4027659             -10.9598
       175        2.0000           -0.3997065             -10.8766
       176        2.0000           -0.3970107             -10.8032
       177        2.0000           -0.3951441             -10.7524
       178        2.0000           -0.3946018             -10.7377
       179        2.0000           -0.3938656             -10.7176
       180        2.0000           -0.3915215             -10.6538
       181        2.0000           -0.3702167             -10.0741
       182        2.0000           -0.3663841              -9.9698
       183        1.9999           -0.3645852              -9.9209
       184        1.8771           -0.3579984              -9.7416
       185        1.1230           -0.3542652              -9.6400
       186        0.9109           -0.2537202              -6.9041 (HOMO)
       187        0.0694           -0.2490445              -6.7768 (LUMO)
       188        0.0181           -0.2477161              -6.7407
       189        0.0016           -0.2454174              -6.6781
       190        0.0000           -0.2409090              -6.5555
       191        0.0000           -0.2379583              -6.4752
       192                         -0.2360001              -6.4219
       193                         -0.2338213              -6.3626
       194                         -0.2318860              -6.3099
       195                         -0.2295476              -6.2463
       196                         -0.2285496              -6.2192
       197                         -0.2191360              -5.9630
       ...                                ...                  ...
       367                          0.7409946              20.1635
      -------------------------------------------------------------
                  HL-Gap            0.0046757 Eh            0.1272 eV

     #   Z          covCN         q      C6AA      α(0)
     1   6 C        3.758    -0.113    22.705     6.794
     2   6 C        2.965     0.019    27.587     8.615
     3   6 C        2.923    -0.037    28.927     8.820
     4   6 C        2.920    -0.046    29.133     8.851
     5   6 C        2.922     0.060    26.655     8.467
     6   7 N        2.752    -0.044    22.098     6.982
     7   6 C        2.927     0.060    26.661     8.468
     8   6 C        2.920    -0.044    29.094     8.845
     9   6 C        2.922    -0.032    28.793     8.799
    10   6 C        2.981     0.013    27.727     8.637
    11   6 C        3.939     0.010    20.347     6.410
    12   6 C        2.976     0.003    27.953     8.673
    13   6 C        2.932    -0.020    28.498     8.755
    14   6 C        2.912    -0.043    29.062     8.840
    15   6 C        2.912     0.053    26.811     8.491
    16   7 N        1.835    -0.252    27.409     7.758
    17   6 C        2.915     0.057    26.720     8.476
    18   6 C        3.051    -0.008    28.168     8.704
    19   6 C        2.911    -0.044    29.089     8.844
    20   6 C        2.971    -0.007    28.189     8.709
    21   6 C        3.902     0.027    20.067     6.368
    22   6 C        3.761    -0.100    22.465     6.757
    23   6 C        3.761    -0.105    22.561     6.771
    24   6 C        3.761    -0.102    22.493     6.761
    25   6 C        2.914    -0.042    29.039     8.837
    26   6 C        2.905    -0.046    29.149     8.853
    27   6 C        3.024    -0.012    28.284     8.724
    28   6 C        3.025    -0.013    28.319     8.729
    29   6 C        2.904    -0.045    29.115     8.847
    30   6 C        2.917    -0.039    28.957     8.824
    31   6 C        2.972    -0.008    28.205     8.711
    32   6 C        3.902     0.027    20.068     6.368
    33   6 C        3.761    -0.104    22.542     6.768
    34   6 C        3.761    -0.103    22.520     6.765
    35   6 C        3.761    -0.103    22.509     6.763
    36   6 C        2.909    -0.047    29.172     8.856
    37   6 C        3.050    -0.008    28.174     8.705
    38   6 C        2.922    -0.033    28.828     8.805
    39   6 C        2.919    -0.043    29.077     8.843
    40   6 C        2.927     0.061    26.625     8.462
    41   6 C        2.921    -0.044    29.084     8.844
    42   6 C        2.923    -0.031    28.784     8.798
    43   6 C        2.978     0.015    27.668     8.628
    44   6 C        3.946     0.009    20.355     6.411
    45   6 C        2.975     0.007    27.864     8.659
    46   6 C        2.932    -0.021    28.521     8.758
    47   6 C        2.912    -0.042    29.053     8.838
    48   6 C        2.911     0.055    26.759     8.482
    49   7 N        1.835    -0.252    27.422     7.760
    50   6 C        2.914     0.056    26.740     8.479
    51   6 C        3.055    -0.004    28.080     8.690
    52   6 C        2.921    -0.042    29.054     8.839
    53   6 C        2.974     0.004    27.926     8.668
    54   6 C        3.902     0.025    20.092     6.371
    55   6 C        3.761    -0.107    22.585     6.775
    56   6 C        3.761    -0.103    22.514     6.764
    57   6 C        3.761    -0.102    22.488     6.760
    58   6 C        2.925    -0.044    29.099     8.846
    59   6 C        2.914    -0.040    28.984     8.828
    60   6 C        3.033    -0.007    28.156     8.704
    61   6 C        3.034    -0.007    28.156     8.704
    62   6 C        2.914    -0.039    28.979     8.827
    63   6 C        2.925    -0.044    29.105     8.847
    64   6 C        2.974     0.004    27.941     8.671
    65   6 C        3.902     0.025    20.093     6.372
    66   6 C        3.761    -0.107    22.587     6.775
    67   6 C        3.761    -0.103    22.517     6.764
    68   6 C        3.761    -0.104    22.531     6.767
    69   6 C        2.921    -0.042    29.044     8.838
    70   6 C        3.055    -0.004    28.060     8.687
    71   6 C        2.922    -0.033    28.827     8.805
    72   6 C        2.920    -0.043    29.078     8.843
    73   6 C        2.920    -0.045    29.126     8.850
    74   6 C        2.924    -0.038    28.935     8.821
    75   1 H        0.925     0.048     2.349     2.397
    76   1 H        0.925     0.054     2.275     2.359
    77   1 H        0.925     0.054     2.265     2.354
    78   1 H        0.926     0.041     2.431     2.438
    79   1 H        0.926     0.038     2.476     2.461
    80   1 H        0.926     0.039     2.465     2.455
    81   1 H        0.926     0.035     2.521     2.483
    82   1 H        0.926     0.035     2.510     2.478
    83   1 H        0.926     0.036     2.497     2.471
    84   1 H        0.925     0.030     2.583     2.513
    85   1 H        0.925     0.029     2.598     2.520
    86   1 H        0.926     0.022     2.703     2.571
    87   1 H        0.925     0.038     2.473     2.459
    88   1 H        0.925     0.030     2.581     2.512
    89   1 H        0.925     0.035     2.518     2.482
    90   1 H        0.925     0.035     2.521     2.483
    91   1 H        0.925     0.037     2.491     2.468
    92   1 H        0.925     0.035     2.518     2.481
    93   1 H        0.925     0.031     2.569     2.506
    94   1 H        0.925     0.036     2.509     2.477
    95   1 H        0.925     0.039     2.457     2.451
    96   1 H        0.926     0.032     2.560     2.502
    97   1 H        0.926     0.020     2.732     2.585
    98   1 H        0.926     0.020     2.738     2.588
    99   1 H        0.926     0.024     2.671     2.556
   100   1 H        0.925     0.036     2.508     2.477
   101   1 H        0.925     0.033     2.546     2.495
   102   1 H        0.925     0.037     2.492     2.468
   103   1 H        0.925     0.036     2.500     2.473
   104   1 H        0.925     0.039     2.464     2.455
   105   1 H        0.925     0.033     2.543     2.494
   106   1 H        0.925     0.036     2.505     2.475
   107   1 H        0.925     0.039     2.467     2.456
   108   1 H        0.925     0.030     2.580     2.512
   109   1 H        0.926     0.028     2.611     2.527
   110   1 H        0.926     0.039     2.459     2.452
   111   1 H        0.926     0.041     2.438     2.442
   112   1 H        0.926     0.039     2.457     2.451
   113   1 H        0.926     0.036     2.500     2.473
   114   1 H        0.926     0.036     2.508     2.477
   115   1 H        0.926     0.037     2.485     2.465
   116   1 H        0.925     0.032     2.564     2.504
   117   1 H        0.925     0.031     2.576     2.510
   118   1 H        0.926     0.028     2.617     2.530
   119   1 H        0.925     0.036     2.509     2.477
   120   1 H        0.925     0.036     2.504     2.475
   121   1 H        0.925     0.038     2.480     2.463
   122   1 H        0.925     0.036     2.507     2.476
   123   1 H        0.925     0.039     2.459     2.452
   124   1 H        0.925     0.032     2.560     2.502
   125   1 H        0.925     0.031     2.575     2.509
   126   1 H        0.925     0.035     2.517     2.481
   127   1 H        0.925     0.038     2.472     2.459
   128   1 H        0.926     0.037     2.485     2.465
   129   1 H        0.926     0.028     2.621     2.532
   130   1 H        0.926     0.027     2.626     2.534
   131   1 H        0.926     0.037     2.488     2.467
   132   1 H        0.925     0.038     2.480     2.463
   133   1 H        0.925     0.036     2.497     2.471
   134   1 H        0.925     0.035     2.515     2.480
   135   1 H        0.925     0.031     2.578     2.511
   136   1 H        0.925     0.039     2.462     2.454
   137   1 H        0.925     0.034     2.526     2.485
   138   1 H        0.925     0.033     2.538     2.491
   139   1 H        0.925     0.039     2.462     2.454
   140   1 H        0.925     0.036     2.498     2.472
   141   1 H        0.926     0.027     2.627     2.535
   142   1 H        0.926     0.042     2.419     2.432
   143   1 H        0.926     0.043     2.412     2.429
   144   1 H        0.926     0.038     2.478     2.462
   145   1 H        0.926     0.042     2.420     2.433

molecular dipole:
                 x           y           z       tot (Debye)
 q only:       -1.162       3.276      -0.269
   full:       -1.108       3.817      -0.249      10.123

 projected vibrational frequencies (cm⁻¹)
eigval :       -0.00    -0.00    -0.00    -0.00     0.00     0.00
eigval :        3.29     7.46    12.14    15.70    21.31    22.36
eigval :       23.52    25.58    30.17    31.04    34.95    38.20
eigval :       38.65    39.35    42.83    45.11    50.64    51.36
eigval :       55.18    58.02    59.76    61.37    71.57    78.79
eigval :       80.38    84.53    86.17    93.21   111.29   121.57
eigval :      130.32   134.46   142.08   145.57   149.78   153.13
eigval :      158.71   172.34   175.66   180.02   182.02   183.56
eigval :      187.40   189.53   197.17   202.00   208.01   213.89
eigval :      217.69   223.87   225.32   227.97   231.77   237.61
eigval :      246.60   253.86   260.22   261.44   270.38   281.47
eigval :      291.33   295.43   297.30   306.91   308.24   313.86
eigval :      320.24   321.51   324.73   325.33   329.55   330.56
eigval :      332.79   336.30   341.17   343.68   348.74   354.35
eigval :      356.91   364.34   364.51   365.12   367.20   371.09
eigval :      378.89   381.36   383.36   385.13   388.94   391.05
eigval :      393.71   414.79   427.05   429.69   435.27   440.74
eigval :      443.08   444.90   448.94   450.07   456.09   465.98
eigval :      477.30   478.37   480.17   493.78   501.99   516.87
eigval :      519.57   529.44   531.17   537.46   543.22   553.50
eigval :      574.64   582.42   593.92   594.90   598.18   600.61
eigval :      604.29   607.62   611.24   612.94   618.25   623.14
eigval :      628.47   646.66   657.27   659.34   667.92   675.57
eigval :      676.41   681.96   684.53   687.92   692.20   696.50
eigval :      703.73   713.81   718.71   725.63   730.51   766.28
eigval :      776.43   780.04   781.73   788.58   801.06   802.28
eigval :      809.01   816.77   818.49   822.33   828.75   859.36
eigval :      861.95   863.72   864.82   870.64   871.03   871.43
eigval :      874.09   883.39   886.54   888.87   894.36   895.48
eigval :      898.19   898.98   899.50   903.67   907.13   908.16
eigval :      910.19   912.06   914.70   919.64   920.83   924.86
eigval :      925.23   926.41   929.79   933.44   933.69   939.28
eigval :      940.82   944.96   955.32   955.56   958.00   959.49
eigval :      959.96   959.98   960.90   961.30   962.42   962.87
eigval :      963.16   963.48   964.28   965.75   979.59  1003.05
eigval :     1006.25  1007.63  1011.15  1013.33  1024.38  1026.86
eigval :     1028.38  1029.06  1032.26  1033.63  1034.47  1034.60
eigval :     1035.46  1036.79  1038.66  1084.71  1089.65  1092.44
eigval :     1097.87  1111.31  1122.22  1125.30  1132.82  1134.37
eigval :     1135.72  1138.89  1140.80  1142.19  1143.60  1145.61
eigval :     1176.80  1177.41  1178.83  1185.12  1186.71  1188.61
eigval :     1191.17  1191.78  1193.50  1200.62  1205.16  1211.56
eigval :     1211.71  1216.17  1219.82  1224.20  1224.33  1226.04
eigval :     1226.76  1231.62  1233.47  1235.22  1235.98  1238.02
eigval :     1244.99  1250.89  1255.69  1266.07  1266.37  1268.75
eigval :     1270.50  1272.55  1274.13  1277.01  1283.09  1285.33
eigval :     1286.72  1287.81  1291.22  1301.61  1306.67  1313.58
eigval :     1316.20  1318.98  1319.31  1326.48  1327.51  1329.54
eigval :     1362.43  1363.55  1376.18  1388.21  1391.28  1397.14
eigval :     1400.00  1400.21  1400.68  1400.86  1401.27  1401.68
eigval :     1402.73  1403.96  1404.75  1407.23  1410.52  1415.57
eigval :     1418.64  1423.59  1425.50  1426.76  1426.88  1428.72
eigval :     1431.49  1440.11  1440.43  1449.00  1457.56  1467.52
eigval :     1471.10  1473.41  1475.67  1476.62  1482.14  1483.93
eigval :     1487.79  1487.93  1489.12  1489.28  1489.47  1491.05
eigval :     1492.22  1492.51  1492.68  1495.82  1497.67  1499.42
eigval :     1501.20  1501.45  1501.78  1502.19  1504.66  1505.60
eigval :     1510.01  1511.66  1511.77  1512.16  1512.76  1516.89
eigval :     1517.59  1517.83  1518.98  1529.79  1541.67  1545.04
eigval :     1546.98  1558.19  1560.79  1565.10  1565.97  1579.38
eigval :     1585.42  1590.46  1600.93  1606.23  3002.46  3016.69
eigval :     3017.30  3017.67  3017.83  3018.33  3018.53  3018.99
eigval :     3019.29  3019.46  3021.16  3021.59  3022.69  3022.96
eigval :     3023.01  3023.38  3023.72  3024.06  3025.50  3025.73
eigval :     3026.43  3026.76  3028.12  3029.47  3030.27  3030.72
eigval :     3033.51  3034.38  3035.17  3035.25  3042.52  3043.14
eigval :     3044.21  3044.91  3045.52  3045.79  3046.87  3047.21
eigval :     3047.63  3048.41  3051.87  3052.03  3052.16  3063.95
eigval :     3065.62  3066.87  3070.89  3072.46  3073.99  3075.01
eigval :     3075.11  3076.71  3077.15  3077.28  3078.41  3079.45
eigval :     3083.30  3083.58  3085.30  3085.54  3086.69  3088.49
eigval :     3089.01  3090.17  3090.50  3091.52  3095.98  3103.22
eigval :     3104.57  3110.84  3112.23

   temp. (K)  partition function   enthalpy   heat capacity  entropy
                                   cal/mol     cal/K/mol   cal/K/mol   J/K/mol
 298.15  VIB  0.504E+35            42781.206    258.006    269.369
         ROT  0.285E+09              888.752      2.981     41.668
         INT  0.143E+44            43669.958    260.987    311.037
         TR   0.291E+29             1481.254      4.968     46.458
         TOT                       45151.2121   265.9553   357.4953  1495.7604

       T/K    H(0)-H(T)+PV         H(T)/Eh          T*S/Eh         G(T)/Eh
   ------------------------------------------------------------------------
    298.15    0.719530E-01    0.126562E+01    0.169858E+00    0.109576E+01
   ------------------------------------------------------------------------

         :::::::::::::::::::::::::::::::::::::::::::::::::::::
         ::                  THERMODYNAMIC                  ::
         :::::::::::::::::::::::::::::::::::::::::::::::::::::
         :: total free energy        -195.996559508635 Eh   ::
         ::.................................................::
         :: total energy             -197.092321780818 Eh   ::
         :: zero point energy           1.193666800812 Eh   ::
         :: G(RRHO) w/o ZPVE           -0.097904528629 Eh   ::
         :: G(RRHO) contrib.            1.095762272183 Eh   ::
         :::::::::::::::::::::::::::::::::::::::::::::::::::::

           -------------------------------------------------
          | TOTAL ENERGY             -197.092321780818 Eh   |
          | TOTAL ENTHALPY           -195.826701943465 Eh   |
          | TOTAL FREE ENERGY        -195.996559508635 Eh   |
          | GRADIENT NORM               0.000055747489 Eh/α |
          | HOMO-LUMO GAP               0.127233554581 eV   |
           -------------------------------------------------

 * finished run on 2025/08/23 at 04:56:43.485
