   * xtb version 6.7.1 (edcfbbe) compiled by 'albert@albert-system' on 2024-07-22

   ID    Z sym.   atoms
    1    6 C      1-5, 7-15, 17-48, 50-74
    2    7 N      6, 16, 49
    3    1 H      75-145

          program call               : xtb data2507/toluene/TPA-PyF2/TPA-PyF2_toluene_T1_crest.xyz --gfn 2 --uhf 2 --gbsa toluene --ohess vtight --parallel 40 --molden --ceasefiles --namespace data2507/toluene/TPA-PyF2/TPA-PyF2_toluene_T1_finalOpt
      * Solvation model:               GBSA
        Solvent                        toluene
        Solvent mass                       9.2140E+01 g/mol
          :  Hamiltonian                  GFN2-xTB          :
 * total energy  :  -197.0888150 Eh     change       -0.9255757E-08 Eh
 * total energy  :  -197.0890052 Eh     change       -0.1901790E-03 Eh
 * total energy  :  -197.0891430 Eh     change       -0.1377946E-03 Eh
 * total energy  :  -197.0892125 Eh     change       -0.6953501E-04 Eh
 * total energy  :  -197.0893135 Eh     change       -0.1010247E-03 Eh
 * total energy  :  -197.0894085 Eh     change       -0.9499054E-04 Eh
 * total energy  :  -197.0894787 Eh     change       -0.7019943E-04 Eh
 * total energy  :  -197.0895314 Eh     change       -0.5272674E-04 Eh
 * total energy  :  -197.0895955 Eh     change       -0.6410273E-04 Eh
 * total energy  :  -197.0896528 Eh     change       -0.5720870E-04 Eh
 * total energy  :  -197.0922219 Eh     change       -0.1385956E-05 Eh
 * total energy  :  -197.0922231 Eh     change       -0.1239524E-05 Eh
 * total energy  :  -197.0922243 Eh     change       -0.1210024E-05 Eh
 * total energy  :  -197.0922256 Eh     change       -0.1329347E-05 Eh
 * total energy  :  -197.0922272 Eh     change       -0.1583678E-05 Eh
 * total energy  :  -197.0922292 Eh     change       -0.1965060E-05 Eh
 * total energy  :  -197.0922314 Eh     change       -0.2207313E-05 Eh
 * total energy  :  -197.0922314 Eh     change        0.1447177E-08 Eh
 * total energy  :  -197.0922314 Eh     change       -0.3877858E-09 Eh
   *** GEOMETRY OPTIMIZATION CONVERGED AFTER 123 ITERATIONS ***

 final structure:
================
145
 xtb: 6.7.1 (edcfbbe)
C            0.04579518265339        8.26141529472656        0.14110503652745
C            0.04742093605395        6.76516475429474        0.10476406051142
C           -0.95548015454413        6.04232901161781        0.74692245147932
C           -0.97355947897482        4.66423101596217        0.71932599593894
C            0.02027802682163        3.95964072964509        0.03439428790865
N            0.01027524029502        2.56668825060306        0.00240890523131
C            1.20335815989327        1.84024140122412       -0.04045028677453
C            1.28588321077006        0.68390752546875       -0.82351616563353
C            2.43908471944908       -0.06733782690187       -0.83693495458247
C            3.54659851602129        0.30474238297558       -0.07482999822778
C            4.74653197671626       -0.60710726449917        0.02748893152027
C            5.10354370375074       -1.28539182838025       -1.27400027940524
C            5.06342761068692       -0.59670799466311       -2.48568491775437
C            5.49888376236128       -1.22783688594000       -3.63734489220761
C            5.95942039823063       -2.53261161414955       -3.54176395109838
N            6.00406671639491       -3.20054993195700       -2.39780403881317
C            5.59452786932134       -2.58802801145364       -1.30140736622371
C            4.44024385255943       -1.56483093041244        1.16536180882474
C            3.39980711124723       -2.43307242072363        1.29137485806085
C            3.27076335014633       -3.24191994664157        2.44061907515021
C            2.11546700984072       -4.21835764643449        2.52652869690890
C            2.19800222926256       -5.20634685227535        1.34977996167764
C            0.79125504597586       -3.43912651725796        2.44459846113697
C            2.11165850430239       -5.02880806153375        3.82630864261877
C            4.23825265413684       -3.09824217908617        3.46304822751685
C            5.28311238633321       -2.22272683649459        3.37115018942175
C            5.42403696669577       -1.41811460590318        2.20900102373268
C            6.36278719618144       -0.46273312988193        1.82752268966554
C            7.53469159720359        0.04088084236452        2.45233441558036
C            8.26670237060577        1.00343239115646        1.82233159292816
C            7.91788813319927        1.52891655734761        0.55054488809027
C            8.79420224798516        2.59309545443967       -0.07653549504115
C            8.81876905245456        3.83140053247110        0.83656024075575
C           10.22327927306384        2.04652267774038       -0.23656625248207
C            8.29854657278060        3.03078574605135       -1.45863063263754
C            6.76078366213932        1.02751531658550       -0.07429901568055
C            6.00241219019639        0.07435153098329        0.53847343355569
C            3.46381952967269        1.46437031344555        0.69411721794524
C            2.31667847969177        2.22828971163029        0.70856744485537
C           -1.19397661016393        1.85560719235020        0.02431475494167
C           -1.28950579071103        0.67499326264215        0.76475086855818
C           -2.45362093873364       -0.06165389375972        0.75412055877320
C           -3.55770746625781        0.35391469428259        0.01283076036361
C           -4.77742616167037       -0.53310133923695       -0.08618811613459
C           -5.12710241759515       -1.19610565374775        1.22723555501631
C           -5.03274204377953       -0.50053582767611        2.43161319626306
C           -5.43395258830996       -1.12064076267994        3.60367991396442
C           -5.91922079022465       -2.41607858487330        3.53189829677038
N           -6.01946283687868       -3.08869178885610        2.39425551567466
C           -5.63739425553124       -2.48846497756486        1.27870989261347
C           -4.53045489490072       -1.52225063628719       -1.21379243524765
C           -3.50227236542325       -2.42436112144107       -1.34512872388684
C           -3.42679971553623       -3.24487576049421       -2.47430212102637
C           -2.27419051651911       -4.23199418401880       -2.58729219428678
C           -2.31824171841408       -5.05199416993193       -3.88013886838152
C           -2.33066877258128       -5.20650402873759       -1.40088024758566
C           -0.94768941921216       -3.45706420751560       -2.55771892020309
C           -4.41383199300387       -3.11706612113779       -3.44805443502343
C           -5.45107198758103       -2.20546175011613       -3.32836116013909
C           -5.51236563269100       -1.39529735378140       -2.20738961512969
C           -6.44452931091402       -0.35856591341513       -1.80949900286206
C           -7.58474780531049        0.14296437308488       -2.41330050151245
C           -8.28631289573298        1.16367815048973       -1.79115158133573
C           -7.88116187708782        1.70236918361017       -0.57268361003436
C           -8.63340023266186        2.82395941468976        0.12819729799228
C           -9.09326270188651        2.33018138894847        1.50860360778887
C           -7.69513851982122        4.02954708489273        0.29303970731579
C           -9.87021008148210        3.28634185837756       -0.64795920065137
C           -6.73094894189199        1.18447699702329        0.02931099962971
C           -6.02504313757557        0.17623555914235       -0.58198124469189
C           -3.46480900059334        1.53952733209709       -0.70915019731280
C           -2.30415498672513        2.28678656435365       -0.70242028500870
C            1.02524491980377        4.67855386936689       -0.61609262023561
C            1.03391863304309        6.05808619701332       -0.57430140316124
H           -0.76333040633505        8.65053861033262       -0.47774562200833
H           -0.11383948150837        8.61951673581165        1.15681098327371
H            0.98518193245761        8.66221115592638       -0.23072680157865
H           -1.72812292990996        6.57151569196746        1.28576084240452
H           -1.74808293958471        4.12067983350904        1.23968603455345
H            0.43819000579874        0.39078742089462       -1.42541974873662
H            2.48827599999847       -0.95271392534760       -1.45428746741012
H            4.68643363621361        0.41582738198861       -2.52267013650363
H            5.47950398677332       -0.72075952969871       -4.59032007470594
H            6.30785372104621       -3.07444858011881       -4.41161531463720
H            5.65729997281598       -3.17138952100703       -0.39084727664821
H            2.67526624484347       -2.51348809782311        0.49453090511793
H            1.37399573952248       -5.91550732076055        1.39893554542631
H            2.14862171768344       -4.69108446883961        0.39433473952345
H            3.13435772142875       -5.75976962379626        1.38866129265366
H            0.71101815381662       -2.90168088083061        1.50398487780758
H           -0.05089210188166       -4.12398570879017        2.52258651117626
H            0.72835336231566       -2.71835144348978        3.25794110028624
H            2.01838624408619       -4.37912416651855        4.69386162122407
H            3.01893717898261       -5.62147272435103        3.92029312124995
H            1.26356527270062       -5.71110093610750        3.82517431365462
H            4.15391883445248       -3.69727638955156        4.35579108163467
H            5.99754053462154       -2.12835647440266        4.17583636786704
H            7.83501155482889       -0.34416486291970        3.41594498228387
H            9.15313671495444        1.37853129337382        2.31270348994584
H            9.21454552662533        3.59043953067053        1.81939614914200
H            7.81198634614229        4.22551376121431        0.96154015624961
H            9.44298174748248        4.60709346678454        0.39747834352537
H           10.21589449422969        1.15485635043903       -0.86096758698414
H           10.85872931519455        2.79417899585452       -0.70714082913290
H           10.65957996412891        1.78513473603054        0.72349292633776
H            8.28369530560214        2.19189896211809       -2.15148450166708
H            8.96921747842680        3.78761032992274       -1.86114341090009
H            7.30195039938678        3.46272494654843       -1.39887565081129
H            6.46187283447494        1.39539777355100       -1.04262770229436
H            4.31052829054449        1.75938883607889        1.29653444483545
H            2.26356911031921        3.11651471578532        1.32079985925016
H           -0.44314372762048        0.34636704323027        1.34956984586591
H           -2.50991745040531       -0.96847185645643        1.33843749531888
H           -4.64113969551960        0.50663882536138        2.45081506826561
H           -5.37123827332438       -0.60844795177998        4.55188983647939
H           -6.24383593147185       -2.94772603596949        4.41719849932254
H           -5.74373570717508       -3.07850180368181        0.37704095568744
H           -2.75669317388984       -2.49615334075800       -0.56819716949654
H           -2.25615692006083       -4.40864590927619       -4.75513606258676
H           -3.22793090690483       -5.64558268218135       -3.93661450188318
H           -1.47065535997540       -5.73431947855899       -3.90449589704750
H           -2.24650304442127       -4.68328997177909       -0.45220856559839
H           -1.51576035956304       -5.92457849227265       -1.46751104560881
H           -3.27279246633945       -5.75154029466137       -1.40525945489778
H           -0.90932483338438       -2.74367206972004       -3.37911008160170
H           -0.83049627445432       -2.91121066031992       -1.62577926387828
H           -0.11024539289810       -4.14477206431729       -2.65819707058181
H           -4.38669545899865       -3.73569110537966       -4.33034177469797
H           -6.19801617383814       -2.12950379683080       -4.10523131556330
H           -7.92894194958931       -0.25395610781059       -3.35734387787205
H           -9.17092997645012        1.53752460377729       -2.28047307861126
H           -9.65222382377567        3.11184660539717        2.01914225716719
H           -9.73712394068756        1.45900654865117        1.40153923335508
H           -8.24919871202029        2.05134767782722        2.13382600507049
H           -6.82693702087756        3.77748393303210        0.89589106477529
H           -8.22118744014442        4.84850970303483        0.77932051540651
H           -7.34766604206821        4.37162821029238       -0.68013155869618
H          -10.58335542328216        2.47392420192130       -0.76858086294537
H          -10.36340751294924        4.08643523015208       -0.09917890938923
H           -9.59706778872244        3.67074451126387       -1.62818210352325
H           -6.38725875612159        1.57410785722098        0.97546130947234
H           -4.30798852153370        1.87449187231291       -1.29453969009389
H           -2.24222718959605        3.19658322417581       -1.28092947327197
H            1.79074206169487        4.14729698297961       -1.16196209647240
H            1.81874976947272        6.59558530073393       -1.08663293066293

          :  Hamiltonian                  GFN2-xTB          :
         :: gradient norm              0.000062230293 Eh/a0 ::
         :: HOMO-LUMO gap              0.124383400989 eV    ::
         :: SCC energy              -200.574507489175 Eh    ::
         :: -> dispersion             -0.199412133811 Eh    ::
         :: -> Gsolv                  -0.078837852470 Eh    ::
         :: repulsion energy           3.482276090568 Eh    ::

    * Orbital Energies and Occupations

         #    Occupation            Energy/Eh            Energy/eV
      -------------------------------------------------------------
         1        2.0000           -0.6783691             -18.4594
       ...           ...                  ...                  ...
       174        2.0000           -0.4028025             -10.9608
       175        2.0000           -0.3995794             -10.8731
       176        2.0000           -0.3969573             -10.8018
       177        2.0000           -0.3951220             -10.7518
       178        2.0000           -0.3945777             -10.7370
       179        2.0000           -0.3937461             -10.7144
       180        2.0000           -0.3914612             -10.6522
       181        2.0000           -0.3701011             -10.0710
       182        2.0000           -0.3662983              -9.9675
       183        1.9999           -0.3646486              -9.9226
       184        1.8820           -0.3580905              -9.7441
       185        1.1181           -0.3542692              -9.6402
       186        0.9062           -0.2535804              -6.9003 (HOMO)
       187        0.0728           -0.2490081              -6.7759 (LUMO)
       188        0.0190           -0.2476775              -6.7396
       189        0.0020           -0.2455079              -6.6806
       190        0.0000           -0.2409614              -6.5569
       191        0.0000           -0.2379456              -6.4748
       192                         -0.2358942              -6.4190
       193                         -0.2338818              -6.3642
       194                         -0.2319384              -6.3114
       195                         -0.2294511              -6.2437
       196                         -0.2285850              -6.2201
       197                         -0.2190273              -5.9600
       ...                                ...                  ...
       367                          0.7407013              20.1555
      -------------------------------------------------------------
                  HL-Gap            0.0045723 Eh            0.1244 eV

     #   Z          covCN         q      C6AA      α(0)
     1   6 C        3.758    -0.113    22.706     6.794
     2   6 C        2.965     0.019    27.583     8.615
     3   6 C        2.924    -0.038    28.935     8.821
     4   6 C        2.920    -0.045    29.130     8.851
     5   6 C        2.922     0.060    26.655     8.467
     6   7 N        2.752    -0.043    22.074     6.978
     7   6 C        2.928     0.059    26.673     8.470
     8   6 C        2.920    -0.044    29.091     8.845
     9   6 C        2.921    -0.032    28.799     8.800
    10   6 C        2.983     0.013    27.727     8.638
    11   6 C        3.939     0.010    20.345     6.410
    12   6 C        2.975     0.003    27.949     8.672
    13   6 C        2.932    -0.020    28.495     8.754
    14   6 C        2.912    -0.043    29.060     8.840
    15   6 C        2.912     0.053    26.806     8.490
    16   7 N        1.835    -0.252    27.407     7.758
    17   6 C        2.915     0.057    26.718     8.476
    18   6 C        3.053    -0.008    28.166     8.704
    19   6 C        2.911    -0.044    29.086     8.844
    20   6 C        2.971    -0.007    28.192     8.709
    21   6 C        3.902     0.027    20.068     6.368
    22   6 C        3.761    -0.102    22.493     6.761
    23   6 C        3.761    -0.100    22.457     6.755
    24   6 C        3.761    -0.105    22.560     6.771
    25   6 C        2.915    -0.042    29.042     8.837
    26   6 C        2.905    -0.046    29.148     8.853
    27   6 C        3.024    -0.012    28.287     8.724
    28   6 C        3.025    -0.013    28.315     8.728
    29   6 C        2.904    -0.045    29.116     8.848
    30   6 C        2.917    -0.039    28.958     8.824
    31   6 C        2.972    -0.007    28.202     8.711
    32   6 C        3.902     0.027    20.069     6.368
    33   6 C        3.761    -0.103    22.518     6.765
    34   6 C        3.761    -0.103    22.511     6.764
    35   6 C        3.761    -0.104    22.541     6.768
    36   6 C        2.909    -0.047    29.173     8.857
    37   6 C        3.050    -0.008    28.175     8.705
    38   6 C        2.922    -0.033    28.830     8.805
    39   6 C        2.919    -0.043    29.076     8.842
    40   6 C        2.928     0.061    26.630     8.463
    41   6 C        2.921    -0.043    29.078     8.843
    42   6 C        2.923    -0.032    28.787     8.799
    43   6 C        2.979     0.015    27.665     8.628
    44   6 C        3.946     0.009    20.354     6.411
    45   6 C        2.975     0.007    27.866     8.659
    46   6 C        2.932    -0.021    28.521     8.758
    47   6 C        2.912    -0.042    29.054     8.839
    48   6 C        2.911     0.055    26.759     8.482
    49   7 N        1.835    -0.253    27.426     7.761
    50   6 C        2.914     0.056    26.740     8.479
    51   6 C        3.055    -0.004    28.081     8.690
    52   6 C        2.921    -0.042    29.053     8.839
    53   6 C        2.974     0.004    27.930     8.669
    54   6 C        3.902     0.025    20.092     6.372
    55   6 C        3.761    -0.107    22.584     6.775
    56   6 C        3.761    -0.103    22.513     6.764
    57   6 C        3.761    -0.101    22.479     6.759
    58   6 C        2.925    -0.044    29.100     8.846
    59   6 C        2.914    -0.040    28.985     8.828
    60   6 C        3.033    -0.007    28.159     8.704
    61   6 C        3.033    -0.007    28.160     8.704
    62   6 C        2.914    -0.039    28.982     8.828
    63   6 C        2.925    -0.045    29.106     8.847
    64   6 C        2.974     0.003    27.944     8.671
    65   6 C        3.902     0.025    20.093     6.372
    66   6 C        3.761    -0.103    22.515     6.764
    67   6 C        3.761    -0.104    22.532     6.767
    68   6 C        3.761    -0.107    22.587     6.775
    69   6 C        2.921    -0.042    29.046     8.838
    70   6 C        3.055    -0.004    28.062     8.688
    71   6 C        2.922    -0.033    28.825     8.804
    72   6 C        2.920    -0.043    29.074     8.842
    73   6 C        2.920    -0.045    29.126     8.850
    74   6 C        2.923    -0.037    28.925     8.820
    75   1 H        0.924     0.056     2.251     2.347
    76   1 H        0.925     0.053     2.286     2.364
    77   1 H        0.925     0.048     2.347     2.396
    78   1 H        0.926     0.043     2.412     2.428
    79   1 H        0.926     0.038     2.470     2.458
    80   1 H        0.926     0.039     2.465     2.455
    81   1 H        0.926     0.035     2.519     2.482
    82   1 H        0.926     0.036     2.505     2.475
    83   1 H        0.926     0.037     2.495     2.470
    84   1 H        0.925     0.030     2.581     2.513
    85   1 H        0.925     0.029     2.596     2.520
    86   1 H        0.926     0.022     2.710     2.574
    87   1 H        0.925     0.039     2.459     2.452
    88   1 H        0.925     0.036     2.509     2.477
    89   1 H        0.925     0.031     2.569     2.507
    90   1 H        0.925     0.035     2.522     2.483
    91   1 H        0.925     0.038     2.479     2.462
    92   1 H        0.925     0.030     2.582     2.513
    93   1 H        0.925     0.035     2.521     2.483
    94   1 H        0.925     0.035     2.517     2.481
    95   1 H        0.925     0.037     2.493     2.469
    96   1 H        0.926     0.032     2.560     2.502
    97   1 H        0.926     0.020     2.732     2.585
    98   1 H        0.926     0.020     2.737     2.587
    99   1 H        0.926     0.024     2.671     2.556
   100   1 H        0.925     0.036     2.501     2.473
   101   1 H        0.925     0.033     2.542     2.493
   102   1 H        0.925     0.039     2.463     2.454
   103   1 H        0.925     0.030     2.581     2.512
   104   1 H        0.925     0.039     2.469     2.457
   105   1 H        0.925     0.036     2.504     2.474
   106   1 H        0.925     0.033     2.547     2.496
   107   1 H        0.925     0.037     2.493     2.469
   108   1 H        0.925     0.035     2.510     2.478
   109   1 H        0.926     0.028     2.613     2.528
   110   1 H        0.926     0.039     2.461     2.453
   111   1 H        0.926     0.041     2.438     2.441
   112   1 H        0.926     0.039     2.456     2.451
   113   1 H        0.926     0.036     2.498     2.472
   114   1 H        0.926     0.036     2.506     2.476
   115   1 H        0.926     0.037     2.486     2.466
   116   1 H        0.925     0.031     2.566     2.505
   117   1 H        0.925     0.031     2.577     2.510
   118   1 H        0.926     0.028     2.621     2.532
   119   1 H        0.925     0.036     2.509     2.477
   120   1 H        0.925     0.036     2.503     2.474
   121   1 H        0.925     0.038     2.482     2.463
   122   1 H        0.925     0.036     2.506     2.476
   123   1 H        0.925     0.039     2.459     2.452
   124   1 H        0.925     0.032     2.559     2.502
   125   1 H        0.925     0.031     2.576     2.510
   126   1 H        0.925     0.035     2.521     2.483
   127   1 H        0.925     0.038     2.480     2.463
   128   1 H        0.926     0.037     2.486     2.466
   129   1 H        0.926     0.027     2.623     2.532
   130   1 H        0.926     0.027     2.629     2.535
   131   1 H        0.926     0.037     2.490     2.468
   132   1 H        0.925     0.039     2.462     2.454
   133   1 H        0.925     0.031     2.578     2.511
   134   1 H        0.925     0.034     2.527     2.486
   135   1 H        0.925     0.036     2.498     2.472
   136   1 H        0.925     0.039     2.464     2.455
   137   1 H        0.925     0.033     2.538     2.491
   138   1 H        0.925     0.035     2.515     2.480
   139   1 H        0.925     0.038     2.480     2.463
   140   1 H        0.925     0.036     2.497     2.471
   141   1 H        0.926     0.027     2.628     2.535
   142   1 H        0.926     0.042     2.420     2.433
   143   1 H        0.926     0.043     2.410     2.428
   144   1 H        0.926     0.038     2.475     2.460
   145   1 H        0.926     0.041     2.436     2.441

molecular dipole:
                 x           y           z       tot (Debye)
 q only:       -1.096       3.363      -0.300
   full:       -1.055       3.906      -0.274      10.306

 projected vibrational frequencies (cm⁻¹)
eigval :       -0.00    -0.00    -0.00    -0.00     0.00     0.00
eigval :        6.17     8.34    12.62    13.87    18.97    21.81
eigval :       23.18    25.24    30.49    31.25    34.67    36.27
eigval :       39.35    39.61    43.13    45.18    50.18    51.27
eigval :       54.72    57.59    58.71    60.53    70.20    71.70
eigval :       80.51    84.81    85.63    92.54   110.60   120.98
eigval :      130.55   134.44   141.66   145.91   150.65   155.30
eigval :      158.30   174.57   176.95   181.27   183.09   184.16
eigval :      187.95   191.41   197.23   203.23   207.56   214.74
eigval :      219.73   223.51   225.18   231.96   234.63   238.28
eigval :      246.92   254.63   260.07   261.08   270.46   280.68
eigval :      292.00   295.62   298.15   306.64   307.90   313.00
eigval :      317.74   321.08   323.00   326.14   329.15   330.54
eigval :      332.01   335.39   341.55   343.76   347.59   354.74
eigval :      357.08   364.07   364.29   364.96   366.26   371.03
eigval :      377.83   379.09   382.60   385.04   388.00   390.85
eigval :      394.86   415.08   427.21   429.87   436.12   441.03
eigval :      442.79   444.80   448.67   449.31   456.61   465.71
eigval :      476.94   478.23   480.20   493.15   501.91   515.95
eigval :      518.87   528.94   531.56   537.57   543.27   552.77
eigval :      574.86   582.59   593.57   594.83   597.95   600.63
eigval :      603.94   607.29   610.82   612.67   617.77   622.90
eigval :      628.32   646.60   657.08   658.96   667.53   674.43
eigval :      675.28   681.61   684.37   687.66   691.80   696.61
eigval :      702.97   713.08   718.32   725.54   730.54   764.60
eigval :      779.96   781.74   782.86   789.32   801.08   801.53
eigval :      809.11   817.52   818.04   821.73   829.87   854.84
eigval :      860.88   863.64   864.53   869.92   870.86   871.34
eigval :      874.62   884.51   887.96   888.57   893.57   898.39
eigval :      898.90   899.32   902.53   902.78   907.38   911.43
eigval :      912.04   912.33   914.48   917.19   919.16   924.09
eigval :      924.87   926.84   929.67   932.58   934.26   938.25
eigval :      940.79   945.11   954.20   954.67   958.18   959.13
eigval :      959.43   960.25   960.65   960.90   962.05   962.24
eigval :      962.82   964.17   965.10   965.35   979.84  1003.05
eigval :     1006.89  1007.71  1010.91  1013.12  1023.71  1025.19
eigval :     1027.23  1028.92  1029.39  1033.58  1033.66  1034.71
eigval :     1035.03  1035.71  1036.74  1083.69  1089.15  1091.95
eigval :     1098.28  1111.30  1121.20  1125.60  1132.63  1134.60
eigval :     1135.54  1139.49  1140.58  1141.50  1142.56  1143.57
eigval :     1175.97  1177.53  1178.70  1184.73  1186.73  1187.98
eigval :     1190.91  1191.92  1193.69  1201.53  1205.12  1211.90
eigval :     1212.21  1216.43  1219.70  1224.20  1224.39  1226.41
eigval :     1227.30  1231.67  1233.39  1236.10  1236.87  1238.84
eigval :     1245.71  1250.77  1256.23  1266.30  1266.75  1267.76
eigval :     1270.94  1272.80  1274.21  1276.86  1283.58  1285.25
eigval :     1286.30  1287.74  1290.52  1300.49  1305.50  1314.60
eigval :     1317.79  1318.05  1320.34  1326.52  1327.95  1329.60
eigval :     1362.59  1363.39  1376.01  1387.94  1391.88  1396.54
eigval :     1397.63  1398.15  1399.23  1400.16  1400.86  1401.68
eigval :     1402.13  1403.11  1405.00  1406.38  1411.38  1415.97
eigval :     1418.72  1420.89  1425.14  1425.24  1426.78  1427.27
eigval :     1431.25  1439.55  1440.18  1449.10  1456.73  1466.30
eigval :     1470.50  1471.96  1475.66  1476.81  1482.18  1483.15
eigval :     1487.90  1488.60  1488.95  1489.36  1489.67  1491.98
eigval :     1492.03  1492.27  1492.44  1495.82  1498.26  1498.86
eigval :     1500.91  1502.04  1502.69  1502.99  1504.55  1505.27
eigval :     1509.01  1511.23  1511.27  1512.07  1513.09  1517.55
eigval :     1517.72  1517.87  1518.70  1524.76  1540.82  1544.67
eigval :     1545.44  1556.04  1558.82  1563.86  1565.00  1577.60
eigval :     1584.70  1589.96  1600.64  1605.97  2997.31  3016.63
eigval :     3016.82  3017.78  3018.01  3018.37  3019.15  3019.17
eigval :     3019.92  3020.83  3021.93  3022.50  3022.80  3023.02
eigval :     3023.12  3023.20  3023.99  3024.41  3025.30  3025.56
eigval :     3026.25  3027.02  3027.64  3029.47  3029.95  3030.69
eigval :     3032.69  3034.20  3035.05  3035.33  3041.63  3043.54
eigval :     3044.08  3044.23  3045.16  3045.39  3045.88  3046.99
eigval :     3047.32  3048.50  3051.05  3051.19  3051.73  3064.99
eigval :     3066.40  3067.72  3071.37  3072.75  3074.56  3075.14
eigval :     3075.45  3077.33  3077.58  3078.03  3078.80  3080.00
eigval :     3083.23  3083.34  3084.92  3085.58  3086.92  3087.85
eigval :     3088.94  3089.75  3091.54  3091.82  3095.61  3103.93
eigval :     3104.37  3111.30  3112.21

   temp. (K)  partition function   enthalpy   heat capacity  entropy
                                   cal/mol     cal/K/mol   cal/K/mol   J/K/mol
 298.15  VIB  0.347E+35            42791.061    257.900    268.919
         ROT  0.281E+09              888.752      2.981     41.642
         INT  0.975E+43            43679.813    260.881    310.561
         TR   0.291E+29             1481.254      4.968     46.458
         TOT                       45161.0674   265.8490   357.0190  1493.7676

       T/K    H(0)-H(T)+PV         H(T)/Eh          T*S/Eh         G(T)/Eh
   ------------------------------------------------------------------------
    298.15    0.719687E-01    0.126550E+01    0.169631E+00    0.109587E+01
   ------------------------------------------------------------------------

         :::::::::::::::::::::::::::::::::::::::::::::::::::::
         ::                  THERMODYNAMIC                  ::
         :::::::::::::::::::::::::::::::::::::::::::::::::::::
         :: total free energy        -195.996365735079 Eh   ::
         ::.................................................::
         :: total energy             -197.092231403076 Eh   ::
         :: zero point energy           1.193528182191 Eh   ::
         :: G(RRHO) w/o ZPVE           -0.097662514194 Eh   ::
         :: G(RRHO) contrib.            1.095865667997 Eh   ::
         :::::::::::::::::::::::::::::::::::::::::::::::::::::

           -------------------------------------------------
          | TOTAL ENERGY             -197.092231403076 Eh   |
          | TOTAL ENTHALPY           -195.826734479050 Eh   |
          | TOTAL FREE ENERGY        -195.996365735079 Eh   |
          | GRADIENT NORM               0.000061497530 Eh/α |
          | HOMO-LUMO GAP               0.124418242478 eV   |
           -------------------------------------------------

 * finished run on 2025/08/23 at 05:47:53.439
