   * xtb version 6.7.1 (edcfbbe) compiled by 'albert@albert-system' on 2024-07-22

   ID    Z sym.   atoms
    1    7 N      1, 5, 34
    2    6 C      2-4, 6-33, 35-58
    3    1 H      59-93

          program call               : xtb data2507/gas/2PCzBN/2PCzBN_gas_T1_crest.xyz --gfn 2 --spinpol --tblite --uhf 2 --ohess vtight --parallel 40 --molden --ceasefiles --namespace data2507/gas/2PCzBN/2PCzBN_gas_T1_finalOpt
 * total energy  :  -144.3250380 Eh     change        0.7428352E-07 Eh
 * total energy  :  -144.3251276 Eh     change       -0.8958211E-04 Eh
 * total energy  :  -144.3252295 Eh     change       -0.1019441E-03 Eh
 * total energy  :  -144.3252478 Eh     change       -0.1828876E-04 Eh
 * total energy  :  -144.3252613 Eh     change       -0.1346349E-04 Eh
 * total energy  :  -144.3252726 Eh     change       -0.1131510E-04 Eh
 * total energy  :  -144.3252776 Eh     change       -0.5034661E-05 Eh
 * total energy  :  -144.3252841 Eh     change       -0.6480281E-05 Eh
 * total energy  :  -144.3252877 Eh     change       -0.3540691E-05 Eh
 * total energy  :  -144.3252921 Eh     change       -0.4416599E-05 Eh
 * total energy  :  -144.3253575 Eh     change       -0.3188757E-06 Eh
 * total energy  :  -144.3253577 Eh     change       -0.2429918E-06 Eh
 * total energy  :  -144.3253580 Eh     change       -0.2535006E-06 Eh
 * total energy  :  -144.3253583 Eh     change       -0.3348180E-06 Eh
 * total energy  :  -144.3253587 Eh     change       -0.4133201E-06 Eh
 * total energy  :  -144.3253590 Eh     change       -0.2962085E-06 Eh
 * total energy  :  -144.3253592 Eh     change       -0.1632245E-06 Eh
 * total energy  :  -144.3253593 Eh     change       -0.1062681E-06 Eh
 * total energy  :  -144.3253594 Eh     change       -0.4945977E-07 Eh
   *** GEOMETRY OPTIMIZATION CONVERGED AFTER 55 ITERATIONS ***

 final structure:
================
93
 xtb: 6.7.1 (edcfbbe)
N           -0.02626283992785        0.51236743940865        1.19576256798314
C           -0.00629270979441       -0.11268472132849        0.21320043937073
C            0.01196325877283       -0.78779388405235       -0.98281465235555
C            1.25773786834797       -1.24083472291743       -1.57621328086674
N            2.46067487624741       -0.77901979589600       -1.04182579003408
C            3.51753190300350       -1.57233122158633       -0.65158590672150
C            3.64104079194008       -2.95570716964778       -0.66089638500865
C            4.81875988125197       -3.50576270264771       -0.19854056464646
C            5.87073449432323       -2.71321252696719        0.28723388873273
C            7.10930114054723       -3.34169344428199        0.75815292643463
C            7.76454760704395       -2.86432802111125        1.89337576314833
C            8.93029677982611       -3.45883582490843        2.33646384020309
C            9.46858632423084       -4.53593938849197        1.65128824423393
C            8.82929929015186       -5.01704232576708        0.52031187632786
C            7.65938870396368       -4.42915159997677        0.07931623001260
C            5.72503374706562       -1.32676836235116        0.32884722918618
C            4.55579871432677       -0.75568917972180       -0.13555371074151
C            4.08439193224907        0.60092764683225       -0.22464944657625
C            4.63784667609411        1.82224121733851        0.10826202743051
C            3.90580141158456        2.98662865070786       -0.12234582540712
C            4.45979831891989        4.29414300566160        0.24505604352763
C            3.64625065932785        5.27429378159223        0.81335012206405
C            4.16793508032782        6.50388082403043        1.16683427520542
C            5.50835466202036        6.78084480650861        0.95266542947838
C            6.32571141353388        5.81640941982266        0.38618564967430
C            5.80852336787855        4.58302175077530        0.03894783430612
C            2.63766734475280        2.90232011231214       -0.71673792224544
C            2.07449888228373        1.69423863090598       -1.06754530093334
C            2.78701399332809        0.53480869529589       -0.79171702937056
C            1.24860445914222       -2.14779208793079       -2.60623819005247
C            0.04827401395556       -2.63243695258769       -3.13760107204589
C           -1.17166570793273       -2.19128116185573       -2.60825710739027
C           -1.21336111890672       -1.28358561719297       -1.58141971609561
N           -2.43333642971163       -0.85544454123287       -1.05404797941787
C           -2.80548387040645        0.45103048359872       -0.83440053520652
C           -2.13403363926302        1.62715011960678       -1.14059193559184
C           -2.74089267892704        2.82309216734463       -0.82290229481613
C           -4.01207189258669        2.87735860888705       -0.23184475145443
C           -4.61616898090001        4.17430052181078        0.09234016156592
C           -5.97355893370570        4.40536890557828       -0.12882541002296
C           -6.53818000486675        5.62960028619442        0.17421172201194
C           -5.76028878948246        6.64252077276432        0.71077342957510
C           -4.41173548009576        6.42315506318998        0.93990511601184
C           -3.84280489646989        5.20261786837033        0.63054923609461
C           -4.70058095000874        1.69404664533079        0.03359950372023
C           -4.10302010664269        0.48480294922063       -0.26575770414891
C           -4.52409386294073       -0.88573512334567       -0.14022207564604
C           -5.66860851873606       -1.48805950985932        0.34579280244790
C           -5.76280243115893       -2.87954246269814        0.33885646021450
C           -6.97276871907502       -3.54156723581086        0.83797199219272
C           -7.48957994646056       -4.66446676326712        0.19169775463247
C           -8.63198220160201       -5.28420713661075        0.66048964625963
C           -9.27615567793974       -4.79975092719461        1.78721499173101
C           -8.77070987677265       -3.68731628993122        2.44012563521462
C           -7.63266732501970       -3.06130031706191        1.96919936656845
C           -4.68685088302111       -3.64449357288838       -0.13807221491767
C           -3.53298540492952       -3.06314521322686       -0.62153666782574
C           -3.45923589806267       -1.67635440340668       -0.64178007319901
H            2.83465987017362       -3.58542318365555       -1.00442747536245
H            4.92590762706014       -4.57980796251377       -0.18158118574046
H            7.33974918410760       -2.03850585521167        2.44513368529764
H            9.42115401605071       -3.08294948435838        3.22246910111169
H           10.38119023715899       -4.99827720331056        1.99708297866408
H            9.24688032115466       -5.85360578024987       -0.02108208307090
H            7.17713502362720       -4.79764451348434       -0.81438481039346
H            6.52475739271428       -0.70489561682504        0.70150963635330
H            5.61484837478154        1.87264839992748        0.56459456014029
H            2.60579919663524        5.05554529550510        1.00293394921318
H            3.52761366248656        7.25009217847504        1.61439912104556
H            5.91444808541670        7.74332718036498        1.22656211022170
H            7.37084069962956        6.02853453536027        0.21278071173776
H            6.44774995025398        3.84277038281332       -0.42004741794556
H            2.10084574548417        3.81416873280534       -0.92974329323005
H            1.11039416235224        1.65613410671538       -1.54813462666596
H            2.18779190748754       -2.45419534817556       -3.04382984144068
H            0.06101887446422       -3.30304442445505       -3.97993286549354
H           -2.09854936882764       -2.53347946660873       -3.04552747588016
H           -1.16910171177898        1.60945757185246       -1.62109808787934
H           -2.23775010886985        3.74786784681083       -1.06120251088510
H           -6.58224566074742        3.62660729549386       -0.56505480974038
H           -7.58952802031253        5.79652626955299       -0.01062078243285
H           -6.20326668719677        7.59801433968566        0.94975356606161
H           -3.80195503265250        7.20758344089509        1.36417574863796
H           -2.79584662854698        5.02961281906310        0.83133225116207
H           -5.67884507346614        1.72187382568518        0.48917436529543
H           -6.48844299754508       -0.88738732677645        0.70943276769105
H           -7.00380333493838       -5.03658118130820       -0.69859355368735
H           -9.02412879749645       -6.14850517419502        0.14422708656222
H          -10.16708876319282       -5.28690714045504        2.15478236967081
H           -9.26537405952681       -3.30836518518885        3.32270359509725
H           -7.23262231203161       -2.20734399019579        2.49607220508105
H           -4.75543725788874       -4.72106595551026       -0.09691145749386
H           -2.70680462942493       -3.67008272465266       -0.95914271402301

 projected vibrational frequencies (cm⁻¹)
eigval :       -0.00    -0.00    -0.00    -0.00     0.00     0.00
eigval :        7.18     9.34    10.08    22.65    33.98    34.23
eigval :       38.33    39.49    39.73    42.72    43.69    52.28
eigval :       56.73    59.43    68.87    76.99    82.79    92.45
eigval :      100.22   112.94   117.81   128.75   129.32   146.63
eigval :      150.47   165.97   173.27   188.48   209.53   211.05
eigval :      216.55   232.37   248.27   250.09   260.31   281.12
eigval :      287.47   291.66   298.28   309.06   325.72   343.98
eigval :      350.20   356.57   370.13   371.09   371.87   372.16
eigval :      378.24   388.16   388.45   391.62   392.84   410.92
eigval :      426.44   429.50   431.32   457.05   473.82   474.33
eigval :      482.88   486.72   494.22   498.93   500.31   523.35
eigval :      552.47   553.93   555.93   565.69   579.20   579.90
eigval :      586.58   586.66   590.51   591.97   594.75   599.56
eigval :      608.70   621.76   622.88   623.73   628.48   634.39
eigval :      667.10   667.35   670.49   670.96   680.31   686.36
eigval :      686.98   704.65   705.30   708.81   714.65   734.18
eigval :      735.30   747.59   748.06   757.01   757.13   757.73
eigval :      759.85   809.59   821.05   822.93   823.26   852.62
eigval :      855.80   860.94   864.89   867.12   867.59   869.05
eigval :      876.06   876.39   876.98   877.45   883.68   890.66
eigval :      898.38   901.06   901.29   901.84   904.62   905.77
eigval :      906.09   909.29   911.85   913.76   929.81   929.94
eigval :      930.19   930.44   931.06   931.15   931.64   931.75
eigval :      969.67   969.85   975.26   979.53  1009.09  1020.50
eigval :     1023.89  1030.75  1065.01  1066.47  1067.78  1070.11
eigval :     1073.08  1085.16  1085.30  1085.62  1085.71  1116.09
eigval :     1121.75  1122.11  1122.55  1122.75  1136.87  1143.44
eigval :     1147.36  1182.08  1182.14  1182.19  1182.33  1186.46
eigval :     1187.14  1198.43  1198.99  1201.79  1202.10  1204.68
eigval :     1215.49  1217.51  1219.51  1228.24  1237.55  1241.59
eigval :     1252.75  1266.18  1271.57  1278.73  1279.59  1281.26
eigval :     1281.40  1282.09  1282.45  1285.96  1293.24  1316.11
eigval :     1320.02  1320.16  1320.29  1322.23  1329.61  1331.40
eigval :     1331.98  1350.60  1353.74  1368.28  1368.83  1403.78
eigval :     1405.50  1423.65  1427.37  1428.71  1428.97  1430.91
eigval :     1433.41  1446.89  1447.38  1464.50  1465.57  1472.31
eigval :     1481.74  1483.64  1484.27  1487.48  1492.56  1534.11
eigval :     1537.67  1540.15  1547.63  1551.07  1558.45  1567.72
eigval :     1570.60  1574.52  1575.12  1576.33  1577.04  1594.83
eigval :     1595.40  1596.34  1598.39  2151.18  3071.95  3071.97
eigval :     3072.34  3072.37  3073.91  3073.92  3074.72  3074.85
eigval :     3077.26  3077.73  3082.37  3082.40  3082.45  3082.52
eigval :     3085.35  3085.47  3087.10  3087.28  3087.48  3087.57
eigval :     3089.74  3089.82  3091.14  3092.23  3092.49  3092.60
eigval :     3093.12  3093.42  3093.54  3094.34  3097.20  3097.84
eigval :     3104.07  3107.31  3114.70

   temp. (K)  partition function   enthalpy   heat capacity  entropy
                                   cal/mol     cal/K/mol   cal/K/mol   J/K/mol
 298.15  VIB  0.115E+23            27398.472    171.273    172.118
         ROT  0.194E+09              888.752      2.981     40.900
         INT  0.222E+31            28287.224    174.254    213.019
         TR   0.194E+29             1481.254      4.968     45.655
         TOT                       29768.4784   179.2220   258.6737  1082.2907

       T/K    H(0)-H(T)+PV         H(T)/Eh          T*S/Eh         G(T)/Eh
   ------------------------------------------------------------------------
    298.15    0.474391E-01    0.754096E+00    0.122904E+00    0.631192E+00
   ------------------------------------------------------------------------

         :::::::::::::::::::::::::::::::::::::::::::::::::::::
         ::                  THERMODYNAMIC                  ::
         :::::::::::::::::::::::::::::::::::::::::::::::::::::
         :: total free energy        -143.694167809623 Eh   ::
         ::.................................................::
         :: total energy             -144.325359415647 Eh   ::
         :: zero point energy           0.706656735921 Eh   ::
         :: G(RRHO) w/o ZPVE           -0.075465129897 Eh   ::
         :: G(RRHO) contrib.            0.631191606024 Eh   ::
         :::::::::::::::::::::::::::::::::::::::::::::::::::::

           -------------------------------------------------
          | TOTAL ENERGY             -144.325359415647 Eh   |
          | TOTAL ENTHALPY           -143.571263589846 Eh   |
          | TOTAL FREE ENERGY        -143.694167809623 Eh   |
          | GRADIENT NORM               0.000056253424 Eh/α |
           -------------------------------------------------

 * finished run on 2025/07/20 at 06:12:30.859
