   * xtb version 6.7.1 (edcfbbe) compiled by 'albert@albert-system' on 2024-07-22

   ID    Z sym.   atoms
    1    7 N      1, 5, 34
    2    6 C      2-4, 6-33, 35-58
    3    1 H      59-93

          program call               : xtb data2507/gas/2PCzBN/2PCzBN.xyz --gfn 2 --ohess vtight --parallel 40 --molden --ceasefiles --namespace data2507/gas/2PCzBN/2PCzBN_gas_S0_preOpt
          :  Hamiltonian                  GFN2-xTB          :
 * total energy  :  -144.3930696 Eh     change       -0.1916163E-08 Eh
 * total energy  :  -144.4089497 Eh     change       -0.1588012E-01 Eh
 * total energy  :  -144.4129275 Eh     change       -0.3977812E-02 Eh
 * total energy  :  -144.4141716 Eh     change       -0.1244047E-02 Eh
 * total energy  :  -144.4151400 Eh     change       -0.9684209E-03 Eh
 * total energy  :  -144.4155825 Eh     change       -0.4424913E-03 Eh
 * total energy  :  -144.4159115 Eh     change       -0.3290242E-03 Eh
 * total energy  :  -144.4162034 Eh     change       -0.2918546E-03 Eh
 * total energy  :  -144.4164526 Eh     change       -0.2492196E-03 Eh
 * total energy  :  -144.4166552 Eh     change       -0.2026108E-03 Eh
 * total energy  :  -144.4183375 Eh     change       -0.7833319E-06 Eh
 * total energy  :  -144.4183382 Eh     change       -0.6790672E-06 Eh
 * total energy  :  -144.4183387 Eh     change       -0.5222426E-06 Eh
 * total energy  :  -144.4183391 Eh     change       -0.4200518E-06 Eh
 * total energy  :  -144.4183395 Eh     change       -0.4170113E-06 Eh
 * total energy  :  -144.4183399 Eh     change       -0.4172210E-06 Eh
 * total energy  :  -144.4183404 Eh     change       -0.4441784E-06 Eh
 * total energy  :  -144.4183408 Eh     change       -0.4541028E-06 Eh
 * total energy  :  -144.4183408 Eh     change       -0.2593680E-08 Eh
   *** GEOMETRY OPTIMIZATION CONVERGED AFTER 94 ITERATIONS ***

 final structure:
================
93
 xtb: 6.7.1 (edcfbbe)
N           -0.00001685228908        0.00009679756602        1.25547704282441
C            0.00005403019324        0.00004996969548        0.10887792469664
C            0.00008629208078        0.00000502422734       -1.30472647090769
C            1.20970778905142       -0.12267544895201       -2.01045176417093
N            2.41502807183135       -0.26564826746620       -1.32408648769752
C            2.70790309820390       -1.23500498904412       -0.37954833927579
C            1.93996613570834       -2.30007869437671        0.06387186882871
C            2.49547487648759       -3.15094374098010        0.99722823816910
C            3.79892662583063       -2.97774676000957        1.48003901409722
C            4.34392156552401       -3.91518903855726        2.47381762987946
C            5.65037813265567       -4.38599576377637        2.36549674498814
C            6.16022593450715       -5.27014323776378        3.29784919570441
C            5.37536619060298       -5.69515031494986        4.35657948099843
C            4.07617237694591       -5.23078787062483        4.47608595171526
C            3.56304998388865       -4.35028056489137        3.54210578655258
C            4.57475993345293       -1.92899990681687        1.00343019706235
C            4.03332823012184       -1.05737690884684        0.07214780138281
C            4.55989001856927        0.07957182288343       -0.63413634678025
C            5.77933761244300        0.73647093302833       -0.60402948458131
C            5.97310290622779        1.84581260253382       -1.41817958698854
C            7.25793043794135        2.56160894661023       -1.40249136597013
C            8.46007616621145        1.85862645407605       -1.36825365707317
C            9.66860912914840        2.52935720133114       -1.35263431631600
C            9.69722386331144        3.91377839114589       -1.36628248284660
C            8.50838325816321        4.62317756699852       -1.39720980811363
C            7.29904886263160        3.95385705655003       -1.41736798696144
C            4.93486118000679        2.28576750294337       -2.24920038086861
C            3.71386455096960        1.64342537468893       -2.29895538833839
C            3.53424011712745        0.52914062022450       -1.49425914949185
C            1.19726410030924       -0.10559672228161       -3.40102859455451
C            0.00021477731553        0.00001092182622       -4.08628259955293
C           -1.19689724431340        0.10560175158027       -3.40113716928924
C           -1.20947770548983        0.12267156301150       -2.01055909634854
N           -2.41486862726535        0.26563752475008       -1.32431760953157
C           -2.70784000081905        1.23499699947800       -0.37981065571635
C           -1.93995246940896        2.30007483993750        0.06368680525509
C           -2.49555953848172        3.15093752874442        0.99698728659852
C           -3.79906265499440        2.97774098680871        1.47965835125198
C           -4.34417811396998        3.91518025585083        2.47337225532872
C           -5.65062113042373        4.38598628410167        2.36488542564692
C           -6.16059348165308        5.27011842322031        3.29718381114583
C           -5.37587425686996        5.69510613299994        4.35602614930792
C           -4.07669493169467        5.23074516061006        4.47569582321421
C           -3.56344566120115        4.35025724797546        3.54176704947226
C           -4.57484452785564        1.92899330884796        1.00296933298530
C           -4.03331126843246        1.05736963352768        0.07174843253117
C           -4.55980438506323       -0.07957489395455       -0.63459066980592
C           -5.77925920458262       -0.73646480175909       -0.60459917991857
C           -5.97295802692127       -1.84579933994730       -1.41877409618813
C           -7.25778793669248       -2.56159436564506       -1.40319952240686
C           -8.45993859698580       -1.85861577301021       -1.36904713595459
C           -9.66847117301968       -2.52935025212775       -1.35353563812701
C           -9.69708155813562       -3.91377128703501       -1.36720767321742
C           -8.50823642199864       -4.62316665546638       -1.39804432991909
C           -7.29890233600565       -3.95384245665141       -1.41809393632260
C           -4.93464186071904       -2.28574864791752       -2.24970544458926
C           -3.71363391384519       -1.64341687852324       -2.29934045456012
C           -3.53407102272277       -0.52914279348894       -1.49461453235591
H            0.94089838816472       -2.47250457576559       -0.30774043215236
H            1.91696869127392       -3.99185939463783        1.34907065198798
H            6.26195522070954       -4.07140720463083        1.53201964661751
H            7.17355608026591       -5.63174686887630        3.19734776424660
H            5.77469865860738       -6.38502468375866        5.08542372391345
H            3.46079116139904       -5.55514810657459        5.30285161091489
H            2.55509157958158       -3.97695182680906        3.64975625080693
H            5.58146479714213       -1.78295777557159        1.36455011919108
H            6.55893614122191        0.40615112195658        0.06542815150197
H            8.44424285257506        0.77823017889772       -1.37379861645480
H           10.59297584952500        1.97023093838738       -1.33167903253666
H           10.64166905178812        4.43749664229784       -1.35215403726910
H            8.52412827810249        5.70356960873255       -1.40266917868500
H            6.37498160495682        4.51375854315377       -1.42253972786029
H            5.10237250825389        3.14413759759861       -2.88272928719579
H            2.92548911568939        2.00616979563351       -2.94212724394234
H            2.13052927862061       -0.20124640727948       -3.93417959391371
H            0.00026436842520        0.00001477702852       -5.16556955265490
H           -2.13011309041659        0.20124593268158       -3.93437612069760
H           -0.94084748638925        2.47250572308821       -0.30782305383374
H           -1.91709299857268        3.99185651195131        1.34888695903469
H           -6.26208312887321        4.07141568551958        1.53131707841431
H           -7.17391110620548        5.63172149351725        3.19655459509848
H           -5.77530725235832        6.38496011577916        5.08483440435217
H           -3.46142615896442        5.55508759265396        5.30255194008359
H           -2.55550220852077        3.97692477990073        3.64954420302124
H           -5.58158934690370        1.78295203531000        1.36397793067762
H           -6.55891582221636       -0.40613909964394        0.06478786768648
H           -8.44410955367240       -0.77821933693197       -1.37457214110512
H          -10.59284138780467       -1.97022716700860       -1.33264390794793
H          -10.64152660277520       -4.43749233499596       -1.35316452086446
H           -8.52397757656257       -5.70355871319891       -1.40351759800421
H           -6.37483324356467       -4.51374144181157       -1.42319732668211
H           -5.10210219616980       -3.14410849822025       -2.88326171981117
H           -2.92520381191349       -2.00616409118094       -2.94244405076680

          :  Hamiltonian                  GFN2-xTB          :
         :: gradient norm              0.000040436929 Eh/a0 ::
         :: HOMO-LUMO gap              2.184026011339 eV    ::
         :: SCC energy              -147.237619857077 Eh    ::
         :: -> dispersion             -0.131403480364 Eh    ::
         :: repulsion energy           2.819279023057 Eh    ::

    * Orbital Energies and Occupations

         #    Occupation            Energy/Eh            Energy/eV
      -------------------------------------------------------------
         1        2.0000           -0.6940500             -18.8861
       ...           ...                  ...                  ...
       123        2.0000           -0.4115326             -11.1984
       124        2.0000           -0.4026871             -10.9577
       125        2.0000           -0.4026830             -10.9576
       126        2.0000           -0.3998307             -10.8799
       127        2.0000           -0.3996148             -10.8741
       128        2.0000           -0.3996065             -10.8738
       129        2.0000           -0.3992343             -10.8637
       130        2.0000           -0.3916642             -10.6577
       131        2.0000           -0.3915898             -10.6557
       132        2.0000           -0.3791819             -10.3181
       133        2.0000           -0.3791634             -10.3176
       134        2.0000           -0.3643094              -9.9134
       135        2.0000           -0.3643041              -9.9132 (HOMO)
       136                         -0.2840426              -7.7292 (LUMO)
       137                         -0.2607786              -7.0961
       138                         -0.2483255              -6.7573
       139                         -0.2470164              -6.7217
       140                         -0.2442728              -6.6470
       141                         -0.2441390              -6.6434
       142                         -0.2321873              -6.3181
       143                         -0.2299138              -6.2563
       144                         -0.2206270              -6.0036
       145                         -0.2206263              -6.0035
       146                         -0.2175345              -5.9194
       ...                                ...                  ...
       267                          1.1648701              31.6977
      -------------------------------------------------------------
                  HL-Gap            0.0802615 Eh            2.1840 eV

     #   Z          covCN         q      C6AA      α(0)
     1   7 N        0.911    -0.233    26.109     7.390
     2   6 C        1.909     0.121    28.137     8.567
     3   6 C        2.975    -0.011    28.280     8.723
     4   6 C        2.917     0.075    26.330     8.414
     5   7 N        2.803    -0.047    22.143     6.989
     6   6 C        3.071     0.047    26.867     8.499
     7   6 C        2.908    -0.045    29.121     8.849
     8   6 C        2.930    -0.034    28.839     8.807
     9   6 C        2.977     0.003    27.952     8.672
    10   6 C        2.978     0.011    27.762     8.643
    11   6 C        2.925    -0.035    28.863     8.810
    12   6 C        2.918    -0.030    28.751     8.793
    13   6 C        2.920    -0.032    28.793     8.799
    14   6 C        2.919    -0.029    28.736     8.791
    15   6 C        2.925    -0.034    28.845     8.808
    16   6 C        2.918    -0.036    28.896     8.815
    17   6 C        3.065    -0.015    28.308     8.724
    18   6 C        3.064    -0.014    28.303     8.724
    19   6 C        2.918    -0.036    28.905     8.816
    20   6 C        2.977     0.001    27.998     8.680
    21   6 C        2.978     0.011    27.773     8.644
    22   6 C        2.925    -0.034    28.857     8.810
    23   6 C        2.918    -0.030    28.742     8.792
    24   6 C        2.920    -0.032    28.788     8.799
    25   6 C        2.919    -0.030    28.743     8.792
    26   6 C        2.925    -0.034    28.856     8.809
    27   6 C        2.929    -0.037    28.926     8.820
    28   6 C        2.908    -0.051    29.278     8.873
    29   6 C        3.072     0.045    26.907     8.505
    30   6 C        2.921    -0.046    29.154     8.854
    31   6 C        2.917    -0.023    28.574     8.766
    32   6 C        2.921    -0.046    29.154     8.854
    33   6 C        2.917     0.075    26.330     8.414
    34   7 N        2.803    -0.047    22.143     6.989
    35   6 C        3.071     0.047    26.867     8.499
    36   6 C        2.908    -0.045    29.121     8.849
    37   6 C        2.930    -0.034    28.839     8.807
    38   6 C        2.977     0.003    27.952     8.672
    39   6 C        2.978     0.011    27.762     8.643
    40   6 C        2.925    -0.035    28.863     8.810
    41   6 C        2.918    -0.030    28.751     8.793
    42   6 C        2.920    -0.032    28.793     8.799
    43   6 C        2.919    -0.029    28.736     8.791
    44   6 C        2.925    -0.034    28.845     8.808
    45   6 C        2.918    -0.036    28.896     8.815
    46   6 C        3.065    -0.015    28.308     8.724
    47   6 C        3.064    -0.014    28.303     8.724
    48   6 C        2.918    -0.036    28.905     8.816
    49   6 C        2.977     0.001    27.998     8.680
    50   6 C        2.978     0.011    27.773     8.644
    51   6 C        2.925    -0.034    28.857     8.810
    52   6 C        2.918    -0.030    28.742     8.792
    53   6 C        2.920    -0.032    28.788     8.799
    54   6 C        2.919    -0.030    28.743     8.792
    55   6 C        2.925    -0.034    28.856     8.809
    56   6 C        2.929    -0.037    28.926     8.820
    57   6 C        2.908    -0.051    29.278     8.873
    58   6 C        3.072     0.045    26.907     8.505
    59   1 H        0.926     0.023     2.689     2.564
    60   1 H        0.926     0.037     2.487     2.466
    61   1 H        0.926     0.029     2.598     2.521
    62   1 H        0.926     0.028     2.614     2.528
    63   1 H        0.926     0.028     2.612     2.527
    64   1 H        0.926     0.029     2.596     2.519
    65   1 H        0.926     0.034     2.534     2.489
    66   1 H        0.926     0.037     2.489     2.467
    67   1 H        0.926     0.037     2.492     2.469
    68   1 H        0.926     0.030     2.585     2.514
    69   1 H        0.926     0.029     2.603     2.523
    70   1 H        0.926     0.029     2.606     2.524
    71   1 H        0.926     0.029     2.605     2.524
    72   1 H        0.926     0.030     2.587     2.515
    73   1 H        0.926     0.034     2.531     2.488
    74   1 H        0.926     0.025     2.661     2.551
    75   1 H        0.926     0.050     2.314     2.379
    76   1 H        0.926     0.048     2.345     2.395
    77   1 H        0.926     0.050     2.314     2.379
    78   1 H        0.926     0.023     2.689     2.564
    79   1 H        0.926     0.037     2.487     2.466
    80   1 H        0.926     0.029     2.598     2.521
    81   1 H        0.926     0.028     2.614     2.528
    82   1 H        0.926     0.028     2.612     2.527
    83   1 H        0.926     0.029     2.596     2.519
    84   1 H        0.926     0.034     2.534     2.489
    85   1 H        0.926     0.037     2.489     2.467
    86   1 H        0.926     0.037     2.492     2.469
    87   1 H        0.926     0.030     2.585     2.514
    88   1 H        0.926     0.029     2.603     2.523
    89   1 H        0.926     0.029     2.606     2.524
    90   1 H        0.926     0.029     2.605     2.524
    91   1 H        0.926     0.030     2.587     2.515
    92   1 H        0.926     0.034     2.531     2.488
    93   1 H        0.926     0.025     2.661     2.551

molecular dipole:
                 x           y           z       tot (Debye)
 q only:        0.000      -0.000      -1.211
   full:        0.000      -0.000      -1.764       4.484

 projected vibrational frequencies (cm⁻¹)
eigval :       -0.00    -0.00     0.00     0.00     0.00     0.00
eigval :        7.79     8.57     9.96    26.21    33.55    35.54
eigval :       37.57    39.37    39.42    41.46    44.44    50.80
eigval :       60.14    64.27    66.19    75.93    83.98    91.53
eigval :       99.99   114.86   123.48   124.06   137.23   154.29
eigval :      160.28   164.71   182.18   188.43   208.70   213.76
eigval :      215.25   238.09   246.51   246.55   270.53   275.58
eigval :      280.87   304.75   308.40   317.55   320.51   353.04
eigval :      357.14   372.28   372.35   372.96   373.10   376.06
eigval :      382.16   386.50   398.40   399.24   407.43   430.45
eigval :      432.20   436.62   457.80   476.26   476.57   478.48
eigval :      483.82   501.47   502.88   515.85   543.50   543.75
eigval :      552.86   559.68   562.08   570.25   573.76   586.40
eigval :      586.49   591.63   592.24   600.44   603.96   609.34
eigval :      620.81   624.08   628.16   631.67   641.30   667.23
eigval :      667.44   673.78   674.01   682.97   685.26   685.34
eigval :      694.16   707.04   707.08   717.30   740.40   740.79
eigval :      752.53   757.23   759.33   759.42   765.68   770.30
eigval :      808.81   822.61   822.67   824.68   827.03   857.39
eigval :      865.03   872.90   872.96   874.21   874.59   879.90
eigval :      880.34   881.35   882.08   895.50   901.67   901.88
eigval :      901.98   902.11   906.11   906.18   911.17   911.76
eigval :      911.96   914.28   915.55   929.65   930.60   930.64
eigval :      930.72   930.86   932.26   932.27   932.49   932.50
eigval :      972.25   972.32   981.74   982.31  1026.28  1027.73
eigval :     1037.78  1072.22  1072.91  1073.12  1075.46  1086.55
eigval :     1086.98  1087.24  1087.24  1103.84  1121.87  1121.88
eigval :     1122.15  1122.22  1131.98  1156.17  1160.62  1160.68
eigval :     1182.59  1182.61  1182.71  1182.72  1184.94  1191.81
eigval :     1195.50  1201.28  1201.34  1203.28  1205.30  1213.55
eigval :     1221.03  1221.57  1224.20  1227.49  1243.40  1251.42
eigval :     1280.36  1280.99  1281.92  1281.94  1282.26  1282.28
eigval :     1297.48  1304.56  1306.04  1307.57  1308.78  1319.33
eigval :     1319.35  1320.16  1320.78  1344.15  1346.90  1351.88
eigval :     1358.18  1360.89  1386.44  1408.79  1409.10  1427.41
eigval :     1428.65  1431.00  1431.01  1433.76  1434.07  1453.76
eigval :     1454.05  1461.62  1462.41  1468.09  1468.69  1494.74
eigval :     1494.78  1497.47  1497.49  1550.41  1562.00  1566.79
eigval :     1569.83  1576.81  1577.24  1583.20  1583.20  1585.09
eigval :     1585.31  1595.36  1595.42  1598.61  1598.87  1603.93
eigval :     1603.95  1614.71  1615.37  2364.50  3069.16  3069.17
eigval :     3070.04  3070.06  3071.28  3071.29  3072.16  3072.17
eigval :     3075.60  3075.61  3078.57  3078.66  3079.70  3079.71
eigval :     3079.82  3079.83  3083.35  3083.36  3084.66  3084.72
eigval :     3089.77  3089.79  3090.70  3090.72  3091.26  3091.29
eigval :     3091.46  3091.69  3091.70  3093.33  3093.38  3094.71
eigval :     3094.75  3102.16  3107.56

   temp. (K)  partition function   enthalpy   heat capacity  entropy
                                   cal/mol     cal/K/mol   cal/K/mol   J/K/mol
 298.15  VIB  0.616E+22            27036.872    169.127    169.899
         ROT  0.981E+08              888.752      2.981     39.549
         INT  0.604E+30            27925.624    172.107    209.449
         TR   0.194E+29             1481.254      4.968     45.655
         TOT                       29406.8779   177.0756   255.1033  1067.3522

       T/K    H(0)-H(T)+PV         H(T)/Eh          T*S/Eh         G(T)/Eh
   ------------------------------------------------------------------------
    298.15    0.468628E-01    0.759059E+00    0.121208E+00    0.637851E+00
   ------------------------------------------------------------------------

         :::::::::::::::::::::::::::::::::::::::::::::::::::::
         ::                  THERMODYNAMIC                  ::
         :::::::::::::::::::::::::::::::::::::::::::::::::::::
         :: total free energy        -143.780489687145 Eh   ::
         ::.................................................::
         :: total energy             -144.418340834019 Eh   ::
         :: zero point energy           0.712196117432 Eh   ::
         :: G(RRHO) w/o ZPVE           -0.074344970559 Eh   ::
         :: G(RRHO) contrib.            0.637851146874 Eh   ::
         :::::::::::::::::::::::::::::::::::::::::::::::::::::

           -------------------------------------------------
          | TOTAL ENERGY             -144.418340834019 Eh   |
          | TOTAL ENTHALPY           -143.659281873683 Eh   |
          | TOTAL FREE ENERGY        -143.780489687145 Eh   |
          | GRADIENT NORM               0.000040422689 Eh/α |
          | HOMO-LUMO GAP               2.184026171635 eV   |
           -------------------------------------------------

 * finished run on 2025/07/20 at 05:53:03.282
