   * xtb version 6.7.1 (edcfbbe) compiled by 'albert@albert-system' on 2024-07-22

   ID    Z sym.   atoms
    1    7 N      1, 5, 34
    2    6 C      2-4, 6-33, 35-58
    3    1 H      59-93

          program call               : xtb data2507/gas/2PCzBN/2PCzBN_gas_S0_crest.xyz --gfn 2 --ohess vtight --parallel 40 --molden --ceasefiles --namespace data2507/gas/2PCzBN/2PCzBN_gas_S0_finalOpt
          :  Hamiltonian                  GFN2-xTB          :
 * total energy  :  -144.4195467 Eh     change       -0.2297668E-08 Eh
 * total energy  :  -144.4195473 Eh     change       -0.5927736E-06 Eh
 * total energy  :  -144.4195490 Eh     change       -0.1744279E-05 Eh
 * total energy  :  -144.4195498 Eh     change       -0.7895086E-06 Eh
 * total energy  :  -144.4195509 Eh     change       -0.1059150E-05 Eh
 * total energy  :  -144.4195519 Eh     change       -0.1016276E-05 Eh
 * total energy  :  -144.4195530 Eh     change       -0.1092925E-05 Eh
 * total energy  :  -144.4195542 Eh     change       -0.1214979E-05 Eh
 * total energy  :  -144.4195553 Eh     change       -0.1053373E-05 Eh
 * total energy  :  -144.4195560 Eh     change       -0.7320980E-06 Eh
 * total energy  :  -144.4195685 Eh     change       -0.1826731E-06 Eh
 * total energy  :  -144.4195687 Eh     change       -0.1532377E-06 Eh
 * total energy  :  -144.4195689 Eh     change       -0.1973865E-06 Eh
 * total energy  :  -144.4195691 Eh     change       -0.2717173E-06 Eh
 * total energy  :  -144.4195695 Eh     change       -0.3188890E-06 Eh
 * total energy  :  -144.4195698 Eh     change       -0.3597002E-06 Eh
 * total energy  :  -144.4195702 Eh     change       -0.3489748E-06 Eh
 * total energy  :  -144.4195705 Eh     change       -0.3165509E-06 Eh
 * total energy  :  -144.4195705 Eh     change       -0.1841499E-08 Eh
   *** GEOMETRY OPTIMIZATION CONVERGED AFTER 44 ITERATIONS ***

 final structure:
================
93
 xtb: 6.7.1 (edcfbbe)
N           -0.00735469887366        0.52003616076446        1.15646348188391
C           -0.00359748545872       -0.04168257428144        0.15680824388949
C            0.00015816879898       -0.80059759989153       -1.03521356565306
C            1.21873138073427       -1.22750298433111       -1.59202126114765
N            2.42834569862039       -0.79464445584641       -1.05363068999012
C            3.47518508072029       -1.61518710896118       -0.66870291114959
C            3.57153536334343       -2.99795428075055       -0.68648758083617
C            4.73227511919890       -3.57191375501265       -0.20777825411524
C            5.79239836670521       -2.80335652043983        0.28922851570306
C            7.01486042213218       -3.46093165067820        0.77543469187741
C            8.26881457782055       -2.93396259574505        0.47457154313684
C            9.41987018382234       -3.55122929319925        0.92699897743679
C            9.33819176312986       -4.70290582233799        1.69157717846488
C            8.09695123594831       -5.23371984154626        2.00001423102826
C            6.94498181771460       -4.62008904183270        1.54463908682592
C            5.67834928817698       -1.41905619020155        0.32586371131346
C            4.51953981124888       -0.82279313863323       -0.14423734200793
C            4.07987016345847        0.54399664925662       -0.22781416524981
C            4.67261329775403        1.75185876030607        0.10325368539552
C            3.97993322827960        2.93292527684505       -0.12989143044512
C            4.57498787466540        4.22920045398951        0.22873251650394
C            3.80207326590349        5.22251535341565        0.82564816779544
C            4.36141299303131        6.43969355326795        1.16685716002062
C            5.70019330609596        6.68714358319610        0.91354727630411
C            6.47759274989741        5.70739132760752        0.31915790509130
C            5.92109955671510        4.48783810684465       -0.01846984239696
C            2.71193672049743        2.88600934516750       -0.72270438638161
C            2.10971511585828        1.69430970893548       -1.06920025570556
C            2.78627794585145        0.51745010973306       -0.79143718131553
C            1.20675716512664       -2.10410844334361       -2.67227870080102
C            0.00586172185489       -2.54458021602884       -3.19896635993197
C           -1.19795931425877       -2.10567871930680       -2.67750227389940
C           -1.21542602429388       -1.22841736810189       -1.59803575410351
N           -2.42747543560781       -0.79489062617083       -1.06558292581685
C           -2.78569696876765        0.51785774027548       -0.80755406340632
C           -2.10820299146838        1.69361856720163       -1.08759355199595
C           -2.71134051738283        2.88653211887544       -0.74707991878403
C           -3.98092002869031        2.93545700856302       -0.15781997946946
C           -4.57750653163467        4.23329761944440        0.19248310032179
C           -5.92283372075908        4.49014520231629       -0.06083363164616
C           -6.48062288206105        5.71158324816196        0.26776885452961
C           -5.70540830879460        6.69492520584928        0.85910270360321
C           -4.36750289976680        6.44915848712797        1.11863915975236
C           -3.80680692107910        5.23011099556347        0.78644183507315
C           -4.67394410358661        1.75522565897034        0.07853838159438
C           -4.08057381703227        0.54616703935734       -0.24704720626186
C           -4.51896115013625       -0.82066632752349       -0.15728146392556
C           -5.67560137592711       -1.41619305230629        0.31918096441282
C           -5.79356754825213       -2.79991230957224        0.27684443506246
C           -7.01380212869765       -3.45811487104644        0.76773971277460
C           -7.57505521551812       -4.52676197444582        0.07251370086322
C           -8.72363298437235       -5.14224834902252        0.53388687750737
C           -9.32869551211340       -4.70392215032671        1.69977829458724
C           -8.77855288985415       -3.64353388893130        2.40023032367110
C           -7.63263138216412       -3.02403521786863        1.93785041554100
C           -4.73660664312801       -3.56941753074503       -0.22571867119564
C           -3.57242549002921       -2.99707263624454       -0.69775993301458
C           -3.47481676588724       -1.61434504712318       -0.68018724800768
H            2.76477066393309       -3.61487383986903       -1.05341107710399
H            4.83452580369441       -4.64665481641659       -0.23302874343847
H            8.33910794355427       -2.04492163384189       -0.13551614296594
H           10.38557076651237       -3.13387728361676        0.68050629161093
H           10.23773186142597       -5.18425877035417        2.04595549883104
H            8.02665447378021       -6.12912630520891        2.60068249074361
H            5.97940270201568       -5.02925260590811        1.80465698181126
H            6.47093374612125       -0.81527075015804        0.74095245214023
H            5.65285343849009        1.77093141493644        0.55479407359820
H            2.76196793903322        5.02734170008824        1.04265356601882
H            3.75129849712170        7.19855592301038        1.63519149602613
H            6.13611424815592        7.63911037630842        1.17871012645411
H            7.52201302546638        5.89594722452260        0.11602992025638
H            6.52877434397581        3.73348081121677       -0.49731685609455
H            2.20164391961820        3.81314472422939       -0.93663479645373
H            1.14465852551371        1.69187136153598       -1.55225466823605
H            2.14426045224253       -2.41980975496850       -3.10283794119695
H            0.00821504548929       -3.21966677491145       -4.04116518254773
H           -2.13327690677216       -2.42270557581958       -3.11179341751557
H           -1.14195356665865        1.68918372146913       -1.56830071426573
H           -2.20072626439193        3.81294898797876       -0.96334213811349
H           -6.52867349939450        3.73293051262832       -0.53750943115435
H           -7.52432443120734        5.89877100886195        0.05976770577863
H           -6.14232923718976        7.64843536240764        1.11697898245711
H           -3.75911227462761        7.21086244995205        1.58460798686954
H           -2.76740062660042        5.03640331058762        1.00811601370983
H           -5.65572855632105        1.77613193938984        0.52663401323320
H           -6.48106078973437       -0.80916123881946        0.70355273211889
H           -7.11751629638031       -4.86280970731348       -0.84694773439474
H           -9.15046275441523       -5.96650189341968       -0.01929954861815
H          -10.22474479272232       -5.18675784434620        2.06093897705074
H           -9.24368659119819       -3.29976256333321        3.31286450518280
H           -7.19797484884230       -2.20902224017349        2.49827314358102
H           -4.82671781251773       -4.64555098287620       -0.21902450944221
H           -2.76185800007264       -3.61490327509601       -1.05475546264452

          :  Hamiltonian                  GFN2-xTB          :
         :: gradient norm              0.000042593567 Eh/a0 ::
         :: HOMO-LUMO gap              2.201556484174 eV    ::
         :: SCC energy              -147.239520998163 Eh    ::
         :: -> dispersion             -0.132737163231 Eh    ::
         :: repulsion energy           2.819950510256 Eh    ::

    * Orbital Energies and Occupations

         #    Occupation            Energy/Eh            Energy/eV
      -------------------------------------------------------------
         1        2.0000           -0.6930079             -18.8577
       ...           ...                  ...                  ...
       123        2.0000           -0.4105107             -11.1706
       124        2.0000           -0.4026762             -10.9574
       125        2.0000           -0.4026028             -10.9554
       126        2.0000           -0.4012302             -10.9180
       127        2.0000           -0.4002468             -10.8913
       128        2.0000           -0.4002182             -10.8905
       129        2.0000           -0.3994106             -10.8685
       130        2.0000           -0.3920131             -10.6672
       131        2.0000           -0.3914958             -10.6531
       132        2.0000           -0.3796258             -10.3301
       133        2.0000           -0.3795509             -10.3281
       134        2.0000           -0.3657496              -9.9526
       135        2.0000           -0.3635876              -9.8937 (HOMO)
       136                         -0.2826818              -7.6922 (LUMO)
       137                         -0.2600553              -7.0765
       138                         -0.2486755              -6.7668
       139                         -0.2472581              -6.7282
       140                         -0.2445785              -6.6553
       141                         -0.2444903              -6.6529
       142                         -0.2326793              -6.3315
       143                         -0.2297389              -6.2515
       144                         -0.2206143              -6.0032
       145                         -0.2205458              -6.0014
       146                         -0.2181675              -5.9366
       ...                                ...                  ...
       267                          1.1648849              31.6981
      -------------------------------------------------------------
                  HL-Gap            0.0809057 Eh            2.2016 eV

     #   Z          covCN         q      C6AA      α(0)
     1   7 N        0.911    -0.236    26.165     7.398
     2   6 C        1.909     0.120    28.146     8.568
     3   6 C        2.975    -0.012    28.302     8.726
     4   6 C        2.917     0.074    26.339     8.416
     5   7 N        2.802    -0.045    22.106     6.983
     6   6 C        3.072     0.046    26.907     8.505
     7   6 C        2.908    -0.051    29.270     8.871
     8   6 C        2.929    -0.037    28.923     8.820
     9   6 C        2.977     0.001    27.990     8.678
    10   6 C        2.977     0.011    27.772     8.644
    11   6 C        2.925    -0.034    28.857     8.809
    12   6 C        2.918    -0.030    28.742     8.792
    13   6 C        2.920    -0.032    28.787     8.798
    14   6 C        2.919    -0.030    28.741     8.791
    15   6 C        2.925    -0.034    28.855     8.809
    16   6 C        2.918    -0.036    28.904     8.816
    17   6 C        3.065    -0.014    28.294     8.722
    18   6 C        3.065    -0.014    28.300     8.723
    19   6 C        2.918    -0.036    28.891     8.814
    20   6 C        2.977     0.003    27.950     8.672
    21   6 C        2.978     0.011    27.762     8.643
    22   6 C        2.925    -0.034    28.843     8.807
    23   6 C        2.919    -0.029    28.736     8.791
    24   6 C        2.920    -0.032    28.791     8.799
    25   6 C        2.918    -0.030    28.749     8.793
    26   6 C        2.925    -0.035    28.861     8.810
    27   6 C        2.930    -0.034    28.846     8.808
    28   6 C        2.909    -0.044    29.101     8.846
    29   6 C        3.071     0.047    26.865     8.499
    30   6 C        2.920    -0.048    29.193     8.860
    31   6 C        2.917    -0.023    28.580     8.767
    32   6 C        2.920    -0.048    29.192     8.860
    33   6 C        2.917     0.074    26.339     8.416
    34   7 N        2.802    -0.045    22.106     6.983
    35   6 C        3.071     0.047    26.865     8.499
    36   6 C        2.909    -0.044    29.101     8.846
    37   6 C        2.930    -0.034    28.847     8.808
    38   6 C        2.977     0.003    27.950     8.672
    39   6 C        2.978     0.011    27.762     8.643
    40   6 C        2.925    -0.035    28.861     8.810
    41   6 C        2.918    -0.030    28.748     8.792
    42   6 C        2.920    -0.032    28.791     8.799
    43   6 C        2.919    -0.030    28.737     8.791
    44   6 C        2.925    -0.034    28.844     8.807
    45   6 C        2.918    -0.036    28.890     8.814
    46   6 C        3.065    -0.014    28.300     8.723
    47   6 C        3.065    -0.014    28.294     8.722
    48   6 C        2.918    -0.036    28.905     8.816
    49   6 C        2.977     0.001    27.991     8.678
    50   6 C        2.977     0.011    27.773     8.645
    51   6 C        2.925    -0.035    28.864     8.810
    52   6 C        2.918    -0.030    28.748     8.792
    53   6 C        2.920    -0.032    28.788     8.799
    54   6 C        2.919    -0.030    28.737     8.791
    55   6 C        2.925    -0.034    28.851     8.809
    56   6 C        2.929    -0.037    28.922     8.820
    57   6 C        2.908    -0.051    29.270     8.871
    58   6 C        3.072     0.046    26.906     8.505
    59   1 H        0.926     0.026     2.639     2.541
    60   1 H        0.926     0.034     2.526     2.486
    61   1 H        0.926     0.030     2.584     2.514
    62   1 H        0.926     0.029     2.602     2.523
    63   1 H        0.926     0.029     2.605     2.524
    64   1 H        0.926     0.029     2.603     2.523
    65   1 H        0.926     0.030     2.584     2.514
    66   1 H        0.926     0.037     2.490     2.468
    67   1 H        0.926     0.037     2.487     2.466
    68   1 H        0.926     0.033     2.539     2.492
    69   1 H        0.926     0.029     2.596     2.519
    70   1 H        0.926     0.028     2.611     2.527
    71   1 H        0.926     0.028     2.612     2.527
    72   1 H        0.926     0.029     2.597     2.520
    73   1 H        0.926     0.037     2.495     2.470
    74   1 H        0.926     0.021     2.721     2.580
    75   1 H        0.926     0.050     2.319     2.382
    76   1 H        0.926     0.047     2.358     2.401
    77   1 H        0.926     0.050     2.320     2.382
    78   1 H        0.926     0.021     2.723     2.581
    79   1 H        0.926     0.037     2.495     2.470
    80   1 H        0.926     0.029     2.595     2.519
    81   1 H        0.926     0.028     2.612     2.527
    82   1 H        0.926     0.028     2.611     2.527
    83   1 H        0.926     0.029     2.596     2.520
    84   1 H        0.926     0.033     2.539     2.492
    85   1 H        0.926     0.037     2.488     2.466
    86   1 H        0.926     0.037     2.490     2.468
    87   1 H        0.926     0.029     2.600     2.521
    88   1 H        0.926     0.028     2.610     2.526
    89   1 H        0.926     0.029     2.606     2.524
    90   1 H        0.926     0.029     2.595     2.519
    91   1 H        0.926     0.032     2.564     2.504
    92   1 H        0.926     0.034     2.527     2.486
    93   1 H        0.926     0.026     2.640     2.541

molecular dipole:
                 x           y           z       tot (Debye)
 q only:        0.006      -0.550      -1.065
   full:        0.007      -0.875      -1.502       4.418

 projected vibrational frequencies (cm⁻¹)
eigval :       -0.00    -0.00    -0.00     0.00     0.00     0.00
eigval :        7.97     9.55    11.12    23.50    34.57    36.01
eigval :       37.89    39.47    39.78    42.34    43.22    52.06
eigval :       58.49    61.20    75.45    77.34    83.04    91.06
eigval :      104.10   117.97   125.41   126.15   133.33   150.93
eigval :      154.82   164.91   180.87   189.35   208.46   219.43
eigval :      221.10   232.40   246.36   252.10   268.42   277.59
eigval :      287.82   296.86   305.84   317.44   327.81   346.17
eigval :      358.83   372.17   372.31   373.01   373.06   377.69
eigval :      386.81   395.57   396.53   397.91   404.38   428.91
eigval :      434.20   437.07   446.37   474.81   477.01   481.99
eigval :      487.28   501.58   503.31   525.85   529.02   544.79
eigval :      555.80   557.84   567.93   571.07   580.27   586.68
eigval :      587.05   589.73   592.06   595.38   604.21   609.20
eigval :      618.16   624.83   625.65   633.06   641.96   667.34
eigval :      669.43   672.48   673.88   682.78   685.42   685.70
eigval :      689.95   707.05   707.23   718.81   740.49   740.83
eigval :      752.45   757.70   758.77   759.33   765.88   772.90
eigval :      808.76   812.42   822.96   824.25   828.20   857.47
eigval :      864.71   870.78   873.19   873.63   874.48   878.95
eigval :      880.32   880.70   881.88   896.49   900.66   901.71
eigval :      901.90   902.31   904.28   906.29   907.79   911.60
eigval :      912.03   914.82   916.48   930.35   930.62   930.70
eigval :      930.96   931.36   932.26   932.34   932.36   932.46
eigval :      972.35   972.44   981.55   982.38  1025.79  1027.94
eigval :     1037.79  1072.30  1072.73  1073.53  1075.07  1086.56
eigval :     1086.87  1087.18  1087.24  1104.69  1121.82  1122.04
eigval :     1122.16  1122.19  1132.18  1152.84  1159.66  1162.26
eigval :     1182.59  1182.64  1182.65  1182.80  1185.71  1193.12
eigval :     1193.66  1201.22  1201.41  1203.61  1204.35  1213.59
eigval :     1219.34  1221.96  1224.38  1227.60  1242.73  1251.33
eigval :     1280.05  1280.35  1281.87  1281.94  1282.22  1282.28
eigval :     1297.74  1304.21  1306.67  1307.60  1308.82  1319.32
eigval :     1319.37  1320.18  1320.89  1344.70  1347.64  1351.00
eigval :     1357.64  1360.36  1386.30  1408.40  1408.95  1427.10
eigval :     1428.45  1431.03  1431.10  1433.65  1434.07  1453.17
eigval :     1454.86  1461.60  1462.46  1468.03  1468.97  1494.86
eigval :     1495.07  1497.65  1497.68  1550.28  1562.05  1566.97
eigval :     1569.82  1576.80  1577.42  1583.22  1583.27  1585.11
eigval :     1585.41  1595.37  1595.72  1598.57  1598.90  1603.99
eigval :     1604.19  1614.83  1615.76  2364.31  3069.50  3069.57
eigval :     3069.71  3070.16  3071.45  3071.81  3072.01  3072.11
eigval :     3077.88  3078.35  3079.79  3079.91  3079.92  3079.99
eigval :     3080.82  3082.85  3083.65  3083.80  3084.55  3085.22
eigval :     3090.08  3090.17  3090.99  3091.30  3091.33  3091.42
eigval :     3091.55  3091.95  3092.25  3093.53  3093.82  3094.76
eigval :     3095.66  3103.85  3108.61

   temp. (K)  partition function   enthalpy   heat capacity  entropy
                                   cal/mol     cal/K/mol   cal/K/mol   J/K/mol
 298.15  VIB  0.457E+22            27017.069    169.194    169.503
         ROT  0.193E+09              888.752      2.981     40.898
         INT  0.884E+30            27905.821    172.175    210.401
         TR   0.194E+29             1481.254      4.968     45.655
         TOT                       29387.0749   177.1427   256.0559  1071.3380

       T/K    H(0)-H(T)+PV         H(T)/Eh          T*S/Eh         G(T)/Eh
   ------------------------------------------------------------------------
    298.15    0.468313E-01    0.759084E+00    0.121660E+00    0.637423E+00
   ------------------------------------------------------------------------

         :::::::::::::::::::::::::::::::::::::::::::::::::::::
         ::                  THERMODYNAMIC                  ::
         :::::::::::::::::::::::::::::::::::::::::::::::::::::
         :: total free energy        -143.782147069241 Eh   ::
         ::.................................................::
         :: total energy             -144.419570487907 Eh   ::
         :: zero point energy           0.712252565074 Eh   ::
         :: G(RRHO) w/o ZPVE           -0.074829146409 Eh   ::
         :: G(RRHO) contrib.            0.637423418666 Eh   ::
         :::::::::::::::::::::::::::::::::::::::::::::::::::::

           -------------------------------------------------
          | TOTAL ENERGY             -144.419570487907 Eh   |
          | TOTAL ENTHALPY           -143.660486637977 Eh   |
          | TOTAL FREE ENERGY        -143.782147069241 Eh   |
          | GRADIENT NORM               0.000042530789 Eh/α |
          | HOMO-LUMO GAP               2.201557081813 eV   |
           -------------------------------------------------

 * finished run on 2025/07/20 at 06:00:53.038
