   * xtb version 6.7.1 (edcfbbe) compiled by 'albert@albert-system' on 2024-07-22

   ID    Z sym.   atoms
    1    7 N      1, 5, 34
    2    6 C      2-4, 6-33, 35-58
    3    1 H      59-93

          program call               : xtb data2507/gas/2PCzBN/2PCzBN_gas_S0_finalOpt.xtbopt.xyz --gfn 2 --spinpol --tblite --uhf 2 --ohess vtight --parallel 40 --molden --ceasefiles --namespace data2507/gas/2PCzBN/2PCzBN_gas_T1_preOpt
 * total energy  :  -144.3211161 Eh     change       -0.1922098E-07 Eh
 * total energy  :  -144.3237633 Eh     change       -0.2647139E-02 Eh
 * total energy  :  -144.3248237 Eh     change       -0.1060412E-02 Eh
 * total energy  :  -144.3250126 Eh     change       -0.1888845E-03 Eh
 * total energy  :  -144.3251334 Eh     change       -0.1208665E-03 Eh
 * total energy  :  -144.3251872 Eh     change       -0.5373761E-04 Eh
 * total energy  :  -144.3252322 Eh     change       -0.4502014E-04 Eh
 * total energy  :  -144.3252502 Eh     change       -0.1801854E-04 Eh
 * total energy  :  -144.3252574 Eh     change       -0.7222971E-05 Eh
 * total energy  :  -144.3252617 Eh     change       -0.4232935E-05 Eh
 * total energy  :  -144.3252755 Eh     change       -0.3035171E-05 Eh
 * total energy  :  -144.3252781 Eh     change       -0.2560987E-05 Eh
 * total energy  :  -144.3252791 Eh     change       -0.1041159E-05 Eh
 * total energy  :  -144.3252798 Eh     change       -0.7188043E-06 Eh
 * total energy  :  -144.3252804 Eh     change       -0.5898567E-06 Eh
 * total energy  :  -144.3252807 Eh     change       -0.2291497E-06 Eh
 * total energy  :  -144.3252811 Eh     change       -0.3978135E-06 Eh
 * total energy  :  -144.3252813 Eh     change       -0.2941898E-06 Eh
 * total energy  :  -144.3252814 Eh     change       -0.4022610E-07 Eh
   *** GEOMETRY OPTIMIZATION CONVERGED AFTER 22 ITERATIONS ***

 final structure:
================
93
 xtb: 6.7.1 (edcfbbe)
N           -0.00135125800269        0.52426373300219        1.18532957111164
C            0.00051145134318       -0.09132663588756        0.19658133174054
C            0.00165805111650       -0.75477543747641       -1.00607789305440
C            1.23730206227546       -1.22374010786818       -1.60640894909759
N            2.44936706778590       -0.79112770989788       -1.06634223166556
C            3.48562435203628       -1.60961560239655       -0.67372965820483
C            3.57495958773680       -2.99544089750976       -0.68257009237992
C            4.73185943244149       -3.57478375954142       -0.20317375683371
C            5.80217029434335       -2.80824076861148        0.28304946837683
C            7.01961071184891       -3.46575729745768        0.77012171809101
C            8.27598940202538       -2.92487304022616        0.49670583885278
C            9.42447151343703       -3.54454887268625        0.95034342916791
C            9.34073781105979       -4.71168136671080        1.69188522058906
C            8.09858196983325       -5.25610037273014        1.97442954511358
C            6.94883560070469       -4.64228396838538        1.51581715130332
C            5.69615779842698       -1.41776717467387        0.31112532155212
C            4.54116342949637       -0.81835119599533       -0.15331192382949
C            4.10077583086224        0.54893982756208       -0.23944882635059
C            4.68258836402625        1.75697836235102        0.09375967449122
C            3.97967856027002        2.93838893373079       -0.14075921596936
C            4.56580608109350        4.23306717512272        0.22251717623078
C            3.77697117814780        5.23615842805503        0.78546440356377
C            4.32902123544478        6.45437757454810        1.13220055004634
C            5.67585768262950        6.69688167779008        0.91661246255254
C            6.46907836910208        5.70923770236146        0.35587338492391
C            5.92134966394737        4.48723485570227        0.01536391434638
C            2.71080023834627        2.88405864466624       -0.73715403778763
C            2.11970195246915        1.68965092420001       -1.08880420400042
C            2.80476353471731        0.51395435299292       -0.81220243359731
C            1.21210983310427       -2.11647571121369       -2.64775241028393
C            0.00210217561195       -2.57123945983858       -3.18569558481248
C           -1.20822747486510       -2.11651009356255       -2.64824918450948
C           -1.23358886569226       -1.22300671776837       -1.60764927385576
N           -2.44572792795178       -0.78876335493656       -1.06902638978197
C           -2.80176828116910        0.51709744501852       -0.81971291440287
C           -2.11614505836488        1.69194320702017       -1.09817488543364
C           -2.70878852191033        2.88746514165991       -0.75277252931011
C           -3.97928844767880        2.94352405608599       -0.16013687680570
C           -4.56731146285917        4.23928610218319        0.19626168678387
C           -5.92310922828254        4.49061040807301       -0.01283410740706
C           -6.47270224428797        5.71342057323209        0.32179099996794
C           -5.68116321261242        6.70485792007486        0.87819361465973
C           -4.33406386390143        6.46531387014360        1.09541418490013
C           -3.78018564023932        5.24619304669062        0.75481435024668
C           -4.68207173658554        1.76260559918850        0.07737544378361
C           -4.09930633032281        0.55359837344993       -0.25058422301034
C           -4.53748593961296       -0.81392155113874       -0.15628655697054
C           -5.68984607352324       -1.41289119060465        0.31524209755426
C           -5.80079652240965       -2.80271819124497        0.27826711015822
C           -7.01919584351579       -3.46124443093550        0.76077136195061
C           -7.54468524356873       -4.56698709402893        0.09208213503593
C           -8.69461003462555       -5.18419673941477        0.54542311019695
C           -9.33826265909287       -4.71431791119697        1.67861992639779
C           -8.82454730089138       -3.61891887586648        2.35354932734719
C           -7.67873729366053       -2.99551167034471        1.89834953381960
C           -4.73281234832766       -3.57004097591336       -0.21298502959813
C           -3.57174496643554       -2.99207639052620       -0.68314606426390
C           -3.48186959540464       -1.60616756091274       -0.67475978126782
H            2.76102492026288       -3.60493672299293       -1.04406854668824
H            4.82649804144543       -4.64995973915526       -0.22050159982854
H            8.34988058219881       -2.02559533438494       -0.09747027715335
H           10.39054785365900       -3.11747745729747        0.72309468835740
H           10.23876107520122       -5.19409673724200        2.04825653047382
H            8.02669336831178       -6.16267120561853        2.55767647374898
H            5.98336548702255       -5.06153528728672        1.75837135638252
H            6.49416923156347       -0.81850742300773        0.72255608160915
H            5.65863615364853        1.78426241775209        0.55408880637339
H            2.73137455864917        5.04445023678269        0.97597863845262
H            3.70738517762480        7.21877730145984        1.57539058405091
H            6.10565054775336        7.65061055504049        1.18490744861217
H            7.51917860100050        5.89440418236821        0.18157875696070
H            6.54203643074394        3.72878313887558       -0.43932023549887
H            2.19649990195731        3.80845590118054       -0.95171269452835
H            1.15613049365455        1.67363714418009       -1.57201401033518
H            2.14553612315031       -2.43613636298655       -3.08820518417394
H            0.00236735233033       -3.23001789022096       -4.03741340655388
H           -2.14159684091523       -2.43621161658289       -3.08877393166068
H           -1.15069642288695        1.67446081514365       -1.57757637001417
H           -2.19418561111372        3.81119376430811       -0.96946176046429
H           -6.54258961811715        3.72931248101879       -0.46439954855172
H           -7.52300972566479        5.89615551736790        0.14622074726194
H           -6.11242251689209        7.65922893717638        1.14180880648015
H           -3.71363326741601        7.23274180032769        1.53504920366667
H           -2.73439792870307        5.05700909756823        0.94679355762811
H           -5.65975514352706        1.79123950321788        0.53411746970252
H           -6.50290938903240       -0.81028580355071        0.69065915320543
H           -7.05952083822495       -4.92726590180088       -0.80338238963088
H           -9.09315049974654       -6.03500041593196        0.01192456455364
H          -10.23514252672914       -5.19951996030073        2.03409145881724
H           -9.31881023506640       -3.25144930560596        3.24119082450328
H           -7.27242663631664       -2.15549495272189        2.44253079506015
H           -4.81345776107762       -4.64635370712701       -0.19392239527899
H           -2.75226200996891       -3.60171930587757       -1.03196356088887

 projected vibrational frequencies (cm⁻¹)
eigval :       -0.00    -0.00     0.00     0.00     0.00     0.00
eigval :        7.09     9.15     9.95    22.85    33.95    34.00
eigval :       37.52    39.04    39.58    42.60    42.98    51.27
eigval :       56.92    60.78    68.74    76.98    83.16    92.45
eigval :      101.05   113.44   116.60   123.62   129.71   147.61
eigval :      151.40   164.32   177.61   185.19   210.19   211.02
eigval :      218.53   234.07   242.05   249.07   264.32   274.77
eigval :      285.54   291.24   304.26   314.82   320.27   343.47
eigval :      354.53   358.07   370.25   370.82   371.43   371.86
eigval :      374.54   379.31   388.25   391.43   394.12   413.45
eigval :      422.66   429.46   439.56   457.66   473.89   475.00
eigval :      477.02   486.66   495.80   497.42   504.27   522.05
eigval :      552.35   553.98   556.04   565.70   578.85   579.91
eigval :      585.83   586.64   590.81   591.79   594.74   599.37
eigval :      609.20   619.83   622.54   624.57   630.04   634.81
eigval :      665.49   667.09   670.59   671.74   680.53   686.17
eigval :      686.59   705.00   705.06   708.29   714.37   733.98
eigval :      735.22   747.34   747.93   756.48   756.91   757.47
eigval :      759.47   809.70   820.60   822.65   822.97   852.13
eigval :      856.04   861.11   864.60   866.62   867.31   868.67
eigval :      875.42   875.73   876.86   877.38   884.05   889.84
eigval :      898.10   900.86   901.21   901.55   904.17   905.38
eigval :      905.99   908.81   911.08   912.97   929.51   929.62
eigval :      929.77   930.03   930.79   930.82   931.26   931.38
eigval :      969.73   969.79   975.09   979.50  1008.67  1019.66
eigval :     1023.80  1029.22  1064.97  1066.34  1067.57  1069.97
eigval :     1072.82  1085.01  1085.18  1085.47  1085.51  1115.77
eigval :     1121.40  1121.77  1122.24  1122.50  1136.97  1143.11
eigval :     1147.68  1181.57  1181.65  1181.70  1181.84  1186.19
eigval :     1187.08  1198.09  1198.55  1201.47  1201.76  1204.73
eigval :     1215.50  1217.31  1219.27  1228.07  1237.29  1241.67
eigval :     1252.39  1265.97  1271.00  1278.96  1279.53  1281.04
eigval :     1281.17  1281.90  1282.13  1285.94  1292.55  1315.50
eigval :     1320.03  1320.17  1320.26  1322.10  1329.32  1331.24
eigval :     1331.43  1350.52  1353.74  1368.54  1368.62  1403.81
eigval :     1405.37  1423.80  1427.39  1428.85  1429.03  1431.11
eigval :     1433.39  1446.90  1447.33  1464.57  1465.55  1472.40
eigval :     1481.59  1483.90  1484.29  1487.41  1492.04  1535.19
eigval :     1535.44  1540.11  1547.81  1550.89  1558.19  1567.28
eigval :     1569.46  1574.68  1575.20  1576.32  1576.73  1594.99
eigval :     1595.40  1596.11  1598.26  2150.35  3071.76  3071.86
eigval :     3072.09  3072.23  3073.76  3073.86  3074.60  3074.71
eigval :     3077.19  3077.58  3082.15  3082.33  3082.41  3082.47
eigval :     3085.36  3085.51  3087.14  3087.35  3087.42  3088.26
eigval :     3089.68  3089.87  3091.30  3092.09  3092.51  3092.58
eigval :     3093.06  3093.39  3093.40  3094.20  3097.59  3098.47
eigval :     3104.07  3106.36  3114.50

   temp. (K)  partition function   enthalpy   heat capacity  entropy
                                   cal/mol     cal/K/mol   cal/K/mol   J/K/mol
 298.15  VIB  0.128E+23            27410.774    171.271    172.226
         ROT  0.194E+09              888.752      2.981     40.902
         INT  0.249E+31            28299.527    174.251    213.127
         TR   0.194E+29             1481.254      4.968     45.655
         TOT                       29780.7808   179.2196   258.7821  1082.7442

       T/K    H(0)-H(T)+PV         H(T)/Eh          T*S/Eh         G(T)/Eh
   ------------------------------------------------------------------------
    298.15    0.474587E-01    0.754014E+00    0.122956E+00    0.631059E+00
   ------------------------------------------------------------------------

         :::::::::::::::::::::::::::::::::::::::::::::::::::::
         ::                  THERMODYNAMIC                  ::
         :::::::::::::::::::::::::::::::::::::::::::::::::::::
         :: total free energy        -143.694222480043 Eh   ::
         ::.................................................::
         :: total energy             -144.325281260552 Eh   ::
         :: zero point energy           0.706555798572 Eh   ::
         :: G(RRHO) w/o ZPVE           -0.075497018063 Eh   ::
         :: G(RRHO) contrib.            0.631058780509 Eh   ::
         :::::::::::::::::::::::::::::::::::::::::::::::::::::

           -------------------------------------------------
          | TOTAL ENERGY             -144.325281260552 Eh   |
          | TOTAL ENTHALPY           -143.571266766942 Eh   |
          | TOTAL FREE ENERGY        -143.694222480043 Eh   |
          | GRADIENT NORM               0.000144865027 Eh/α |
           -------------------------------------------------

 * finished run on 2025/07/20 at 06:01:05.447
