   * xtb version 6.7.1 (edcfbbe) compiled by 'albert@albert-system' on 2024-07-22

   ID    Z sym.   atoms
    1    6 C      1-13, 15-21, 23-28
    2    7 N      14
    3    8 O      22
    4    1 H      29-47

          program call               : xtb data2507/gas/BACQ/BACQ_gas_T1_crest.xyz --gfn 2 --spinpol --tblite --uhf 2 --ohess vtight --parallel 40 --molden --ceasefiles --namespace data2507/gas/BACQ/BACQ_gas_T1_finalOpt
 * total energy  :   -72.3173346 Eh     change        0.6731270E-08 Eh
 * total energy  :   -72.3173536 Eh     change       -0.1895879E-04 Eh
 * total energy  :   -72.3173681 Eh     change       -0.1455918E-04 Eh
 * total energy  :   -72.3173717 Eh     change       -0.3598423E-05 Eh
 * total energy  :   -72.3173737 Eh     change       -0.1936827E-05 Eh
 * total energy  :   -72.3173742 Eh     change       -0.5053458E-06 Eh
 * total energy  :   -72.3173748 Eh     change       -0.5789210E-06 Eh
 * total energy  :   -72.3173754 Eh     change       -0.6029603E-06 Eh
 * total energy  :   -72.3173759 Eh     change       -0.5196922E-06 Eh
 * total energy  :   -72.3173764 Eh     change       -0.5171528E-06 Eh
 * total energy  :   -72.3173768 Eh     change       -0.4217320E-06 Eh
 * total energy  :   -72.3173771 Eh     change       -0.2761979E-06 Eh
 * total energy  :   -72.3173773 Eh     change       -0.1647094E-06 Eh
 * total energy  :   -72.3173773 Eh     change       -0.3820627E-07 Eh
   *** GEOMETRY OPTIMIZATION CONVERGED AFTER 14 ITERATIONS ***

 final structure:
================
47
 xtb: 6.7.1 (edcfbbe)
C            2.05669161248207       -2.76392928859510       -0.39102428447196
C            1.18866518775118       -1.75607531137896        0.40257104441027
C            1.32318059386306       -1.94752989388331        1.93265080142704
C            1.56100573972592       -0.33663359483449        0.02725143157011
C            0.53455215603334        0.59141558613868       -0.28203021066076
C            0.84344620475604        1.82338961003620       -0.89381744248599
C            2.13496912991009        2.19511550338403       -1.08834092442556
C            3.19776873850852        1.39598842540320       -0.58692141443436
C            4.51663061391386        1.84570213130660       -0.68078196804786
C            5.56662204459734        1.09570315855536       -0.18696242425801
C            5.29670386366384       -0.12114113550994        0.42579636929905
C            4.00704300417434       -0.59721756682672        0.51550917622727
C            2.90487511125396        0.12448361568382       -0.00669178599475
N           -0.78116702768397        0.28566726243284       -0.02881809016395
C           -1.72136147263705        1.27980300240654        0.23096692868886
C           -1.34564953957185        2.48512592880811        0.82205785779094
C           -2.27455794337005        3.48924678207098        1.02726508818173
C           -3.59993200811527        3.30254407519019        0.63958849196466
C           -4.00237279837414        2.09157813362900        0.12574230909039
C           -3.08581274265911        1.04479244391897       -0.05557604019927
C           -3.54539887566379       -0.26860989222501       -0.45501243735597
O           -4.72021659148864       -0.49163789711524       -0.81594205395723
C           -2.56371726531871       -1.32507007162051       -0.29880987379159
C           -2.95863792101964       -2.66254193193575       -0.39395551593096
C           -2.04092841971199       -3.67362194671285       -0.21204996837029
C           -0.70909597700834       -3.37627672327131        0.04152854026077
C           -0.26576448455732       -2.05685017624339        0.09568406537664
C           -1.19977914714203       -1.03525587069998       -0.05865753968117
H            2.98931538949565       -2.32067152159482       -0.72119345189128
H            1.52137089143141       -3.08472489689399       -1.28222612329882
H            2.28532115602748       -3.64040981235362        0.20964855115822
H            2.32868262972141       -1.74256328367993        2.28401152234486
H            0.64311380542007       -1.26774974835487        2.44379134164527
H            1.05424650936215       -2.96548682902385        2.20446773246699
H            0.03366568595997        2.44298580911039       -1.24838380486738
H            2.37228341406572        3.11129745325960       -1.60659067730868
H            4.70376781920179        2.80362486809639       -1.14400975315422
H            6.58090963657077        1.45659664212224       -0.26337734609135
H            6.10518448437809       -0.70348021972848        0.84322741743980
H            3.85648144796345       -1.53331820578622        1.02384376837605
H           -0.32312318856399        2.62566884819967        1.14081926807209
H           -1.96630744774645        4.41456832240797        1.48818235613528
H           -4.31509493084661        4.10092648958990        0.76835655004808
H           -5.03051926633395        1.90330796089148       -0.14146401414742
H           -3.99853749274783       -2.86537947597740       -0.59633989497881
H           -2.35666366364890       -4.70505084691335       -0.25903159860011
H           -0.01236406122192       -4.18362542478313        0.19628827139325

 projected vibrational frequencies (cm⁻¹)
eigval :       -0.00    -0.00    -0.00     0.00     0.00     0.00
eigval :       39.69    42.26    65.11    82.36    99.31   123.63
eigval :      142.65   150.52   157.57   168.80   194.66   200.58
eigval :      243.68   256.32   272.51   287.63   295.55   301.25
eigval :      320.71   342.20   356.41   374.76   381.37   406.94
eigval :      413.30   426.64   457.44   469.63   479.09   491.63
eigval :      502.21   523.40   533.97   548.25   560.72   564.24
eigval :      595.78   616.56   622.47   627.69   640.26   676.29
eigval :      695.64   700.87   713.87   729.87   755.67   762.67
eigval :      787.07   794.38   818.94   829.40   846.44   858.74
eigval :      863.44   878.59   892.43   897.61   898.15   911.15
eigval :      913.94   918.34   919.88   924.42   958.85   970.98
eigval :      989.99  1020.56  1038.59  1066.56  1081.07  1100.49
eigval :     1110.02  1121.89  1122.92  1131.04  1146.54  1169.00
eigval :     1177.58  1183.74  1186.75  1195.53  1208.53  1220.40
eigval :     1232.80  1235.55  1242.68  1250.67  1265.72  1293.47
eigval :     1317.71  1335.66  1341.21  1347.14  1361.38  1385.78
eigval :     1393.10  1400.08  1406.64  1411.25  1422.21  1426.61
eigval :     1442.89  1448.93  1483.67  1488.18  1497.55  1499.64
eigval :     1505.74  1514.75  1518.24  1528.36  1532.24  1537.40
eigval :     1557.77  1570.94  3022.99  3032.55  3036.01  3038.99
eigval :     3067.01  3076.05  3076.68  3079.13  3079.52  3085.14
eigval :     3085.23  3086.46  3095.85  3097.73  3101.07  3107.74
eigval :     3108.09  3114.29  3133.79

   temp. (K)  partition function   enthalpy   heat capacity  entropy
                                   cal/mol     cal/K/mol   cal/K/mol   J/K/mol
 298.15  VIB  0.111E+08            11996.617     84.003     70.046
         ROT  0.119E+08              888.752      2.981     35.350
         INT  0.132E+15            12885.369     86.984    105.396
         TR   0.665E+28             1481.254      4.968     43.528
         TOT                       14366.6231    91.9519   148.9245   623.1001

       T/K    H(0)-H(T)+PV         H(T)/Eh          T*S/Eh         G(T)/Eh
   ------------------------------------------------------------------------
    298.15    0.228947E-01    0.385781E+00    0.707588E-01    0.315023E+00
   ------------------------------------------------------------------------

         :::::::::::::::::::::::::::::::::::::::::::::::::::::
         ::                  THERMODYNAMIC                  ::
         :::::::::::::::::::::::::::::::::::::::::::::::::::::
         :: total free energy         -72.002354684596 Eh   ::
         ::.................................................::
         :: total energy              -72.317377300462 Eh   ::
         :: zero point energy           0.362886775754 Eh   ::
         :: G(RRHO) w/o ZPVE           -0.047864159888 Eh   ::
         :: G(RRHO) contrib.            0.315022615867 Eh   ::
         :::::::::::::::::::::::::::::::::::::::::::::::::::::

           -------------------------------------------------
          | TOTAL ENERGY              -72.317377300462 Eh   |
          | TOTAL ENTHALPY            -71.931595853527 Eh   |
          | TOTAL FREE ENERGY         -72.002354684596 Eh   |
          | GRADIENT NORM               0.000105561739 Eh/α |
           -------------------------------------------------

 * finished run on 2025/07/17 at 21:47:38.967
