   * xtb version 6.7.1 (edcfbbe) compiled by 'albert@albert-system' on 2024-07-22

   ID    Z sym.   atoms
    1    6 C      1-13, 15-21, 23-28
    2    7 N      14
    3    8 O      22
    4    1 H      29-47

          program call               : xtb data2507/gas/BACQ/BACQ_gas_S0_crest.xyz --gfn 2 --ohess vtight --parallel 40 --molden --ceasefiles --namespace data2507/gas/BACQ/BACQ_gas_S0_finalOpt
          :  Hamiltonian                  GFN2-xTB          :
 * total energy  :   -72.3990616 Eh     change       -0.5193044E-08 Eh
 * total energy  :   -72.3990621 Eh     change       -0.5283892E-06 Eh
 * total energy  :   -72.3990626 Eh     change       -0.4888261E-06 Eh
 * total energy  :   -72.3990632 Eh     change       -0.5869517E-06 Eh
 * total energy  :   -72.3990636 Eh     change       -0.3762820E-06 Eh
 * total energy  :   -72.3990639 Eh     change       -0.3300952E-06 Eh
 * total energy  :   -72.3990643 Eh     change       -0.3501924E-06 Eh
 * total energy  :   -72.3990646 Eh     change       -0.2934152E-06 Eh
 * total energy  :   -72.3990647 Eh     change       -0.1685504E-06 Eh
 * total energy  :   -72.3990647 Eh     change        0.1081759E-08 Eh
 * total energy  :   -72.3990648 Eh     change       -0.9507824E-07 Eh
   *** GEOMETRY OPTIMIZATION CONVERGED AFTER 11 ITERATIONS ***

 final structure:
================
47
 xtb: 6.7.1 (edcfbbe)
C            2.06528055449927       -2.75420731193202       -0.32931035502278
C            1.18198743402594       -1.74221317482225        0.44008748917476
C            1.28648520648631       -1.91194156666438        1.96979943300691
C            1.55501609890756       -0.31864805267024        0.05137322350439
C            0.55963141489361        0.58567413933191       -0.26650931433823
C            0.86353139855941        1.80257830100535       -0.91664950009105
C            2.15405239781976        2.17300742924336       -1.12127053764618
C            3.20718865716050        1.38029709171241       -0.62048802017148
C            4.53972438274324        1.82693166963803       -0.71812360250605
C            5.56978317680373        1.09216585921148       -0.20464127005816
C            5.28787924770090       -0.11625054717639        0.44344355070056
C            4.00584460273376       -0.58610712931772        0.52926708431909
C            2.91140237933349        0.12509900152552       -0.01893828237308
N           -0.79264477446673        0.29215077624045       -0.03732988807440
C           -1.72597692173955        1.28023511192770        0.22082401961844
C           -1.35668187651899        2.50026382644146        0.80109480725976
C           -2.30005977258965        3.47253232503344        1.04658028048256
C           -3.63854975692251        3.26268501464419        0.72777793614910
C           -4.02264583778034        2.05062428905813        0.20414532206831
C           -3.08551837376978        1.04409707300868       -0.03885803461053
C           -3.54554682728102       -0.26672603378289       -0.51196369774864
O           -4.66815806771056       -0.46446142998916       -0.94946084186671
C           -2.55037089405151       -1.33213402892810       -0.34315560325679
C           -2.95445254513414       -2.66524802028252       -0.40448440563223
C           -2.04169655017527       -3.67252333332845       -0.19963499337858
C           -0.71304712172186       -3.35670987754856        0.05575361486349
C           -0.26860205028522       -2.04560148878002        0.09332535122074
C           -1.20381161432280       -1.02393911292719       -0.09605274768933
H            1.52349439363143       -3.13345543785285       -1.19331739837617
H            2.33677368815593       -3.59579978537073        0.30331359017910
H            2.97509576104975       -2.29995789902153       -0.70464645054461
H            2.28780067374555       -1.71068767804087        2.33693837172150
H            0.60381888194450       -1.21874623371943        2.45921016988842
H            1.00428250998751       -2.92335209811663        2.25425271106694
H            0.05182142149116        2.41255569007527       -1.28258285852044
H            2.38739160925098        3.08516696800487       -1.64972957935745
H            4.72581881678282        2.77720417959170       -1.19789224836901
H            6.58916936754745        1.44005015215832       -0.27797042860976
H            6.09458778864048       -0.68236950384991        0.88603954236270
H            3.84290213555427       -1.50817815666772        1.06008008101407
H           -0.32735147076002        2.66838030245082        1.08053767004109
H           -1.99423385460217        4.40303404403897        1.50162537914546
H           -4.36716678420917        4.03700184741192        0.91173838859206
H           -5.05537228345725        1.83280650067371       -0.02339503079963
H           -3.99601997126521       -2.86811344346796       -0.60066685580565
H           -2.35028360956379       -4.70634929829566       -0.22640257556309
H           -0.01760343262178       -4.16030604507455        0.24198561903049

          :  Hamiltonian                  GFN2-xTB          :
         :: gradient norm              0.000040022811 Eh/a0 ::
         :: HOMO-LUMO gap              2.300663552951 eV    ::
         :: SCC energy               -73.678610317211 Eh    ::
         :: -> dispersion             -0.065577091498 Eh    ::
         :: repulsion energy           1.279545479258 Eh    ::

    * Orbital Energies and Occupations

         #    Occupation            Energy/Eh            Energy/eV
      -------------------------------------------------------------
         1        2.0000           -0.6854600             -18.6523
       ...           ...                  ...                  ...
        55        2.0000           -0.4385142             -11.9326
        56        2.0000           -0.4354927             -11.8504
        57        2.0000           -0.4342872             -11.8176
        58        2.0000           -0.4271299             -11.6228
        59        2.0000           -0.4223703             -11.4933
        60        2.0000           -0.4163408             -11.3292
        61        2.0000           -0.4136803             -11.2568
        62        2.0000           -0.4119278             -11.2091
        63        2.0000           -0.4083993             -11.1131
        64        2.0000           -0.4059111             -11.0454
        65        2.0000           -0.3885531             -10.5731
        66        2.0000           -0.3744658             -10.1897
        67        2.0000           -0.3624053              -9.8616 (HOMO)
        68                         -0.2778575              -7.5609 (LUMO)
        69                         -0.2653628              -7.2209
        70                         -0.2410601              -6.5596
        71                         -0.2359894              -6.4216
        72                         -0.2292528              -6.2383
        73                         -0.2105960              -5.7306
        74                         -0.1976298              -5.3778
        75                         -0.1737627              -4.7283
        76                         -0.1523945              -4.1469
        77                         -0.1042697              -2.8373
        78                         -0.0732173              -1.9923
       ...                                ...                  ...
       131                          0.7208370              19.6150
      -------------------------------------------------------------
                  HL-Gap            0.0845478 Eh            2.3007 eV

     #   Z          covCN         q      C6AA      α(0)
     1   6 C        3.758    -0.112    22.702     6.793
     2   6 C        3.906     0.024    20.121     6.376
     3   6 C        3.762    -0.100    22.457     6.755
     4   6 C        2.970    -0.016    28.415     8.744
     5   6 C        2.931     0.053    26.811     8.492
     6   6 C        2.919    -0.046    29.147     8.853
     7   6 C        2.919    -0.039    28.960     8.825
     8   6 C        2.991     0.007    27.847     8.656
     9   6 C        2.923    -0.034    28.844     8.807
    10   6 C        2.915    -0.031    28.775     8.796
    11   6 C        2.917    -0.032    28.790     8.799
    12   6 C        2.918    -0.040    29.003     8.831
    13   6 C        2.982     0.008    27.830     8.654
    14   7 N        2.758    -0.037    21.957     6.959
    15   6 C        2.931     0.061    26.631     8.463
    16   6 C        2.920    -0.049    29.216     8.864
    17   6 C        2.920    -0.025    28.639     8.776
    18   6 C        2.916    -0.036    28.905     8.816
    19   6 C        2.924    -0.019    28.487     8.753
    20   6 C        2.981    -0.034    28.842     8.809
    21   6 C        2.833     0.217    23.417     7.930
    22   8 O        0.857    -0.407    21.814     6.262
    23   6 C        2.981    -0.036    28.889     8.817
    24   6 C        2.924    -0.023    28.570     8.766
    25   6 C        2.915    -0.039    28.967     8.826
    26   6 C        2.927    -0.034    28.857     8.810
    27   6 C        2.984    -0.011    28.281     8.723
    28   6 C        2.946     0.055    26.770     8.486
    29   1 H        0.925     0.040     2.453     2.449
    30   1 H        0.925     0.040     2.451     2.448
    31   1 H        0.925     0.049     2.332     2.388
    32   1 H        0.925     0.044     2.394     2.420
    33   1 H        0.925     0.033     2.547     2.496
    34   1 H        0.925     0.040     2.444     2.445
    35   1 H        0.926     0.041     2.441     2.443
    36   1 H        0.926     0.037     2.485     2.465
    37   1 H        0.926     0.032     2.553     2.498
    38   1 H        0.926     0.031     2.574     2.509
    39   1 H        0.926     0.030     2.584     2.514
    40   1 H        0.926     0.044     2.399     2.422
    41   1 H        0.926     0.038     2.479     2.462
    42   1 H        0.926     0.037     2.488     2.466
    43   1 H        0.926     0.038     2.476     2.460
    44   1 H        0.926     0.062     2.173     2.305
    45   1 H        0.926     0.061     2.188     2.313
    46   1 H        0.926     0.037     2.489     2.467
    47   1 H        0.926     0.042     2.423     2.434

molecular dipole:
                 x           y           z       tot (Debye)
 q only:        1.875       0.100       0.641
   full:        2.035       0.187       0.727       5.513

 projected vibrational frequencies (cm⁻¹)
eigval :       -0.00    -0.00    -0.00     0.00     0.00     0.00
eigval :       36.77    43.70    61.76    78.41    97.45   126.57
eigval :      134.28   152.38   155.04   173.68   196.55   201.07
eigval :      241.52   258.30   277.91   286.64   300.10   311.01
eigval :      325.79   345.18   366.00   377.18   397.29   416.54
eigval :      421.95   439.27   464.28   484.04   495.63   501.36
eigval :      513.29   526.09   542.92   562.15   571.83   573.80
eigval :      607.25   628.29   638.94   652.52   665.84   698.27
eigval :      709.88   728.68   734.36   736.12   770.57   787.67
eigval :      800.89   813.25   840.77   842.48   855.18   884.66
eigval :      886.81   904.59   913.03   917.03   920.95   924.28
eigval :      924.43   931.31   936.71   940.25   965.36   975.38
eigval :      996.62  1026.91  1050.54  1090.74  1094.87  1117.96
eigval :     1125.20  1131.27  1150.17  1156.59  1175.41  1177.61
eigval :     1186.94  1191.39  1201.60  1211.01  1225.01  1236.27
eigval :     1244.21  1251.18  1257.06  1277.75  1305.72  1323.56
eigval :     1337.96  1346.27  1352.03  1374.22  1390.38  1407.71
eigval :     1412.92  1423.57  1427.44  1443.07  1453.14  1462.03
eigval :     1472.56  1487.63  1498.63  1501.77  1507.07  1522.97
eigval :     1553.13  1562.63  1575.92  1585.91  1594.80  1600.89
eigval :     1610.42  1673.69  3021.77  3030.57  3031.77  3034.86
eigval :     3059.74  3072.65  3078.01  3079.81  3080.00  3083.18
eigval :     3087.79  3089.71  3092.77  3094.52  3097.47  3100.66
eigval :     3102.27  3105.92  3129.53

   temp. (K)  partition function   enthalpy   heat capacity  entropy
                                   cal/mol     cal/K/mol   cal/K/mol   J/K/mol
 298.15  VIB  0.105E+08            11776.649     82.132     69.016
         ROT  0.118E+08              888.752      2.981     35.349
         INT  0.124E+15            12665.401     85.113    104.365
         TR   0.665E+28             1481.254      4.968     43.528
         TOT                       14146.6554    90.0811   147.8930   618.7845

       T/K    H(0)-H(T)+PV         H(T)/Eh          T*S/Eh         G(T)/Eh
   ------------------------------------------------------------------------
    298.15    0.225441E-01    0.389900E+00    0.702688E-01    0.319632E+00
   ------------------------------------------------------------------------

         :::::::::::::::::::::::::::::::::::::::::::::::::::::
         ::                  THERMODYNAMIC                  ::
         :::::::::::::::::::::::::::::::::::::::::::::::::::::
         :: total free energy         -72.079433128029 Eh   ::
         ::.................................................::
         :: total energy              -72.399064837953 Eh   ::
         :: zero point energy           0.367356332954 Eh   ::
         :: G(RRHO) w/o ZPVE           -0.047724623030 Eh   ::
         :: G(RRHO) contrib.            0.319631709924 Eh   ::
         :::::::::::::::::::::::::::::::::::::::::::::::::::::

           -------------------------------------------------
          | TOTAL ENERGY              -72.399064837953 Eh   |
          | TOTAL ENTHALPY            -72.009164374663 Eh   |
          | TOTAL FREE ENERGY         -72.079433128029 Eh   |
          | GRADIENT NORM               0.000040058966 Eh/α |
          | HOMO-LUMO GAP               2.300662606834 eV   |
           -------------------------------------------------

 * finished run on 2025/07/17 at 21:45:38.364
