   * xtb version 6.7.1 (edcfbbe) compiled by 'albert@albert-system' on 2024-07-22

   ID    Z sym.   atoms
    1    6 C      1-13, 15-21, 23-28
    2    7 N      14
    3    8 O      22
    4    1 H      29-47

          program call               : xtb data2507/gas/BACQ/BACQ_gas_S0_finalOpt.xtbopt.xyz --gfn 2 --spinpol --tblite --uhf 2 --ohess vtight --parallel 40 --molden --ceasefiles --namespace data2507/gas/BACQ/BACQ_gas_T1_preOpt
 * total energy  :   -72.3134304 Eh     change        0.2022261E-08 Eh
 * total energy  :   -72.3162558 Eh     change       -0.2825383E-02 Eh
 * total energy  :   -72.3171244 Eh     change       -0.8685449E-03 Eh
 * total energy  :   -72.3172158 Eh     change       -0.9139335E-04 Eh
 * total energy  :   -72.3172806 Eh     change       -0.6480998E-04 Eh
 * total energy  :   -72.3173131 Eh     change       -0.3255879E-04 Eh
 * total energy  :   -72.3173357 Eh     change       -0.2252780E-04 Eh
 * total energy  :   -72.3173472 Eh     change       -0.1151579E-04 Eh
 * total energy  :   -72.3173568 Eh     change       -0.9645422E-05 Eh
 * total energy  :   -72.3173545 Eh     change        0.2345066E-05 Eh
 * total energy  :   -72.3173671 Eh     change       -0.5772768E-05 Eh
 * total energy  :   -72.3173697 Eh     change       -0.2654099E-05 Eh
 * total energy  :   -72.3173734 Eh     change       -0.3697935E-05 Eh
 * total energy  :   -72.3173758 Eh     change       -0.2345029E-05 Eh
 * total energy  :   -72.3173766 Eh     change       -0.8302118E-06 Eh
 * total energy  :   -72.3173769 Eh     change       -0.3068335E-06 Eh
 * total energy  :   -72.3173771 Eh     change       -0.1806255E-06 Eh
 * total energy  :   -72.3173772 Eh     change       -0.1098889E-06 Eh
 * total energy  :   -72.3173773 Eh     change       -0.6901246E-07 Eh
   *** GEOMETRY OPTIMIZATION CONVERGED AFTER 20 ITERATIONS ***

 final structure:
================
47
 xtb: 6.7.1 (edcfbbe)
C            2.05664069942577       -2.76324683417583       -0.36784111550390
C            1.18811695672950       -1.75311644339542        0.42217087625091
C            1.32392259487680       -1.93755126413124        1.95294759198583
C            1.55812889401608       -0.33505168229424        0.03948601775640
C            0.53003430130694        0.58951438933019       -0.27548008912033
C            0.83680514458345        1.81822857515816       -0.89464071024980
C            2.12772346430932        2.19077258097820       -1.09180288808408
C            3.19189611528365        1.39649812181013       -0.58558705268492
C            4.50997580730389        1.84771259463547       -0.68282388411899
C            5.56136185953403        1.10273483816314       -0.18430199554743
C            5.29353586654517       -0.11024236616814        0.43685838899185
C            4.00463805914795       -0.58781570239726        0.53006815873098
C            2.90117925457469        0.12828977216371        0.00294521407417
N           -0.78511088585928        0.28304003577643       -0.02030622666426
C           -1.72682849548913        1.27704730397010        0.23434390490875
C           -1.35289467289313        2.48621664136619        0.81867870270053
C           -2.28346492956512        3.48970003097700        1.01928253422704
C           -3.60882028246262        3.29856201345592        0.63372701451535
C           -4.00937012956701        2.08422650468728        0.12642523217543
C           -3.09103843766729        1.03819923617321       -0.05013150198174
C           -3.54862600166556       -0.27808502212684       -0.44247233512038
O           -4.72330856780402       -0.50497414241158       -0.80130428163540
C           -2.56502709685650       -1.33205040859562       -0.28136015507082
C           -2.95764687591123       -2.67063484836133       -0.36978070606048
C           -2.03828644595624       -3.67921300598364       -0.18247363958672
C           -0.70703286515999       -3.37828728293355        0.06984677837034
C           -0.26589333021753       -2.05789420098668        0.11719887462206
C           -1.20158429829785       -1.03869284651168       -0.04274900472787
H            1.52484178962086       -3.08045729122484       -1.26245677891925
H            2.27816960409385       -3.64145659600095        0.23290648314234
H            2.99302293561868       -2.32364192771595       -0.69195605677039
H            2.32865728929962       -1.72720236098148        2.30325938079771
H            0.64132492486983       -1.25831925726466        2.46145174832571
H            1.05908065339689       -2.95540319242762        2.22913409824275
H            0.02599172172390        2.43442678888050       -1.25277589003667
H            2.36349823414055        3.10407051622371       -1.61580086651395
H            4.69541666736666        2.80281607135672       -1.15249614379142
H            6.57504824538494        1.46471588851280       -0.26345271349886
H            6.10303511481990       -0.68841828545499        0.85809441766861
H            3.85584800977336       -1.52052546085349        1.04512079958338
H           -0.33041668041311        2.63031363657099        1.13600876350566
H           -1.97652151310920        4.41796230548745        1.47513538060598
H           -4.32533753105166        4.09632489739362        0.75879232270939
H           -5.03734074180620        1.89267884211394       -0.13917365012262
H           -3.99712802918430       -2.87625889250907       -0.57151680952301
H           -2.35223501728955       -4.71140126419000       -0.22436963835569
H           -0.00902082431615       -4.18367327835357        0.22884213107589

 projected vibrational frequencies (cm⁻¹)
eigval :       -0.00    -0.00    -0.00     0.00     0.00     0.00
eigval :       39.80    42.44    65.09    82.19    99.49   123.46
eigval :      142.80   150.41   157.83   168.09   194.85   200.61
eigval :      243.70   256.10   272.46   287.18   295.57   301.23
eigval :      320.68   341.98   356.00   374.84   381.34   406.80
eigval :      413.23   426.57   457.32   469.55   479.03   491.49
eigval :      502.26   523.40   533.80   548.16   560.52   563.91
eigval :      595.74   616.50   622.47   627.63   640.30   676.29
eigval :      695.55   700.87   713.79   729.85   755.54   762.66
eigval :      786.95   794.31   818.69   829.07   846.44   858.77
eigval :      863.34   878.45   892.46   897.52   898.17   911.17
eigval :      913.50   918.23   920.18   924.47   958.34   970.78
eigval :      990.04  1020.28  1038.27  1066.54  1081.05  1100.48
eigval :     1110.12  1121.61  1122.87  1131.27  1146.51  1169.09
eigval :     1177.21  1183.48  1186.85  1195.53  1208.58  1220.44
eigval :     1232.76  1235.35  1242.36  1250.69  1265.77  1293.53
eigval :     1317.87  1335.69  1341.18  1347.15  1361.35  1385.80
eigval :     1393.15  1400.15  1406.76  1412.07  1421.63  1426.41
eigval :     1442.99  1448.71  1483.46  1488.52  1497.63  1499.15
eigval :     1505.80  1514.93  1517.94  1528.46  1532.10  1537.52
eigval :     1557.73  1570.90  3023.00  3032.47  3036.25  3039.35
eigval :     3067.29  3076.10  3077.59  3079.14  3079.52  3085.08
eigval :     3085.28  3086.42  3095.84  3097.67  3101.06  3107.63
eigval :     3108.11  3114.39  3133.74

   temp. (K)  partition function   enthalpy   heat capacity  entropy
                                   cal/mol     cal/K/mol   cal/K/mol   J/K/mol
 298.15  VIB  0.111E+08            11998.765     84.019     70.064
         ROT  0.119E+08              888.752      2.981     35.350
         INT  0.132E+15            12887.517     87.000    105.414
         TR   0.665E+28             1481.254      4.968     43.528
         TOT                       14368.7712    91.9679   148.9420   623.1732

       T/K    H(0)-H(T)+PV         H(T)/Eh          T*S/Eh         G(T)/Eh
   ------------------------------------------------------------------------
    298.15    0.228981E-01    0.385773E+00    0.707671E-01    0.315006E+00
   ------------------------------------------------------------------------

         :::::::::::::::::::::::::::::::::::::::::::::::::::::
         ::                  THERMODYNAMIC                  ::
         :::::::::::::::::::::::::::::::::::::::::::::::::::::
         :: total free energy         -72.002371005722 Eh   ::
         ::.................................................::
         :: total energy              -72.317377291359 Eh   ::
         :: zero point energy           0.362875322255 Eh   ::
         :: G(RRHO) w/o ZPVE           -0.047869036618 Eh   ::
         :: G(RRHO) contrib.            0.315006285637 Eh   ::
         :::::::::::::::::::::::::::::::::::::::::::::::::::::

           -------------------------------------------------
          | TOTAL ENERGY              -72.317377291359 Eh   |
          | TOTAL ENTHALPY            -71.931603874723 Eh   |
          | TOTAL FREE ENERGY         -72.002371005722 Eh   |
          | GRADIENT NORM               0.000071793627 Eh/α |
           -------------------------------------------------

 * finished run on 2025/07/17 at 21:45:41.215
