   * xtb version 6.7.1 (edcfbbe) compiled by 'albert@albert-system' on 2024-07-22

   ID    Z sym.   atoms
    1    6 C      1-13, 15-21, 23-28
    2    7 N      14
    3    8 O      22
    4    1 H      29-47

          program call               : xtb data2507/gas/BACQ/BACQ.xyz --gfn 2 --ohess vtight --parallel 40 --molden --ceasefiles --namespace data2507/gas/BACQ/BACQ_gas_S0_preOpt
          :  Hamiltonian                  GFN2-xTB          :
 * total energy  :   -72.3739069 Eh     change       -0.6701484E-08 Eh
 * total energy  :   -72.3880709 Eh     change       -0.1416401E-01 Eh
 * total energy  :   -72.3931515 Eh     change       -0.5080597E-02 Eh
 * total energy  :   -72.3941167 Eh     change       -0.9651513E-03 Eh
 * total energy  :   -72.3947247 Eh     change       -0.6080775E-03 Eh
 * total energy  :   -72.3950382 Eh     change       -0.3134410E-03 Eh
 * total energy  :   -72.3952225 Eh     change       -0.1843710E-03 Eh
 * total energy  :   -72.3953147 Eh     change       -0.9218557E-04 Eh
 * total energy  :   -72.3953566 Eh     change       -0.4187431E-04 Eh
 * total energy  :   -72.3953988 Eh     change       -0.4217815E-04 Eh
 * total energy  :   -72.3955224 Eh     change       -0.3471830E-06 Eh
 * total energy  :   -72.3955232 Eh     change       -0.7396582E-06 Eh
 * total energy  :   -72.3955234 Eh     change       -0.1987167E-06 Eh
 * total energy  :   -72.3955235 Eh     change       -0.1882559E-06 Eh
 * total energy  :   -72.3955237 Eh     change       -0.1990315E-06 Eh
 * total energy  :   -72.3955239 Eh     change       -0.1732726E-06 Eh
 * total energy  :   -72.3955240 Eh     change       -0.1313069E-06 Eh
 * total energy  :   -72.3955242 Eh     change       -0.1044173E-06 Eh
 * total energy  :   -72.3955242 Eh     change       -0.2795335E-07 Eh
   *** GEOMETRY OPTIMIZATION CONVERGED AFTER 30 ITERATIONS ***

 final structure:
================
47
 xtb: 6.7.1 (edcfbbe)
C            2.02506118498414       -2.45515089943803        0.85071336600671
C            0.93279162796961       -1.39641875005695        0.70370616149208
C            0.42036771491030       -1.11811090009103        2.13795849131702
C            1.28174648888335       -0.04108476522996        0.07710068286280
C            0.17036166289458        0.74290920258467       -0.20591021571588
C            0.27406190606237        2.00864998860681       -0.81324815424284
C            1.49590110534888        2.53628692241823       -1.08018043549763
C            2.66346219908039        1.81484429733221       -0.76772147138263
C            3.91607991985243        2.39975747863281       -1.04354785089087
C            5.08175215462489        1.74481756507002       -0.77388763191337
C            5.01484944045885        0.46595629966891       -0.21222169822796
C            3.81210812898229       -0.12609387584357        0.06228054744870
C            2.57343987328641        0.50786244721375       -0.19698021060510
N           -1.12921974440422        0.23426338860796       -0.02176429838206
C           -2.23610864153388        1.03239690059324        0.18980104305727
C           -2.13253999941524        2.22760566635510        0.91093964483751
C           -3.24777688912912        3.00154630038253        1.14103081348247
C           -4.49486080879068        2.60856162920994        0.66367150574907
C           -4.61386275480410        1.42149442730279       -0.02122288734106
C           -3.49951005842850        0.61394153388095       -0.25855585553945
C           -3.67050524743900       -0.66320123717314       -0.96698841057165
O           -4.69587939833382       -0.96329438949768       -1.55802197015595
C           -2.51416033064865       -1.56064755964155       -0.85909014951747
C           -2.60419953187770       -2.89251203476377       -1.26637179663253
C           -1.51386090844442       -3.72155128569829       -1.15018056856955
C           -0.33748500834321       -3.26345575911038       -0.56120134487384
C           -0.22486885172702       -1.96197120213463       -0.11019553751071
C           -1.30585517627556       -1.09824944276467       -0.32919528917515
H            1.56702718983758       -3.37089956483930        1.22057907130992
H            2.75346977200604       -2.15866229581168        1.59975566907971
H            2.51538994526166       -2.67012046444867       -0.09524134981968
H            1.22598431072817       -0.69460950802200        2.73466723172121
H           -0.41333913549716       -0.42256328450499        2.15180161976991
H            0.09427678538548       -2.04747176070186        2.60048893305608
H           -0.62681911689006        2.53670778974955       -1.08511624262795
H            1.58659699927582        3.50534827928028       -1.54763580901686
H            3.92791332000043        3.38954518595498       -1.47737626454932
H            6.03851396515029        2.19743509424117       -0.98624387612624
H            5.92904811286243       -0.06543854779062        0.00976632963761
H            3.84607672227978       -1.10472548678680        0.49272183252849
H           -1.17181907678110        2.52834603363244        1.30272860794330
H           -3.15108439224111        3.91697823707054        1.70585121405170
H           -5.36118700663706        3.22648336165268        0.84271654583532
H           -5.56739790091408        1.07438211914433       -0.39009196838728
H           -3.54198413987025       -3.23575977933909       -1.67511160049078
H           -1.57019172225641       -4.74463157522588       -1.48961045304819
H            0.47823731055680       -3.95949777967361       -0.45536697037410

          :  Hamiltonian                  GFN2-xTB          :
         :: gradient norm              0.000126844695 Eh/a0 ::
         :: HOMO-LUMO gap              2.354138791048 eV    ::
         :: SCC energy               -73.674756640604 Eh    ::
         :: -> dispersion             -0.065568595818 Eh    ::
         :: repulsion energy           1.279232461389 Eh    ::

    * Orbital Energies and Occupations

         #    Occupation            Energy/Eh            Energy/eV
      -------------------------------------------------------------
         1        2.0000           -0.6858452             -18.6628
       ...           ...                  ...                  ...
        55        2.0000           -0.4375215             -11.9056
        56        2.0000           -0.4361643             -11.8686
        57        2.0000           -0.4335049             -11.7963
        58        2.0000           -0.4278682             -11.6429
        59        2.0000           -0.4223274             -11.4921
        60        2.0000           -0.4178743             -11.3709
        61        2.0000           -0.4129234             -11.2362
        62        2.0000           -0.4126751             -11.2295
        63        2.0000           -0.4092618             -11.1366
        64        2.0000           -0.4045033             -11.0071
        65        2.0000           -0.3861473             -10.5076
        66        2.0000           -0.3753352             -10.2134
        67        2.0000           -0.3650705              -9.9341 (HOMO)
        68                         -0.2785574              -7.5799 (LUMO)
        69                         -0.2636129              -7.1733
        70                         -0.2405808              -6.5465
        71                         -0.2358747              -6.4185
        72                         -0.2305009              -6.2722
        73                         -0.2111638              -5.7461
        74                         -0.1958015              -5.3280
        75                         -0.1739714              -4.7340
        76                         -0.1503256              -4.0906
        77                         -0.1061245              -2.8878
        78                         -0.0702676              -1.9121
       ...                                ...                  ...
       131                          0.7189518              19.5637
      -------------------------------------------------------------
                  HL-Gap            0.0865130 Eh            2.3541 eV

     #   Z          covCN         q      C6AA      α(0)
     1   6 C        3.762    -0.107    22.586     6.775
     2   6 C        3.912     0.024    20.104     6.373
     3   6 C        3.765    -0.102    22.490     6.759
     4   6 C        2.970    -0.017    28.420     8.744
     5   6 C        2.944     0.051    26.848     8.498
     6   6 C        2.918    -0.046    29.153     8.854
     7   6 C        2.923    -0.038    28.950     8.824
     8   6 C        2.993     0.008    27.838     8.655
     9   6 C        2.927    -0.034    28.846     8.808
    10   6 C        2.914    -0.031    28.767     8.795
    11   6 C        2.919    -0.031    28.779     8.797
    12   6 C        2.920    -0.045    29.115     8.848
    13   6 C        2.976     0.010    27.785     8.646
    14   7 N        2.762    -0.040    22.008     6.968
    15   6 C        2.930     0.061    26.626     8.462
    16   6 C        2.920    -0.049    29.214     8.864
    17   6 C        2.920    -0.025    28.632     8.775
    18   6 C        2.916    -0.036    28.903     8.816
    19   6 C        2.924    -0.019    28.480     8.752
    20   6 C        2.979    -0.034    28.845     8.810
    21   6 C        2.831     0.217    23.417     7.930
    22   8 O        0.857    -0.406    21.794     6.259
    23   6 C        2.978    -0.035    28.870     8.814
    24   6 C        2.923    -0.023    28.569     8.765
    25   6 C        2.917    -0.039    28.967     8.826
    26   6 C        2.924    -0.035    28.872     8.812
    27   6 C        2.985    -0.011    28.294     8.725
    28   6 C        2.964     0.055    26.767     8.486
    29   1 H        0.925     0.044     2.402     2.424
    30   1 H        0.925     0.044     2.399     2.422
    31   1 H        0.925     0.041     2.430     2.438
    32   1 H        0.925     0.040     2.455     2.450
    33   1 H        0.925     0.036     2.502     2.473
    34   1 H        0.925     0.039     2.461     2.453
    35   1 H        0.926     0.039     2.468     2.456
    36   1 H        0.926     0.037     2.488     2.467
    37   1 H        0.926     0.032     2.559     2.502
    38   1 H        0.926     0.031     2.579     2.511
    39   1 H        0.926     0.030     2.592     2.518
    40   1 H        0.927     0.049     2.338     2.391
    41   1 H        0.926     0.037     2.488     2.467
    42   1 H        0.926     0.037     2.486     2.465
    43   1 H        0.926     0.038     2.476     2.461
    44   1 H        0.926     0.062     2.174     2.306
    45   1 H        0.926     0.061     2.185     2.311
    46   1 H        0.926     0.038     2.481     2.463
    47   1 H        0.926     0.043     2.411     2.428

molecular dipole:
                 x           y           z       tot (Debye)
 q only:        1.704       0.258       0.905
   full:        1.813       0.372       0.976       5.318

 projected vibrational frequencies (cm⁻¹)
eigval :       -0.00    -0.00    -0.00    -0.00    -0.00     0.00
eigval :       18.50    40.50    61.57    62.09   107.51   126.61
eigval :      143.35   165.56   178.95   199.76   212.36   230.74
eigval :      243.09   269.27   298.52   307.15   316.88   332.66
eigval :      342.80   352.36   373.94   384.24   409.15   419.27
eigval :      434.29   464.81   481.70   486.75   490.46   498.00
eigval :      516.29   520.12   536.08   548.68   568.77   578.17
eigval :      599.24   629.18   637.36   655.24   663.80   691.36
eigval :      709.56   722.96   729.66   736.95   758.32   787.65
eigval :      797.31   806.39   838.66   841.44   849.63   862.88
eigval :      887.42   901.77   905.95   911.75   918.95   921.48
eigval :      924.19   925.70   930.50   936.50   955.17   981.28
eigval :      990.34  1011.08  1043.29  1088.39  1100.86  1115.49
eigval :     1124.19  1133.90  1146.03  1160.61  1177.38  1179.73
eigval :     1189.78  1193.46  1205.47  1215.27  1226.38  1236.72
eigval :     1245.06  1251.34  1259.93  1272.51  1300.71  1327.47
eigval :     1336.01  1347.14  1358.13  1369.29  1380.67  1398.70
eigval :     1413.58  1418.37  1427.38  1443.91  1445.37  1458.45
eigval :     1473.32  1495.55  1498.08  1506.38  1522.80  1545.29
eigval :     1551.28  1559.92  1575.39  1587.40  1595.18  1600.67
eigval :     1613.04  1672.64  3017.12  3025.88  3028.95  3038.11
eigval :     3049.54  3059.14  3071.35  3076.85  3078.55  3082.96
eigval :     3087.67  3087.95  3092.90  3093.79  3099.46  3102.05
eigval :     3104.57  3115.22  3229.33

   temp. (K)  partition function   enthalpy   heat capacity  entropy
                                   cal/mol     cal/K/mol   cal/K/mol   J/K/mol
 298.15  VIB  0.131E+08            11590.971     81.443     67.523
         ROT  0.117E+08              888.752      2.981     35.324
         INT  0.154E+15            12479.724     84.424    102.847
         TR   0.665E+28             1481.254      4.968     43.528
         TOT                       13960.9775    89.3925   146.3755   612.4351

       T/K    H(0)-H(T)+PV         H(T)/Eh          T*S/Eh         G(T)/Eh
   ------------------------------------------------------------------------
    298.15    0.222482E-01    0.390104E+00    0.695477E-01    0.320556E+00
   ------------------------------------------------------------------------

         :::::::::::::::::::::::::::::::::::::::::::::::::::::
         ::                  THERMODYNAMIC                  ::
         :::::::::::::::::::::::::::::::::::::::::::::::::::::
         :: total free energy         -72.074968201731 Eh   ::
         ::.................................................::
         :: total energy              -72.395524179215 Eh   ::
         :: zero point energy           0.367855466406 Eh   ::
         :: G(RRHO) w/o ZPVE           -0.047299488922 Eh   ::
         :: G(RRHO) contrib.            0.320555977484 Eh   ::
         :::::::::::::::::::::::::::::::::::::::::::::::::::::

           -------------------------------------------------
          | TOTAL ENERGY              -72.395524179215 Eh   |
          | TOTAL ENTHALPY            -72.005420479053 Eh   |
          | TOTAL FREE ENERGY         -72.074968201731 Eh   |
          | GRADIENT NORM               0.000126850642 Eh/α |
          | HOMO-LUMO GAP               2.354139357989 eV   |
           -------------------------------------------------

 * finished run on 2025/07/17 at 21:44:13.029
