   * xtb version 6.7.1 (edcfbbe) compiled by 'albert@albert-system' on 2024-07-22

   ID    Z sym.   atoms
    1    6 C      1-4, 6-19, 21-29, 31-44, 46-52
    2    7 N      5, 20, 30, 45
    3   16 S      53
    4    8 O      54, 55
    5    1 H      56-95

          program call               : xtb data2507/toluene/DHID-DBS/DHID-DBS_toluene_T1_crest.xyz --gfn 2 --uhf 2 --gbsa toluene --ohess vtight --parallel 40 --molden --ceasefiles --namespace data2507/toluene/DHID-DBS/DHID-DBS_toluene_T1_finalOpt
      * Solvation model:               GBSA
        Solvent                        toluene
        Solvent mass                       9.2140E+01 g/mol
          :  Hamiltonian                  GFN2-xTB          :
 * total energy  :  -146.3643953 Eh     change       -0.3616975E-08 Eh
 * total energy  :  -146.3647902 Eh     change       -0.3948881E-03 Eh
 * total energy  :  -146.3651211 Eh     change       -0.3308434E-03 Eh
 * total energy  :  -146.3651705 Eh     change       -0.4942678E-04 Eh
 * total energy  :  -146.3652540 Eh     change       -0.8347996E-04 Eh
 * total energy  :  -146.3652991 Eh     change       -0.4511627E-04 Eh
 * total energy  :  -146.3653510 Eh     change       -0.5191899E-04 Eh
 * total energy  :  -146.3654047 Eh     change       -0.5366797E-04 Eh
 * total energy  :  -146.3654545 Eh     change       -0.4984617E-04 Eh
 * total energy  :  -146.3655099 Eh     change       -0.5537552E-04 Eh
 * total energy  :  -146.3669739 Eh     change       -0.7463348E-06 Eh
 * total energy  :  -146.3669745 Eh     change       -0.6441387E-06 Eh
 * total energy  :  -146.3669750 Eh     change       -0.5002993E-06 Eh
 * total energy  :  -146.3669757 Eh     change       -0.6499404E-06 Eh
 * total energy  :  -146.3669764 Eh     change       -0.7409231E-06 Eh
 * total energy  :  -146.3669774 Eh     change       -0.9696645E-06 Eh
 * total energy  :  -146.3669786 Eh     change       -0.1232197E-05 Eh
 * total energy  :  -146.3669801 Eh     change       -0.1472573E-05 Eh
 * total energy  :  -146.3669801 Eh     change       -0.1060553E-07 Eh
   *** GEOMETRY OPTIMIZATION CONVERGED AFTER 122 ITERATIONS ***

 final structure:
================
95
 xtb: 6.7.1 (edcfbbe)
C            3.08528496520139        5.89842781256855       -1.77893684172245
C            3.64645674100446        5.12000217374881       -0.59448090995188
C            5.01403361555711        4.52068982217432       -0.91590201562199
C            5.59355456133983        3.71547470671969        0.25433090511384
N            4.81325259652383        2.53993554593291        0.53432747289476
C            3.87860990631428        2.37874691621377        1.54155112097690
C            3.52478481316754        3.24756382824692        2.56214768886441
C            2.59042371741781        2.82075248438238        3.49152674625718
C            2.01165512679110        1.55635696689267        3.41448195745259
C            2.33957156736279        0.68131352389655        2.39517685125067
C            3.27490650847660        1.08719618901445        1.44912868483767
C            3.88482688107853        0.48380755134315        0.31784635913921
C            4.82244725867930        1.39659272192538       -0.20180579074901
C            5.49226519708941        0.75754148588024       -1.28061448045571
C            6.48598075371997        1.11736071105597       -2.18644726927180
C            6.88310180280362        0.19483328320550       -3.13617367298683
C            6.30077614208384       -1.06833989310055       -3.20467050851601
C            5.30667126061428       -1.45272241934118       -2.31903172083899
C            4.91138672667768       -0.54576235274093       -1.35103551973396
N            3.93831785198826       -0.68675766493090       -0.37347754823999
C            3.11887095869333       -1.80613560855504       -0.14197520938612
C            3.71226871284250       -3.06255019265176        0.11313636950777
C            2.89664530430108       -4.13776183109847        0.43451277784354
C            1.53593077318069       -3.96855647615566        0.46771741293183
C            0.91177556108002       -2.72444204632802        0.15921914047613
C            1.75131096033160       -1.63534789264162       -0.12612923768194
C           -0.50516697102095       -2.75579680443588        0.20691854974461
C           -1.41049602638548       -1.74176742924176       -0.14053411481158
C           -2.76898916825405       -1.95816011458752       -0.03045497805952
N           -3.66166387529171       -0.95053059001398       -0.41800520608476
C           -4.80192641371854       -1.13124763137945       -1.19855721292715
C           -5.28414651022851       -2.28895322015823       -1.78303245030691
C           -6.43755751369480       -2.20738082852573       -2.54944383154336
C           -7.09463515383128       -0.99593738063949       -2.74158535868608
C           -6.60703514286342        0.17472378143364       -2.19278322649634
C           -5.44682409149345        0.12280031308106       -1.42419880698972
C           -4.63111511079759        1.07593413281103       -0.75964035450682
C           -3.54965424423262        0.38439803371612       -0.16821879485129
C           -2.74475391744690        1.34554084791424        0.50433893873420
C           -1.58914914509379        1.30972379328306        1.28024999280749
C           -1.07762575535297        2.50065254477091        1.76436137772133
C           -1.69702016287901        3.71601172331079        1.49469621793080
C           -2.86023849456923        3.78012610364339        0.74256328038181
C           -3.38652901887967        2.59622306999615        0.25328854267444
N           -4.52205189584349        2.40552054571953       -0.51487217275977
C           -5.45167269432628        3.43554133146901       -0.89284940969291
C           -6.37867681417896        3.83128871137076        0.26418651510168
C           -7.31204354929311        2.69798996564792        0.68396560074507
C           -8.20655358197281        3.11468576340616        1.84597011954015
C           -3.27790685145412       -3.18717266721406        0.45875813871261
C           -2.39620341387236       -4.21066068191710        0.76728094435400
C           -1.04644582545571       -4.00720148409230        0.62861212624330
S            0.28207452479279       -5.14937959113957        0.88869290294379
O            0.38143151451277       -5.56589338892255        2.28455411840149
O            0.23432773660708       -6.26230296864795       -0.05493533716445
H            3.75196802288695        6.71376611850793       -2.05236799312359
H            2.96768837118556        5.24781613446030       -2.64315815108865
H            2.11283701550817        6.31809928166947       -1.53187468227745
H            2.95038540827303        4.32197998039949       -0.32671468574772
H            3.73583863719044        5.78818596207336        0.26502147865884
H            4.92768805215435        3.86754978332556       -1.78671653672359
H            5.71417014332795        5.32106063042824       -1.16181198451539
H            6.61250595235612        3.39848645099048        0.01208798950442
H            5.62765665736592        4.33306512562890        1.15347346834283
H            3.96383043823845        4.22906970784222        2.64718075490314
H            2.30731910967039        3.48223541867727        4.29673961603596
H            1.29747395289961        1.25302279051626        4.16601487712270
H            1.89211140182434       -0.29930155078254        2.33400912641108
H            6.93560659885227        2.09774296799458       -2.15272064065394
H            7.65516061234752        0.45803013359431       -3.84362269142393
H            6.62686466469246       -1.76197902884418       -3.96506447272979
H            4.84886675696470       -2.42813026826763       -2.38170440556571
H            4.78512146649879       -3.16308582792700        0.10153342793283
H            3.32014542884931       -5.10385275383097        0.66838916168955
H            1.33083439874631       -0.66291137700345       -0.33385827241725
H           -1.04741295137882       -0.80743081536678       -0.53958018858541
H           -4.76955481287236       -3.22949601100188       -1.66379254227716
H           -6.82789227148277       -3.10311608659993       -3.00837639727232
H           -7.99302536753067       -0.97107569788816       -3.33996759962545
H           -7.11631431624218        1.11005923900479       -2.36414588117374
H           -1.10608003576899        0.37142240584734        1.50386980167566
H           -0.17662323072201        2.48471731796129        2.35784833857649
H           -1.26702586262896        4.62699287335098        1.88276198663633
H           -3.33459000689369        4.72944997940918        0.54929288520415
H           -4.88373599918921        4.31045985398837       -1.22355914364429
H           -6.04114149601335        3.06636643269969       -1.73368711194408
H           -6.97077321211851        4.69188010791688       -0.05214632350294
H           -5.77316986948473        4.13330609239830        1.12071961618977
H           -7.93585664739741        2.40586164914357       -0.16334004590488
H           -6.72301273257564        1.82684761949234        0.97914370172168
H           -7.60708453473769        3.38717594055697        2.71227314410342
H           -8.86588388475984        2.29776223253898        2.13026353165657
H           -8.81968529321270        3.97038432241246        1.57044355487269
H           -4.33726710827265       -3.30929608679997        0.61035411632874
H           -2.75847827997702       -5.16654779428713        1.11752248246759

          :  Hamiltonian                  GFN2-xTB          :
         :: gradient norm              0.000067022615 Eh/a0 ::
         :: HOMO-LUMO gap              0.234192124902 eV    ::
         :: SCC energy              -148.799982090859 Eh    ::
         :: -> dispersion             -0.135307314158 Eh    ::
         :: -> Gsolv                  -0.078983052645 Eh    ::
         :: repulsion energy           2.433001986913 Eh    ::

    * Orbital Energies and Occupations

         #    Occupation            Energy/Eh            Energy/eV
      -------------------------------------------------------------
         1        2.0000           -0.7494529             -20.3937
       ...           ...                  ...                  ...
       124        2.0000           -0.4194062             -11.4126
       125        2.0000           -0.4187515             -11.3948
       126        2.0000           -0.4108083             -11.1787
       127        2.0000           -0.4095939             -11.1456
       128        2.0000           -0.3973927             -10.8136
       129        2.0000           -0.3962207             -10.7817
       130        2.0000           -0.3854926             -10.4898
       131        2.0000           -0.3818333             -10.3902
       132        2.0000           -0.3797491             -10.3335
       133        2.0000           -0.3756301             -10.2214
       134        1.5804           -0.3560607              -9.6889
       135        1.4196           -0.3554440              -9.6721
       136        0.9883           -0.2667461              -7.2585 (HOMO)
       137        0.0097           -0.2581396              -7.0243 (LUMO)
       138        0.0020           -0.2566464              -6.9837
       139                         -0.2359748              -6.4212
       140                         -0.2307423              -6.2788
       141                         -0.2215712              -6.0293
       142                         -0.2211111              -6.0167
       143                         -0.2182966              -5.9402
       144                         -0.2164474              -5.8898
       145                         -0.2013701              -5.4796
       146                         -0.2011755              -5.4743
       147                         -0.1896498              -5.1606
       ...                                ...                  ...
       265                          1.1537199              31.3943
      -------------------------------------------------------------
                  HL-Gap            0.0086065 Eh            0.2342 eV

     #   Z          covCN         q      C6AA      α(0)
     1   6 C        3.752    -0.105    22.562     6.774
     2   6 C        3.800    -0.054    21.540     6.608
     3   6 C        3.803    -0.065    21.752     6.640
     4   6 C        3.740    -0.008    20.797     6.507
     5   7 N        2.791    -0.008    21.420     6.874
     6   6 C        3.116     0.039    26.967     8.506
     7   6 C        2.909    -0.043    29.071     8.841
     8   6 C        2.921    -0.033    28.814     8.803
     9   6 C        2.919    -0.035    28.883     8.813
    10   6 C        2.909    -0.030    28.747     8.792
    11   6 C        3.058    -0.019    28.434     8.745
    12   6 C        3.192     0.017    27.126     8.493
    13   6 C        3.187     0.015    27.219     8.512
    14   6 C        3.056    -0.019    28.418     8.742
    15   6 C        2.910    -0.033    28.819     8.803
    16   6 C        2.918    -0.037    28.918     8.818
    17   6 C        2.922    -0.033    28.810     8.802
    18   6 C        2.908    -0.040    29.001     8.830
    19   6 C        3.116     0.041    26.920     8.499
    20   7 N        2.798    -0.010    21.445     6.878
    21   6 C        2.909     0.051    26.856     8.498
    22   6 C        2.920    -0.069    29.716     8.939
    23   6 C        2.924    -0.024    28.592     8.769
    24   6 C        2.986    -0.101    30.526     9.063
    25   6 C        3.112    -0.025    28.463     8.740
    26   6 C        2.918    -0.050    29.253     8.869
    27   6 C        3.111    -0.025    28.471     8.742
    28   6 C        2.917    -0.052    29.282     8.874
    29   6 C        2.907     0.050    26.874     8.500
    30   7 N        2.795    -0.004    21.330     6.859
    31   6 C        3.110     0.040    26.957     8.506
    32   6 C        2.909    -0.040    28.994     8.829
    33   6 C        2.922    -0.033    28.828     8.805
    34   6 C        2.918    -0.036    28.889     8.814
    35   6 C        2.910    -0.032    28.794     8.799
    36   6 C        3.050    -0.019    28.424     8.744
    37   6 C        3.186     0.017    27.171     8.505
    38   6 C        3.177     0.015    27.266     8.527
    39   6 C        3.053    -0.019    28.426     8.744
    40   6 C        2.910    -0.033    28.818     8.803
    41   6 C        2.918    -0.038    28.934     8.821
    42   6 C        2.922    -0.033    28.819     8.803
    43   6 C        2.909    -0.044    29.097     8.845
    44   6 C        3.119     0.038    26.980     8.507
    45   7 N        2.789    -0.006    21.371     6.866
    46   6 C        3.740    -0.009    20.808     6.509
    47   6 C        3.803    -0.066    21.759     6.641
    48   6 C        3.800    -0.053    21.531     6.607
    49   6 C        3.752    -0.105    22.558     6.773
    50   6 C        2.921    -0.071    29.763     8.946
    51   6 C        2.923    -0.024    28.597     8.770
    52   6 C        2.986    -0.102    30.567     9.069
    53  16 S        3.949     0.890   109.860    17.641
    54   8 O        0.860    -0.604    26.226     6.866
    55   8 O        0.860    -0.605    26.241     6.868
    56   1 H        0.925     0.037     2.487     2.466
    57   1 H        0.925     0.035     2.513     2.479
    58   1 H        0.925     0.037     2.486     2.466
    59   1 H        0.924     0.034     2.532     2.488
    60   1 H        0.924     0.036     2.498     2.472
    61   1 H        0.924     0.048     2.340     2.392
    62   1 H        0.924     0.051     2.302     2.373
    63   1 H        0.924     0.061     2.182     2.310
    64   1 H        0.924     0.065     2.142     2.289
    65   1 H        0.926     0.045     2.384     2.414
    66   1 H        0.926     0.041     2.442     2.444
    67   1 H        0.926     0.035     2.518     2.481
    68   1 H        0.926     0.033     2.550     2.497
    69   1 H        0.926     0.045     2.383     2.414
    70   1 H        0.926     0.039     2.457     2.451
    71   1 H        0.926     0.038     2.481     2.463
    72   1 H        0.926     0.038     2.480     2.463
    73   1 H        0.926     0.039     2.466     2.456
    74   1 H        0.926     0.024     2.673     2.557
    75   1 H        0.926     0.047     2.356     2.400
    76   1 H        0.926     0.050     2.322     2.383
    77   1 H        0.926     0.041     2.440     2.443
    78   1 H        0.926     0.038     2.475     2.460
    79   1 H        0.926     0.040     2.446     2.446
    80   1 H        0.926     0.043     2.405     2.425
    81   1 H        0.926     0.037     2.489     2.467
    82   1 H        0.926     0.039     2.455     2.450
    83   1 H        0.926     0.041     2.436     2.441
    84   1 H        0.926     0.046     2.368     2.407
    85   1 H        0.924     0.063     2.159     2.298
    86   1 H        0.924     0.066     2.132     2.283
    87   1 H        0.924     0.053     2.284     2.364
    88   1 H        0.924     0.049     2.327     2.386
    89   1 H        0.924     0.036     2.498     2.472
    90   1 H        0.924     0.032     2.561     2.503
    91   1 H        0.925     0.036     2.508     2.476
    92   1 H        0.925     0.035     2.510     2.478
    93   1 H        0.925     0.038     2.479     2.462
    94   1 H        0.926     0.041     2.439     2.442
    95   1 H        0.926     0.024     2.680     2.560

molecular dipole:
                 x           y           z       tot (Debye)
 q only:       -0.568       9.804      -1.748
   full:       -0.499       9.151      -1.648      23.668

 projected vibrational frequencies (cm⁻¹)
eigval :       -0.00    -0.00     0.00     0.00     0.00     0.00
eigval :        8.95    11.28    15.47    20.33    24.80    29.90
eigval :       30.86    34.41    35.99    47.88    55.51    60.08
eigval :       62.97    68.27    76.13    85.17    95.78    97.14
eigval :      106.98   107.57   124.33   125.55   132.09   140.14
eigval :      154.66   160.65   167.62   177.35   184.82   193.50
eigval :      199.63   204.36   211.21   230.42   232.82   239.17
eigval :      242.63   255.04   281.80   292.24   295.11   301.52
eigval :      317.51   319.83   332.55   339.33   345.92   350.16
eigval :      361.65   368.02   370.17   377.16   394.38   395.44
eigval :      399.50   409.58   412.95   414.61   424.38   440.00
eigval :      445.50   447.40   484.70   486.40   504.40   512.18
eigval :      518.46   524.52   527.89   529.48   532.09   539.67
eigval :      543.84   556.24   557.77   570.95   576.96   588.44
eigval :      593.97   604.66   622.63   629.29   631.20   645.82
eigval :      654.50   658.67   671.47   672.89   681.46   682.91
eigval :      688.06   690.32   690.58   711.05   735.08   758.87
eigval :      760.77   764.84   767.77   769.35   772.28   775.67
eigval :      785.68   789.11   806.01   822.27   834.70   840.18
eigval :      848.85   860.91   862.74   863.64   865.71   868.14
eigval :      869.65   876.36   878.66   884.21   894.75   899.98
eigval :      901.85   902.21   903.36   904.72   905.11   915.25
eigval :      916.33   921.89   923.91   927.79   962.65   970.21
eigval :      976.12   988.47  1001.00  1012.99  1016.17  1044.56
eigval :     1052.39  1054.09  1055.42  1059.04  1066.24  1069.10
eigval :     1070.78  1073.19  1074.66  1093.42  1093.85  1121.58
eigval :     1123.31  1127.26  1129.12  1132.68  1132.83  1137.10
eigval :     1145.02  1149.51  1158.25  1158.84  1172.46  1173.48
eigval :     1179.19  1181.06  1186.51  1187.69  1196.86  1211.91
eigval :     1212.58  1221.24  1230.73  1234.02  1235.83  1242.72
eigval :     1246.50  1251.34  1252.70  1258.77  1265.20  1274.45
eigval :     1280.40  1281.89  1297.80  1302.09  1303.24  1313.86
eigval :     1316.12  1316.57  1320.59  1323.72  1342.88  1344.30
eigval :     1350.82  1355.22  1359.52  1364.94  1365.36  1367.62
eigval :     1370.33  1374.78  1383.57  1393.74  1397.35  1398.20
eigval :     1406.77  1414.06  1414.33  1415.37  1434.62  1441.65
eigval :     1444.54  1445.21  1448.93  1451.38  1465.64  1471.49
eigval :     1472.29  1475.50  1476.02  1491.46  1491.62  1495.66
eigval :     1496.63  1500.45  1500.71  1501.37  1501.40  1514.85
eigval :     1523.31  1534.65  1546.67  1567.41  1573.12  1573.69
eigval :     1576.94  1580.15  1583.38  1584.51  1600.25  2953.22
eigval :     2954.13  2966.45  2968.78  2980.91  2982.33  2983.68
eigval :     2984.75  2991.07  2992.50  2996.21  3000.48  3026.45
eigval :     3026.47  3029.46  3029.71  3037.12  3037.35  3071.14
eigval :     3073.85  3078.00  3080.84  3081.27  3084.35  3085.26
eigval :     3085.98  3086.31  3088.47  3092.67  3093.39  3094.71
eigval :     3095.39  3097.20  3098.33  3098.81  3099.27  3102.22
eigval :     3106.28  3106.71  3111.13

   temp. (K)  partition function   enthalpy   heat capacity  entropy
                                   cal/mol     cal/K/mol   cal/K/mol   J/K/mol
 298.15  VIB  0.196E+23            28010.157    172.077    175.727
         ROT  0.123E+09              888.752      2.981     39.998
         INT  0.241E+31            28898.910    175.058    215.725
         TR   0.194E+29             1481.254      4.968     45.651
         TOT                       30380.1636   180.0259   261.3755  1093.5950

       T/K    H(0)-H(T)+PV         H(T)/Eh          T*S/Eh         G(T)/Eh
   ------------------------------------------------------------------------
    298.15    0.484139E-01    0.791573E+00    0.124188E+00    0.667385E+00
   ------------------------------------------------------------------------

         :::::::::::::::::::::::::::::::::::::::::::::::::::::
         ::                  THERMODYNAMIC                  ::
         :::::::::::::::::::::::::::::::::::::::::::::::::::::
         :: total free energy        -145.699595337817 Eh   ::
         ::.................................................::
         :: total energy             -146.366980098891 Eh   ::
         :: zero point energy           0.743158814495 Eh   ::
         :: G(RRHO) w/o ZPVE           -0.075774053421 Eh   ::
         :: G(RRHO) contrib.            0.667384761074 Eh   ::
         :::::::::::::::::::::::::::::::::::::::::::::::::::::

           -------------------------------------------------
          | TOTAL ENERGY             -146.366980098891 Eh   |
          | TOTAL ENTHALPY           -145.575407411951 Eh   |
          | TOTAL FREE ENERGY        -145.699595337817 Eh   |
          | GRADIENT NORM               0.000066881857 Eh/α |
          | HOMO-LUMO GAP               0.234195158789 eV   |
           -------------------------------------------------

 * finished run on 2025/07/19 at 11:27:19.982
