   * xtb version 6.7.1 (edcfbbe) compiled by 'albert@albert-system' on 2024-07-22

   ID    Z sym.   atoms
    1    6 C      1-4, 6-19, 21-29, 31-44, 46-52
    2    7 N      5, 20, 30, 45
    3   16 S      53
    4    8 O      54, 55
    5    1 H      56-95

          program call               : xtb data2507/toluene/DHID-DBS/DHID-DBS.xyz --gfn 2 --gbsa toluene --ohess vtight --parallel 40 --molden --ceasefiles --namespace data2507/toluene/DHID-DBS/DHID-DBS_toluene_S0_preOpt
      * Solvation model:               GBSA
        Solvent                        toluene
        Solvent mass                       9.2140E+01 g/mol
          :  Hamiltonian                  GFN2-xTB          :
 * total energy  :  -146.4194448 Eh     change       -0.2453817E-08 Eh
 * total energy  :  -146.4356617 Eh     change       -0.1621685E-01 Eh
 * total energy  :  -146.4401249 Eh     change       -0.4463228E-02 Eh
 * total energy  :  -146.4412583 Eh     change       -0.1133399E-02 Eh
 * total energy  :  -146.4420243 Eh     change       -0.7659385E-03 Eh
 * total energy  :  -146.4422886 Eh     change       -0.2643852E-03 Eh
 * total energy  :  -146.4423963 Eh     change       -0.1077082E-03 Eh
 * total energy  :  -146.4424546 Eh     change       -0.5825527E-04 Eh
 * total energy  :  -146.4425051 Eh     change       -0.5051659E-04 Eh
 * total energy  :  -146.4425566 Eh     change       -0.5145328E-04 Eh
 * total energy  :  -146.4428937 Eh     change       -0.3861771E-06 Eh
 * total energy  :  -146.4428942 Eh     change       -0.4060215E-06 Eh
 * total energy  :  -146.4428945 Eh     change       -0.3135281E-06 Eh
 * total energy  :  -146.4428946 Eh     change       -0.1761623E-06 Eh
 * total energy  :  -146.4428947 Eh     change       -0.1041185E-06 Eh
 * total energy  :  -146.4428949 Eh     change       -0.1235343E-06 Eh
 * total energy  :  -146.4428951 Eh     change       -0.1831369E-06 Eh
 * total energy  :  -146.4428954 Eh     change       -0.3170243E-06 Eh
 * total energy  :  -146.4428954 Eh     change       -0.3597876E-08 Eh
   *** GEOMETRY OPTIMIZATION CONVERGED AFTER 68 ITERATIONS ***

 final structure:
================
95
 xtb: 6.7.1 (edcfbbe)
C           10.69332592473344        2.35275839397694        1.48571421374548
C            9.68612976456364        2.72350370334414        0.40196110246592
C            8.69676544087197        1.60150378471644        0.08725988076783
C            7.72616468571738        1.31973097093484        1.24031786444316
N            6.75923628853435        0.31587357227593        0.88344786437146
C            6.87208511234455       -1.03874979000714        1.07673654885969
C            7.88201197321093       -1.75377772355079        1.71062116531299
C            7.74675376594310       -3.12149863694620        1.82001945121313
C            6.62404557381407       -3.78320163107839        1.31744709197374
C            5.61651201202556       -3.09561040478760        0.67858620068859
C            5.73204657006020       -1.71246345632594        0.53437801750556
C            4.94636792744382       -0.68027176590129       -0.03708572867128
C            5.59207485853191        0.53004218582510        0.19991861068578
C            4.77976449906741        1.57708494456257       -0.31349828102247
C            4.89824838267076        2.96132842300513       -0.40991594348280
C            3.89441597791642        3.67319925743812       -1.03176326225851
C            2.79004915885085        3.02479813964105       -1.58215593681100
C            2.64903038204106        1.65237669637315       -1.50634035773652
C            3.62992900963240        0.92427324840296       -0.84793615501475
N            3.73424686801130       -0.44763393380106       -0.66675923189335
C            2.83714231332065       -1.41254458893718       -1.10634409603425
C            3.31596879567102       -2.56763475974850       -1.73262456491815
C            2.43593923176778       -3.53773371242903       -2.18306704419513
C            1.08493098903051       -3.33397872363326       -2.01525969039401
C            0.58148470155994       -2.19180411112433       -1.39388289579287
C            1.46344172581574       -1.23056491550109       -0.92557329082716
C           -0.87980972688472       -2.14330670169058       -1.32702944648726
C           -1.64958801089927       -1.12940561884778       -0.77854141441577
C           -3.04308225584075       -1.21848160663323       -0.83420180503220
N           -3.83234609450608       -0.20225738429016       -0.31162863532031
C           -3.65736906183447        1.16256197713565       -0.49390377660551
C           -2.68626097128688        1.83642016205392       -1.22101728021752
C           -2.74456191093052        3.21596525844145       -1.27363192502272
C           -3.75816660246321        3.92535701652948       -0.63155917886088
C           -4.75420704935816        3.26996382960440        0.06103747950543
C           -4.71839784840251        1.87965554483660        0.13375937161519
C           -5.55167317338362        0.87971193235598        0.70444211652220
C           -5.00144965278560       -0.36529108839537        0.41419836577255
C           -5.79682549343167       -1.35095535073002        1.05066485311032
C           -5.74814706493080       -2.73886593542410        1.18728464632649
C           -6.73429744366559       -3.37040756754699        1.91129981335929
C           -7.76943001872084       -2.64668591938638        2.50760493485522
C           -7.83579678620192       -1.27351385763441        2.40660157460756
C           -6.84697551788578       -0.61364943089136        1.68508723746613
N           -6.67415483361424        0.73233033196605        1.47552908871257
C           -7.52937561581821        1.80575703454613        1.90781405289304
C           -8.42849160894590        2.31956389120407        0.77676424420078
C           -9.45808747747931        1.28321202614085        0.33207668773512
C          -10.32200001729100        1.80406692509284       -0.81062973269592
C           -3.65204724693512       -2.33402045429463       -1.41799446464605
C           -2.88330907463717       -3.35770745907883       -1.94648304245355
C           -1.51205094406724       -3.24567334004782       -1.90083384427321
S           -0.27508999159955       -4.38521795701799       -2.51238147295186
O           -0.28497358610130       -5.62420088118323       -1.76373456694562
O           -0.34201596422080       -4.51874017835412       -3.95226387221992
H           11.22198578267633        1.44000054025907        1.21831524182793
H           11.42585233067879        3.14831742960814        1.60395245859261
H           10.20404059528756        2.20209999522843        2.44469600613117
H           10.22922688053528        2.96812453120681       -0.51380875785116
H            9.13650948050316        3.61684357380524        0.70743385023087
H            8.11142202338830        1.87596909962269       -0.79382021922178
H            9.24336530935263        0.68583295224233       -0.14951263591647
H            8.26985323060472        0.97400601530749        2.12121533372193
H            7.18846250732878        2.23464787711580        1.50435405098433
H            8.75319459271021       -1.25761078330969        2.11074777759015
H            8.52110427259840       -3.69514053588239        2.30846238138031
H            6.54788384961578       -4.85456028479000        1.43533287593072
H            4.74655364312630       -3.61651114116247        0.30702270146725
H            5.76575756470414        3.46755797039191       -0.01501827871619
H            3.96947967243896        4.74781961394640       -1.11084067817993
H            2.03188093702668        3.60656515913479       -2.08530592044587
H            1.80564677404955        1.16431065728034       -1.96962557486179
H            4.37810064380538       -2.68754319818234       -1.87640751188116
H            2.79184527633361       -4.43170455032749       -2.67072956157697
H            1.10531562944688       -0.35637939479881       -0.40697768556081
H           -1.18787586527857       -0.28615295435675       -0.29167729194713
H           -1.91377994357429        1.30305143155090       -1.75276856808074
H           -1.99219938232762        3.75531282128363       -1.82996421993474
H           -3.76918865055095        5.00365563084322       -0.69320787162256
H           -5.55168685571058        3.82453950158199        0.53175846483146
H           -4.94408592340998       -3.30675576627171        0.74316877596585
H           -6.70890526450242       -4.44458650756399        2.02487680692137
H           -8.52919702891722       -3.17576205202383        3.06438857794231
H           -8.63885869409853       -0.73094773535807        2.88151560571915
H           -8.14147708048862        1.44987643299398        2.73891388138729
H           -6.89546266977694        2.62072204535844        2.27190138236393
H           -7.80290179307321        2.59512437442308       -0.07490848403474
H           -8.94244473524708        3.21821246113677        1.12374957757012
H           -8.94439928207031        0.37415638852698        0.01137085252938
H          -10.09854229578312        1.02233053359842        1.17798344118774
H           -9.70650537360504        2.04974989874127       -1.67372393304014
H          -10.85934470901756        2.70031610842336       -0.50680956393900
H          -11.04938527696615        1.05328029015911       -1.11131089093126
H           -4.72838168447696       -2.38141063896993       -1.46655258984418
H           -3.34098937636151       -4.22255115592872       -2.40072434820138

          :  Hamiltonian                  GFN2-xTB          :
         :: gradient norm              0.000054135220 Eh/a0 ::
         :: HOMO-LUMO gap              1.719803369099 eV    ::
         :: SCC energy              -148.892273121820 Eh    ::
         :: -> dispersion             -0.131991724581 Eh    ::
         :: -> Gsolv                  -0.066217027497 Eh    ::
         :: repulsion energy           2.449377748408 Eh    ::

    * Orbital Energies and Occupations

         #    Occupation            Energy/Eh            Energy/eV
      -------------------------------------------------------------
         1        2.0000           -0.7778976             -21.1677
       ...           ...                  ...                  ...
       123        2.0000           -0.4183949             -11.3851
       124        2.0000           -0.4175563             -11.3623
       125        2.0000           -0.4155509             -11.3077
       126        2.0000           -0.4123245             -11.2199
       127        2.0000           -0.4105706             -11.1722
       128        2.0000           -0.4102540             -11.1636
       129        2.0000           -0.4092422             -11.1360
       130        2.0000           -0.3880626             -10.5597
       131        2.0000           -0.3877613             -10.5515
       132        2.0000           -0.3686536             -10.0316
       133        2.0000           -0.3685759             -10.0295
       134        2.0000           -0.3494698              -9.5096
       135        2.0000           -0.3491488              -9.5008 (HOMO)
       136                         -0.2859472              -7.7810 (LUMO)
       137                         -0.2626888              -7.1481
       138                         -0.2568002              -6.9879
       139                         -0.2440711              -6.6415
       140                         -0.2427442              -6.6054
       141                         -0.2221310              -6.0445
       142                         -0.2126328              -5.7860
       143                         -0.2101310              -5.7180
       144                         -0.2085959              -5.6762
       145                         -0.2070915              -5.6352
       146                         -0.1925659              -5.2400
       ...                                ...                  ...
       265                          1.1763753              32.0108
      -------------------------------------------------------------
                  HL-Gap            0.0632016 Eh            1.7198 eV

     #   Z          covCN         q      C6AA      α(0)
     1   6 C        3.751    -0.105    22.569     6.775
     2   6 C        3.800    -0.054    21.552     6.610
     3   6 C        3.802    -0.062    21.693     6.631
     4   6 C        3.739    -0.002    20.690     6.490
     5   7 N        2.794    -0.039    21.986     6.964
     6   6 C        3.126     0.038    26.965     8.503
     7   6 C        2.909    -0.051    29.274     8.872
     8   6 C        2.921    -0.039    28.973     8.827
     9   6 C        2.919    -0.044    29.090     8.845
    10   6 C        2.909    -0.042    29.045     8.837
    11   6 C        3.066    -0.025    28.565     8.764
    12   6 C        3.180    -0.002    27.648     8.584
    13   6 C        3.200     0.008    27.280     8.511
    14   6 C        3.059    -0.018    28.405     8.740
    15   6 C        2.911    -0.038    28.956     8.824
    16   6 C        2.919    -0.041    29.026     8.835
    17   6 C        2.922    -0.037    28.920     8.819
    18   6 C        2.909    -0.051    29.260     8.870
    19   6 C        3.100     0.038    27.032     8.520
    20   7 N        2.797    -0.030    21.815     6.937
    21   6 C        2.910     0.075    26.332     8.414
    22   6 C        2.926    -0.040    28.993     8.830
    23   6 C        2.924    -0.017    28.434     8.745
    24   6 C        2.989    -0.085    30.129     9.004
    25   6 C        3.117     0.006    27.728     8.625
    26   6 C        2.922    -0.044    29.105     8.847
    27   6 C        3.116     0.006    27.729     8.625
    28   6 C        2.922    -0.045    29.108     8.848
    29   6 C        2.910     0.075    26.331     8.414
    30   7 N        2.797    -0.030    21.815     6.937
    31   6 C        3.100     0.038    27.031     8.520
    32   6 C        2.909    -0.051    29.261     8.870
    33   6 C        2.922    -0.037    28.919     8.819
    34   6 C        2.919    -0.041    29.025     8.835
    35   6 C        2.911    -0.039    28.968     8.825
    36   6 C        3.059    -0.018    28.399     8.739
    37   6 C        3.201     0.008    27.265     8.509
    38   6 C        3.179    -0.002    27.650     8.585
    39   6 C        3.067    -0.025    28.568     8.764
    40   6 C        2.909    -0.042    29.047     8.837
    41   6 C        2.919    -0.044    29.091     8.845
    42   6 C        2.921    -0.039    28.968     8.826
    43   6 C        2.909    -0.051    29.261     8.870
    44   6 C        3.124     0.038    26.960     8.503
    45   7 N        2.793    -0.035    21.925     6.954
    46   6 C        3.739    -0.002    20.697     6.491
    47   6 C        3.803    -0.065    21.737     6.638
    48   6 C        3.800    -0.052    21.510     6.603
    49   6 C        3.752    -0.104    22.538     6.770
    50   6 C        2.927    -0.040    28.994     8.830
    51   6 C        2.924    -0.017    28.435     8.745
    52   6 C        2.989    -0.085    30.130     9.004
    53  16 S        3.947     0.955   107.958    17.488
    54   8 O        0.860    -0.576    25.539     6.776
    55   8 O        0.860    -0.575    25.517     6.773
    56   1 H        0.925     0.037     2.491     2.468
    57   1 H        0.925     0.036     2.501     2.473
    58   1 H        0.925     0.036     2.506     2.476
    59   1 H        0.924     0.037     2.488     2.467
    60   1 H        0.924     0.035     2.520     2.482
    61   1 H        0.924     0.040     2.450     2.448
    62   1 H        0.924     0.041     2.431     2.438
    63   1 H        0.924     0.057     2.234     2.338
    64   1 H        0.924     0.055     2.263     2.353
    65   1 H        0.926     0.031     2.567     2.505
    66   1 H        0.926     0.026     2.646     2.544
    67   1 H        0.926     0.022     2.703     2.571
    68   1 H        0.926     0.023     2.681     2.561
    69   1 H        0.926     0.033     2.542     2.493
    70   1 H        0.926     0.030     2.591     2.517
    71   1 H        0.926     0.031     2.572     2.508
    72   1 H        0.926     0.032     2.557     2.501
    73   1 H        0.926     0.072     2.068     2.249
    74   1 H        0.926     0.054     2.264     2.353
    75   1 H        0.926     0.074     2.045     2.236
    76   1 H        0.926     0.074     2.045     2.236
    77   1 H        0.926     0.032     2.556     2.500
    78   1 H        0.926     0.031     2.573     2.509
    79   1 H        0.926     0.030     2.592     2.518
    80   1 H        0.926     0.034     2.532     2.488
    81   1 H        0.926     0.023     2.683     2.561
    82   1 H        0.926     0.022     2.703     2.571
    83   1 H        0.926     0.026     2.645     2.543
    84   1 H        0.926     0.030     2.586     2.515
    85   1 H        0.924     0.055     2.253     2.347
    86   1 H        0.924     0.053     2.282     2.362
    87   1 H        0.924     0.046     2.373     2.409
    88   1 H        0.924     0.045     2.385     2.415
    89   1 H        0.924     0.033     2.550     2.497
    90   1 H        0.924     0.032     2.556     2.500
    91   1 H        0.925     0.035     2.520     2.482
    92   1 H        0.925     0.036     2.501     2.473
    93   1 H        0.925     0.035     2.520     2.482
    94   1 H        0.926     0.072     2.068     2.249
    95   1 H        0.926     0.054     2.265     2.354

molecular dipole:
                 x           y           z       tot (Debye)
 q only:        0.261       4.457       1.910
   full:        0.245       4.092       1.777      11.355

 projected vibrational frequencies (cm⁻¹)
eigval :       -0.00    -0.00    -0.00    -0.00     0.00     0.00
eigval :        9.81    12.71    15.48    19.13    23.91    26.23
eigval :       32.73    34.63    38.21    41.64    50.88    60.22
eigval :       67.88    80.89    85.65    88.95    91.62    99.65
eigval :      110.16   111.71   123.12   131.55   133.11   154.51
eigval :      158.58   169.06   172.67   175.59   187.60   200.38
eigval :      207.62   209.64   219.83   231.98   236.43   246.04
eigval :      247.21   261.52   270.41   274.17   290.95   302.44
eigval :      321.80   323.00   329.79   334.59   353.39   362.95
eigval :      366.28   376.20   386.52   398.64   402.53   406.56
eigval :      408.52   416.30   418.71   423.49   431.19   441.95
eigval :      443.39   447.87   465.73   490.23   510.40   523.38
eigval :      526.88   530.86   534.11   535.56   536.59   543.86
eigval :      551.86   556.90   564.71   577.46   582.40   603.94
eigval :      610.56   619.21   624.89   626.89   649.18   658.81
eigval :      664.41   675.09   683.93   685.57   687.22   688.96
eigval :      689.64   697.80   698.98   714.55   738.18   766.54
eigval :      768.19   768.94   771.06   779.83   782.38   791.07
eigval :      806.59   824.77   827.61   832.73   845.90   859.00
eigval :      860.94   863.37   866.56   867.12   867.87   872.35
eigval :      879.07   879.60   885.18   897.83   899.85   901.31
eigval :      905.24   905.87   912.44   916.03   918.85   921.35
eigval :      924.31   926.22   928.01   929.01   964.04   970.45
eigval :      976.84   994.92  1006.06  1021.10  1022.59  1047.87
eigval :     1057.02  1066.20  1067.32  1073.78  1074.81  1076.92
eigval :     1078.06  1089.30  1094.20  1098.65  1116.28  1125.56
eigval :     1126.37  1135.81  1138.75  1140.94  1143.01  1149.60
eigval :     1152.05  1165.57  1168.70  1176.43  1178.00  1186.89
eigval :     1187.30  1188.52  1189.85  1196.66  1206.66  1215.07
eigval :     1218.87  1220.48  1236.34  1239.40  1246.55  1252.08
eigval :     1255.10  1260.96  1264.57  1266.99  1268.05  1277.78
eigval :     1286.03  1298.61  1306.13  1319.17  1327.28  1329.94
eigval :     1330.33  1344.54  1347.02  1348.04  1348.98  1355.11
eigval :     1356.64  1357.22  1365.21  1367.70  1369.52  1390.94
eigval :     1397.06  1400.18  1408.19  1410.22  1413.25  1413.30
eigval :     1426.86  1430.78  1438.13  1442.28  1451.23  1455.13
eigval :     1458.59  1462.03  1465.37  1478.42  1485.78  1490.79
eigval :     1494.38  1494.81  1495.13  1500.20  1501.39  1501.58
eigval :     1502.25  1503.17  1507.21  1537.93  1538.65  1562.73
eigval :     1564.99  1566.18  1572.74  1580.69  1581.31  1583.97
eigval :     1584.94  1602.13  1602.23  1618.40  1618.85  2946.29
eigval :     2959.67  2964.19  2965.66  2970.27  2977.89  2981.67
eigval :     2982.25  2984.94  2986.67  2990.51  2992.53  3025.16
eigval :     3027.48  3028.49  3031.59  3036.04  3041.89  3068.61
eigval :     3069.02  3074.07  3074.41  3075.51  3075.58  3081.40
eigval :     3081.74  3083.81  3084.13  3090.83  3091.06  3091.35
eigval :     3091.67  3094.75  3096.79  3098.00  3098.38  3109.76
eigval :     3111.70  3112.07  3117.00

   temp. (K)  partition function   enthalpy   heat capacity  entropy
                                   cal/mol     cal/K/mol   cal/K/mol   J/K/mol
 298.15  VIB  0.936E+22            27670.754    170.168    173.106
         ROT  0.157E+09              888.752      2.981     40.482
         INT  0.147E+31            28559.506    173.149    213.589
         TR   0.194E+29             1481.254      4.968     45.651
         TOT                       30040.7599   178.1171   259.2398  1084.6591

       T/K    H(0)-H(T)+PV         H(T)/Eh          T*S/Eh         G(T)/Eh
   ------------------------------------------------------------------------
    298.15    0.478730E-01    0.795873E+00    0.123173E+00    0.672699E+00
   ------------------------------------------------------------------------

         :::::::::::::::::::::::::::::::::::::::::::::::::::::
         ::                  THERMODYNAMIC                  ::
         :::::::::::::::::::::::::::::::::::::::::::::::::::::
         :: total free energy        -145.770195928535 Eh   ::
         ::.................................................::
         :: total energy             -146.442895364459 Eh   ::
         :: zero point energy           0.747999610653 Eh   ::
         :: G(RRHO) w/o ZPVE           -0.075300174729 Eh   ::
         :: G(RRHO) contrib.            0.672699435923 Eh   ::
         :::::::::::::::::::::::::::::::::::::::::::::::::::::

           -------------------------------------------------
          | TOTAL ENERGY             -146.442895364459 Eh   |
          | TOTAL ENTHALPY           -145.647022755626 Eh   |
          | TOTAL FREE ENERGY        -145.770195928535 Eh   |
          | GRADIENT NORM               0.000054116641 Eh/α |
          | HOMO-LUMO GAP               1.719802297183 eV   |
           -------------------------------------------------

 * finished run on 2025/07/19 at 09:47:29.031
