   * xtb version 6.7.1 (edcfbbe) compiled by 'albert@albert-system' on 2024-07-22

   ID    Z sym.   atoms
    1    6 C      1-4, 6-19, 21-29, 31-44, 46-52
    2    7 N      5, 20, 30, 45
    3   16 S      53
    4    8 O      54, 55
    5    1 H      56-95

          program call               : xtb data2507/toluene/DHID-DBS/DHID-DBS_toluene_S0_finalOpt.xtbopt.xyz --gfn 2 --uhf 2 --gbsa toluene --ohess vtight --parallel 40 --molden --ceasefiles --namespace data2507/toluene/DHID-DBS/DHID-DBS_toluene_T1_preOpt
      * Solvation model:               GBSA
        Solvent                        toluene
        Solvent mass                       9.2140E+01 g/mol
          :  Hamiltonian                  GFN2-xTB          :
 * total energy  :  -146.3593261 Eh     change       -0.1208247E-07 Eh
 * total energy  :  -146.3630759 Eh     change       -0.3749862E-02 Eh
 * total energy  :  -146.3643718 Eh     change       -0.1295853E-02 Eh
 * total energy  :  -146.3644852 Eh     change       -0.1134199E-03 Eh
 * total energy  :  -146.3645659 Eh     change       -0.8067597E-04 Eh
 * total energy  :  -146.3645883 Eh     change       -0.2242373E-04 Eh
 * total energy  :  -146.3646103 Eh     change       -0.2200286E-04 Eh
 * total energy  :  -146.3646220 Eh     change       -0.1170130E-04 Eh
 * total energy  :  -146.3646358 Eh     change       -0.1381004E-04 Eh
 * total energy  :  -146.3646587 Eh     change       -0.2290555E-04 Eh
 * total energy  :  -146.3666267 Eh     change       -0.1581122E-05 Eh
 * total energy  :  -146.3666283 Eh     change       -0.1577165E-05 Eh
 * total energy  :  -146.3666299 Eh     change       -0.1641531E-05 Eh
 * total energy  :  -146.3666317 Eh     change       -0.1721104E-05 Eh
 * total energy  :  -146.3666335 Eh     change       -0.1803376E-05 Eh
 * total energy  :  -146.3666354 Eh     change       -0.1894195E-05 Eh
 * total energy  :  -146.3666373 Eh     change       -0.1973245E-05 Eh
 * total energy  :  -146.3666394 Eh     change       -0.2020868E-05 Eh
 * total energy  :  -146.3666394 Eh     change       -0.4557677E-08 Eh
   *** GEOMETRY OPTIMIZATION CONVERGED AFTER 152 ITERATIONS ***

 final structure:
================
95
 xtb: 6.7.1 (edcfbbe)
C            5.54767651892007        6.50319811104418       -0.34066303852082
C            5.95779607560254        5.49144962954615        0.72344697736147
C            5.05400964077378        4.26113765609607        0.70393230643266
C            5.47428503360365        3.23153347763573        1.76002271692469
N            4.61882462198080        2.07617883526386        1.73762131643532
C            3.46371454838239        1.89494319738724        2.47721649927910
C            2.91337730264906        2.71445125714057        3.44917856049253
C            1.75331768303911        2.29338140038664        4.08019825025322
C            1.15458295349160        1.07929946913430        3.75869100534352
C            1.68613871216195        0.25223429720346        2.78568972713458
C            2.84273226546929        0.65752125769085        2.12513614804279
C            3.66983328956443        0.11540351914379        1.10306697542834
C            4.74100251556160        1.01102263815292        0.90457350630151
C            5.59185404922559        0.45986634905500       -0.08917261873430
C            6.76221717245318        0.86473536226647       -0.72566623969266
C            7.29733058732256        0.05430363104448       -1.70881884070622
C            6.67568048104670       -1.13545565687763       -2.07689527046492
C            5.50800622591858       -1.56091288134990       -1.46146395954199
C            4.97640515350045       -0.77678588827296       -0.45257981576746
N            3.81652658733039       -0.97028223957812        0.29211325088359
C            2.91651609749591       -2.03658673478880        0.16460537086879
C            3.40319563943555       -3.36473909309371        0.10583341994567
C            2.50515147397763       -4.40711913236925       -0.06328389999193
C            1.16208523268998       -4.13843618729229       -0.14626468247611
C            0.64371245146756       -2.81380348250969       -0.04483886215907
C            1.56494143205830       -1.76617568441737        0.09859130806412
C           -0.76915914634239       -2.73329107627339       -0.14258932266300
C           -1.58443161592752       -1.59821610589452       -0.02417648980557
C           -2.95310512498491       -1.71173025331158       -0.15859057976797
N           -3.74557311556900       -0.56276664125154       -0.03540605567870
C           -4.91075681305850       -0.43978988678613        0.71549079925215
C           -5.54626214699220       -1.38329272620018        1.50388086984112
C           -6.69823948077815       -1.00629416891772        2.17756079294188
C           -7.20442945981399        0.28692075010610        2.08143485030958
C           -6.56416756725623        1.24975435093032        1.32455299768445
C           -5.40301175716515        0.89888012429217        0.64101411397211
C           -4.46983282211819        1.58417022050199       -0.18077757832187
C           -3.47502903522530        0.66306328966023       -0.56705776902169
C           -2.56301773524506        1.35023027002006       -1.41462069752922
C           -1.42230829325621        1.00128836801358       -2.13249346742718
C           -0.77801709376096        1.97837954641188       -2.86918474781577
C           -1.25234268140886        3.28599763803433       -2.90254934950758
C           -2.39500026403537        3.65670340324264       -2.21171597462555
C           -3.05674749547500        2.69001583530429       -1.47155244671192
N           -4.20662813624501        2.80642550397641       -0.71111200375092
C           -5.03635259915486        3.97217453720563       -0.56255822519981
C           -6.28031407959048        3.91021961336676       -1.45793826244400
C           -5.94053249482732        4.00171065000010       -2.94392198128118
C           -7.19309323261706        3.91188114898195       -3.80802706706541
C           -3.56343973066273       -2.96088175754697       -0.42537116435727
C           -2.77168874311787       -4.09535490359764       -0.51365951406529
C           -1.41182320361750       -3.98631976210357       -0.36681057279188
S           -0.18305300903719       -5.26292712673644       -0.40481912783932
O           -0.33773490005076       -6.19772967235949        0.70579438114339
O           -0.10552049433932       -5.90965783884132       -1.71133963989130
H            4.52369629913187        6.83375385256937       -0.17989750345927
H            6.19828733454256        7.37414917019079       -0.30895591516995
H            5.61297937861121        6.06232022923682       -1.33320576718906
H            5.90975310175207        5.96179839079474        1.70813232701748
H            6.99230556230635        5.18566630287591        0.55241467716285
H            4.02074811289221        4.56176541548908        0.89050477838801
H            5.09191868268425        3.79280603516823       -0.28201533606827
H            6.49960698772949        2.90285000743775        1.57191662673026
H            5.43408895123655        3.67850539529501        2.75588920049578
H            3.36744826696814        3.65577319191396        3.71662949442519
H            1.30844342036343        2.91879475394310        4.83957651980049
H            0.25714600898936        0.77719380542430        4.27768977990586
H            1.22018050406733       -0.69164905496146        2.54740781522146
H            7.23923685416815        1.79662286226921       -0.46488978644778
H            8.20600663499788        0.35225224687517       -2.21008447388515
H            7.10567251171857       -1.73852291122866       -2.86234132991364
H            5.02205404996457       -2.47207548749667       -1.77334297101638
H            4.45644539642352       -3.55857865933004        0.22130068684437
H            2.84936166793308       -5.42945510416505       -0.12562852954795
H            1.22282917881235       -0.74305650958822        0.12223954074348
H           -1.14725584217464       -0.63835401122461        0.20351824403050
H           -5.15091970510016       -2.38197851488957        1.60488754122157
H           -7.20903167874456       -1.73216592375966        2.79217740937273
H           -8.10696741246775        0.54183501704892        2.61647911752442
H           -6.95589370347778        2.25351960730825        1.26859791385851
H           -1.05597659937671       -0.01379101817288       -2.11980243566606
H            0.10863274471801        1.72112635695735       -3.42934263342751
H           -0.72385675967038        4.02632489360898       -3.48409627642741
H           -2.75423270723340        4.67234028356644       -2.26310746518404
H           -5.34334016104302        4.03830785930996        0.48566108542631
H           -4.44342428913446        4.85536593538990       -0.80648459155760
H           -6.94139701894585        4.73472944919386       -1.18519505474853
H           -6.80937938540843        2.97475203434735       -1.26524886725668
H           -5.43351519535014        4.94852652055548       -3.14344445904169
H           -5.25790822295108        3.19319735195213       -3.21473837221631
H           -6.93485243275622        3.98527343053179       -4.86200457734074
H           -7.88368745245692        4.71756624900216       -3.56704652717917
H           -7.70251697518810        2.96407986069278       -3.64612924157905
H           -4.62677926303573       -3.01781204408061       -0.58750003251526
H           -3.21183223678012       -5.06377242286418       -0.70318569764677

          :  Hamiltonian                  GFN2-xTB          :
         :: gradient norm              0.000072070197 Eh/a0 ::
         :: HOMO-LUMO gap              0.238180519862 eV    ::
         :: SCC energy              -148.799374492462 Eh    ::
         :: -> dispersion             -0.131026474475 Eh    ::
         :: -> Gsolv                  -0.080857137430 Eh    ::
         :: repulsion energy           2.432735133383 Eh    ::

    * Orbital Energies and Occupations

         #    Occupation            Energy/Eh            Energy/eV
      -------------------------------------------------------------
         1        2.0000           -0.7496863             -20.4000
       ...           ...                  ...                  ...
       124        2.0000           -0.4194044             -11.4126
       125        2.0000           -0.4189256             -11.3995
       126        2.0000           -0.4110909             -11.1864
       127        2.0000           -0.4103583             -11.1664
       128        2.0000           -0.3968842             -10.7998
       129        2.0000           -0.3961182             -10.7789
       130        2.0000           -0.3857151             -10.4958
       131        2.0000           -0.3818688             -10.3912
       132        2.0000           -0.3797742             -10.3342
       133        2.0000           -0.3759119             -10.2291
       134        1.6243           -0.3562685              -9.6946
       135        1.3757           -0.3553039              -9.6683
       136        0.9890           -0.2669674              -7.2646 (HOMO)
       137        0.0089           -0.2582143              -7.0264 (LUMO)
       138        0.0021           -0.2568306              -6.9887
       139                         -0.2361519              -6.4260
       140                         -0.2311506              -6.2899
       141                         -0.2213835              -6.0242
       142                         -0.2210024              -6.0138
       143                         -0.2181992              -5.9375
       144                         -0.2162602              -5.8847
       145                         -0.2014436              -5.4816
       146                         -0.2010531              -5.4709
       147                         -0.1891570              -5.1472
       ...                                ...                  ...
       265                          1.1539618              31.4009
      -------------------------------------------------------------
                  HL-Gap            0.0087532 Eh            0.2382 eV

     #   Z          covCN         q      C6AA      α(0)
     1   6 C        3.752    -0.105    22.570     6.775
     2   6 C        3.801    -0.055    21.555     6.610
     3   6 C        3.803    -0.063    21.714     6.634
     4   6 C        3.740    -0.008    20.794     6.506
     5   7 N        2.790    -0.010    21.442     6.877
     6   6 C        3.118     0.038    26.984     8.508
     7   6 C        2.909    -0.044    29.095     8.845
     8   6 C        2.921    -0.033    28.825     8.804
     9   6 C        2.918    -0.036    28.905     8.816
    10   6 C        2.910    -0.033    28.817     8.802
    11   6 C        3.056    -0.019    28.425     8.744
    12   6 C        3.180     0.015    27.251     8.522
    13   6 C        3.189     0.016    27.182     8.505
    14   6 C        3.052    -0.019    28.420     8.743
    15   6 C        2.910    -0.033    28.812     8.802
    16   6 C        2.918    -0.036    28.901     8.816
    17   6 C        2.922    -0.033    28.828     8.805
    18   6 C        2.909    -0.040    29.001     8.830
    19   6 C        3.111     0.040    26.953     8.505
    20   7 N        2.796    -0.005    21.356     6.864
    21   6 C        2.908     0.051    26.859     8.498
    22   6 C        2.920    -0.070    29.736     8.942
    23   6 C        2.923    -0.024    28.592     8.769
    24   6 C        2.986    -0.101    30.544     9.066
    25   6 C        3.111    -0.024    28.454     8.739
    26   6 C        2.918    -0.052    29.280     8.873
    27   6 C        3.111    -0.024    28.453     8.739
    28   6 C        2.918    -0.052    29.284     8.874
    29   6 C        2.908     0.051    26.857     8.498
    30   7 N        2.796    -0.005    21.364     6.865
    31   6 C        3.111     0.040    26.953     8.505
    32   6 C        2.909    -0.040    29.003     8.831
    33   6 C        2.922    -0.033    28.827     8.805
    34   6 C        2.918    -0.036    28.903     8.816
    35   6 C        2.910    -0.033    28.828     8.804
    36   6 C        3.053    -0.019    28.418     8.743
    37   6 C        3.191     0.016    27.171     8.502
    38   6 C        3.179     0.015    27.252     8.523
    39   6 C        3.057    -0.019    28.433     8.745
    40   6 C        2.910    -0.033    28.822     8.803
    41   6 C        2.918    -0.036    28.907     8.817
    42   6 C        2.921    -0.033    28.824     8.804
    43   6 C        2.909    -0.044    29.085     8.843
    44   6 C        3.116     0.039    26.975     8.507
    45   7 N        2.790    -0.007    21.401     6.871
    46   6 C        3.740    -0.008    20.804     6.508
    47   6 C        3.803    -0.066    21.756     6.641
    48   6 C        3.800    -0.054    21.539     6.608
    49   6 C        3.752    -0.105    22.557     6.773
    50   6 C        2.920    -0.070    29.736     8.942
    51   6 C        2.923    -0.024    28.593     8.769
    52   6 C        2.986    -0.101    30.541     9.065
    53  16 S        3.949     0.891   109.845    17.640
    54   8 O        0.860    -0.605    26.230     6.867
    55   8 O        0.860    -0.604    26.226     6.866
    56   1 H        0.925     0.038     2.474     2.460
    57   1 H        0.925     0.038     2.474     2.460
    58   1 H        0.925     0.038     2.479     2.462
    59   1 H        0.924     0.037     2.493     2.469
    60   1 H        0.924     0.036     2.500     2.473
    61   1 H        0.924     0.046     2.368     2.406
    62   1 H        0.924     0.047     2.363     2.404
    63   1 H        0.924     0.063     2.166     2.302
    64   1 H        0.924     0.063     2.160     2.298
    65   1 H        0.926     0.045     2.380     2.412
    66   1 H        0.926     0.040     2.447     2.446
    67   1 H        0.926     0.035     2.515     2.480
    68   1 H        0.926     0.037     2.491     2.468
    69   1 H        0.926     0.045     2.382     2.413
    70   1 H        0.926     0.040     2.451     2.448
    71   1 H        0.926     0.038     2.478     2.462
    72   1 H        0.926     0.040     2.448     2.447
    73   1 H        0.926     0.041     2.436     2.441
    74   1 H        0.926     0.024     2.671     2.556
    75   1 H        0.926     0.050     2.318     2.381
    76   1 H        0.926     0.050     2.318     2.381
    77   1 H        0.926     0.040     2.452     2.449
    78   1 H        0.926     0.038     2.482     2.463
    79   1 H        0.926     0.040     2.453     2.449
    80   1 H        0.926     0.046     2.373     2.409
    81   1 H        0.926     0.037     2.495     2.470
    82   1 H        0.926     0.035     2.517     2.481
    83   1 H        0.926     0.040     2.444     2.444
    84   1 H        0.926     0.045     2.385     2.415
    85   1 H        0.924     0.063     2.166     2.302
    86   1 H        0.924     0.066     2.132     2.283
    87   1 H        0.924     0.052     2.296     2.370
    88   1 H        0.924     0.049     2.337     2.391
    89   1 H        0.924     0.036     2.499     2.472
    90   1 H        0.924     0.033     2.544     2.494
    91   1 H        0.925     0.036     2.505     2.475
    92   1 H        0.925     0.038     2.481     2.463
    93   1 H        0.925     0.035     2.519     2.482
    94   1 H        0.926     0.041     2.435     2.440
    95   1 H        0.926     0.024     2.671     2.556

molecular dipole:
                 x           y           z       tot (Debye)
 q only:        0.320       9.950       0.906
   full:        0.314       9.306       0.876      23.770

 projected vibrational frequencies (cm⁻¹)
eigval :       -0.00    -0.00     0.00     0.00     0.00     0.00
eigval :        5.18    11.16    14.38    17.37    19.82    22.38
eigval :       28.14    30.96    43.25    47.25    59.15    63.83
eigval :       69.61    78.79    84.96    89.72    95.25   101.12
eigval :      104.36   108.59   123.32   128.88   137.21   139.54
eigval :      153.41   157.19   170.82   180.25   183.60   191.84
eigval :      202.61   207.24   217.19   219.70   227.97   237.01
eigval :      248.12   254.00   264.61   285.89   296.86   310.54
eigval :      319.43   320.44   330.72   334.90   348.62   354.28
eigval :      356.42   370.59   372.73   374.65   396.96   398.34
eigval :      402.54   411.06   414.92   417.22   422.29   426.99
eigval :      443.37   446.21   461.78   484.30   503.59   511.08
eigval :      520.80   525.40   528.81   530.52   533.80   542.44
eigval :      548.08   557.66   561.47   570.27   578.35   592.53
eigval :      599.17   606.55   625.81   630.70   632.17   648.89
eigval :      654.92   659.31   670.90   672.97   682.71   683.31
eigval :      688.49   690.68   691.08   714.96   745.89   761.89
eigval :      764.45   765.55   766.05   770.94   774.49   779.05
eigval :      782.45   792.76   803.55   819.86   833.87   844.35
eigval :      847.54   850.65   863.69   864.32   866.79   867.58
eigval :      868.56   874.30   879.17   891.01   891.77   901.35
eigval :      901.89   904.62   905.56   906.96   918.38   919.29
eigval :      920.22   920.27   923.30   940.90   949.91   965.31
eigval :      976.82   988.21  1001.43  1014.70  1033.71  1046.94
eigval :     1049.69  1054.19  1055.75  1060.00  1065.76  1071.58
eigval :     1072.49  1073.73  1074.10  1093.49  1097.16  1121.91
eigval :     1125.45  1127.53  1129.50  1132.36  1137.33  1137.52
eigval :     1145.42  1149.03  1158.35  1159.79  1173.34  1174.06
eigval :     1179.52  1184.93  1186.71  1192.09  1199.67  1211.96
eigval :     1214.92  1221.47  1232.30  1237.18  1243.47  1244.92
eigval :     1247.12  1249.82  1253.31  1260.58  1262.45  1267.76
eigval :     1270.61  1276.36  1283.80  1297.86  1303.76  1316.77
eigval :     1317.24  1319.81  1323.65  1326.62  1341.05  1343.35
eigval :     1351.02  1355.53  1359.58  1361.45  1365.97  1370.37
eigval :     1370.76  1376.73  1380.21  1394.64  1397.26  1397.77
eigval :     1405.54  1414.48  1414.76  1415.84  1433.56  1439.16
eigval :     1445.10  1447.97  1450.88  1455.40  1466.35  1467.44
eigval :     1475.40  1478.63  1489.88  1492.88  1494.46  1494.82
eigval :     1495.16  1497.26  1500.54  1501.30  1502.61  1513.94
eigval :     1522.94  1534.37  1541.97  1566.75  1571.68  1575.98
eigval :     1576.22  1576.86  1582.02  1583.55  1598.39  2953.82
eigval :     2963.43  2966.99  2968.00  2977.80  2980.44  2981.82
eigval :     2983.43  2983.73  2991.76  2991.98  2996.72  3026.42
eigval :     3027.85  3029.48  3031.00  3037.11  3037.80  3070.87
eigval :     3072.98  3079.80  3080.11  3081.08  3081.92  3086.68
eigval :     3087.26  3088.25  3088.91  3091.49  3095.16  3095.76
eigval :     3096.04  3096.76  3097.69  3099.49  3100.51  3101.70
eigval :     3102.61  3111.14  3111.72

   temp. (K)  partition function   enthalpy   heat capacity  entropy
                                   cal/mol     cal/K/mol   cal/K/mol   J/K/mol
 298.15  VIB  0.442E+23            27982.174    172.203    176.185
         ROT  0.128E+09              888.752      2.981     40.082
         INT  0.567E+31            28870.926    175.184    216.267
         TR   0.194E+29             1481.254      4.968     45.651
         TOT                       30352.1800   180.1517   261.9178  1095.8641

       T/K    H(0)-H(T)+PV         H(T)/Eh          T*S/Eh         G(T)/Eh
   ------------------------------------------------------------------------
    298.15    0.483693E-01    0.791765E+00    0.124446E+00    0.667319E+00
   ------------------------------------------------------------------------

         :::::::::::::::::::::::::::::::::::::::::::::::::::::
         ::                  THERMODYNAMIC                  ::
         :::::::::::::::::::::::::::::::::::::::::::::::::::::
         :: total free energy        -145.699319927642 Eh   ::
         ::.................................................::
         :: total energy             -146.366639358700 Eh   ::
         :: zero point energy           0.743395750081 Eh   ::
         :: G(RRHO) w/o ZPVE           -0.076076319022 Eh   ::
         :: G(RRHO) contrib.            0.667319431058 Eh   ::
         :::::::::::::::::::::::::::::::::::::::::::::::::::::

           -------------------------------------------------
          | TOTAL ENERGY             -146.366639358700 Eh   |
          | TOTAL ENTHALPY           -145.574874330979 Eh   |
          | TOTAL FREE ENERGY        -145.699319927642 Eh   |
          | GRADIENT NORM               0.000072561690 Eh/α |
          | HOMO-LUMO GAP               0.238185798712 eV   |
           -------------------------------------------------

 * finished run on 2025/07/19 at 10:25:43.972
