   * xtb version 6.7.1 (edcfbbe) compiled by 'albert@albert-system' on 2024-07-22

   ID    Z sym.   atoms
    1    6 C      1-4, 6-19, 21-29, 31-44, 46-52
    2    7 N      5, 20, 30, 45
    3   16 S      53
    4    8 O      54, 55
    5    1 H      56-95

          program call               : xtb data2507/toluene/DHID-DBS/DHID-DBS_toluene_S0_crest.xyz --gfn 2 --gbsa toluene --ohess vtight --parallel 40 --molden --ceasefiles --namespace data2507/toluene/DHID-DBS/DHID-DBS_toluene_S0_finalOpt
      * Solvation model:               GBSA
        Solvent                        toluene
        Solvent mass                       9.2140E+01 g/mol
          :  Hamiltonian                  GFN2-xTB          :
 * total energy  :  -146.4404907 Eh     change       -0.3220094E-08 Eh
 * total energy  :  -146.4406258 Eh     change       -0.1350539E-03 Eh
 * total energy  :  -146.4407583 Eh     change       -0.1325080E-03 Eh
 * total energy  :  -146.4408036 Eh     change       -0.4535097E-04 Eh
 * total energy  :  -146.4408626 Eh     change       -0.5893900E-04 Eh
 * total energy  :  -146.4409233 Eh     change       -0.6068136E-04 Eh
 * total energy  :  -146.4409772 Eh     change       -0.5395394E-04 Eh
 * total energy  :  -146.4410358 Eh     change       -0.5855046E-04 Eh
 * total energy  :  -146.4411180 Eh     change       -0.8222135E-04 Eh
 * total energy  :  -146.4413049 Eh     change       -0.1868763E-03 Eh
 * total energy  :  -146.4430440 Eh     change       -0.2022164E-05 Eh
 * total energy  :  -146.4430458 Eh     change       -0.1805518E-05 Eh
 * total energy  :  -146.4430474 Eh     change       -0.1594510E-05 Eh
 * total energy  :  -146.4430488 Eh     change       -0.1390642E-05 Eh
 * total energy  :  -146.4430501 Eh     change       -0.1298162E-05 Eh
 * total energy  :  -146.4430514 Eh     change       -0.1323529E-05 Eh
 * total energy  :  -146.4430529 Eh     change       -0.1459279E-05 Eh
 * total energy  :  -146.4430545 Eh     change       -0.1579244E-05 Eh
 * total energy  :  -146.4430545 Eh     change       -0.6195080E-08 Eh
   *** GEOMETRY OPTIMIZATION CONVERGED AFTER 94 ITERATIONS ***

 final structure:
================
95
 xtb: 6.7.1 (edcfbbe)
C            4.62230165838953        6.42023992096215       -1.49490367409919
C            4.98956681323425        5.69046800957990       -0.20778728166831
C            4.26787626411251        4.34995191491415       -0.09595579961231
C            4.62368115553281        3.61438869781382        1.20078972335254
N            3.92027329159019        2.36461009301952        1.31215573719315
C            2.66645337529078        2.17986785372607        1.84004213039250
C            1.82871790437691        3.10805675954481        2.44771342617273
C            0.61589825682225        2.67432955243797        2.93803069793932
C            0.23959075164093        1.33246463067979        2.85355410267624
C            1.05281728504611        0.39867055783694        2.25165105624416
C            2.26948162822793        0.81227472909988        1.70488941386183
C            3.33852955425842        0.19811762530108        1.00039695478241
C            4.31990425087342        1.16256046142130        0.79389539382559
C            5.41332174934222        0.55116193956044        0.12234599740600
C            6.63942203218465        0.99692777875619       -0.36344134503758
C            7.45453970428936        0.10721042662621       -1.03058762174454
C            7.05017501977841       -1.20861506340236       -1.24474391287580
C            5.83732237505734       -1.67687873972266       -0.77511189571175
C            5.02378183685155       -0.80883822220947       -0.06082044445071
N            3.76506846987433       -1.02217432671776        0.49002012103562
C            2.96436447750834       -2.14617307620007        0.34562735901306
C            3.47644734252970       -3.44519153818509        0.43301923864428
C            2.65880957998702       -4.54210161057686        0.19930460662653
C            1.32117449256348       -4.33624003328970       -0.05346296218351
C            0.77494324862603       -3.05428373263980       -0.05586754894685
C            1.60074321711960       -1.95731044123985        0.10421765205014
C           -0.66637709621597       -3.01415750678725       -0.27939618286920
C           -1.47701349854147       -1.90296724946896       -0.13935472245719
C           -2.84454359300377       -2.00522865097212       -0.40906087967114
N           -3.63343403474330       -0.87631112957765       -0.23794293597399
C           -4.88028968589925       -0.80962834425780        0.37482319005950
C           -5.69500939998135       -1.83126841994475        0.84155896940229
C           -6.89282468758114       -1.49662680975762        1.44505833949881
C           -7.28402361633980       -0.16853219757029        1.60013769865243
C           -6.46768233819639        0.86145113986658        1.18317082730161
C           -5.25283049164125        0.55213540560495        0.57775428925317
C           -4.16104573719709        1.31332530225207        0.07907001973271
C           -3.19758660095852        0.43322003612275       -0.40255005657372
C           -2.13002795908356        1.20761527193304       -0.92792747746326
C           -0.92847268505119        0.94481720298450       -1.58936661011717
C           -0.11214414025227        1.99794561120727       -1.93506164482008
C           -0.47201726768576        3.31608771257957       -1.64794080565312
C           -1.66715530535202        3.61266222149772       -1.02963946105794
C           -2.50902128030076        2.56429772163754       -0.67520564299068
N           -3.73926060836044        2.60726225614617       -0.06710056203767
C           -4.50093178069068        3.77531562353058        0.28828253207984
C           -5.59527009266266        4.08923085668594       -0.73891084862469
C           -5.02558019564618        4.51824381930262       -2.08922029714666
C           -6.13074792397254        4.80242690801793       -3.09974675699091
C           -3.37457961738587       -3.22834350915197       -0.83396362727911
C           -2.57144293300460       -4.35797372677706       -0.90572773363777
C           -1.23030139567556       -4.24307618504801       -0.61628888402340
S            0.03737246317534       -5.50732619840275       -0.49930086883443
O           -0.26285510370699       -6.42812889151374        0.57723818363372
O            0.32749410723658       -6.11368549397786       -1.78196100825594
H            3.55233385834454        6.61449514688041       -1.53191928735352
H            5.14615622265378        7.37139754582048       -1.55759897010323
H            4.89138702214850        5.82232621842241       -2.36324329013272
H            4.72828057308739        6.31500397280621        0.64983601809635
H            6.06913063508478        5.52534241472926       -0.18031246837692
H            3.18795955499784        4.51083916283432       -0.12341048191453
H            4.53168109805372        3.71744262045168       -0.94665325230542
H            5.69640712325436        3.40821732575248        1.23324371232598
H            4.37066096232229        4.23587138821007        2.06402790017094
H            2.11545717166834        4.14491067043962        2.53561618065890
H           -0.05261753585725        3.38110271525448        3.40745780141493
H           -0.70813404465416        1.02363376818456        3.27070256471552
H            0.75745787387357       -0.63945220282424        2.21923653712998
H            6.94356611170194        2.02384518524171       -0.23026475632709
H            8.41137101755628        0.43538696839877       -1.40918689920416
H            7.69444544906323       -1.87733511194191       -1.79644789365711
H            5.53350984565534       -2.68950427754809       -0.98692958466973
H            4.51155856127893       -3.59856366009857        0.69080179070988
H            3.05735401973188       -5.54433348007743        0.22560746737809
H            1.21178536295482       -0.95724267932888        0.01255879965582
H           -1.07319093650247       -0.96741113348051        0.20929911450157
H           -5.40311570559867       -2.86629324471741        0.76405127815580
H           -7.53700301185464       -2.28418435656765        1.80760875091061
H           -8.23189464271413        0.05300491661936        2.06819414210098
H           -6.76280545972100        1.88935536749509        1.32905306598765
H           -0.64874351445461       -0.06705334910753       -1.84247394720228
H            0.82254468582548        1.80461691105617       -2.44146592509672
H            0.19220861387503        4.11855264658620       -1.93316722125914
H           -1.94073667364961        4.63854829678770       -0.83643118163532
H           -4.95685073219202        3.59954905123125        1.26790008579569
H           -3.81706856478322        4.62197889072444        0.37579180963795
H           -6.22580795019466        4.88647124027823       -0.34001571819294
H           -6.21749804870910        3.20217721178323       -0.87521720775617
H           -4.41861371073021        5.41717898469766       -1.95747688969511
H           -4.37504183483394        3.73095312820565       -2.47651245730352
H           -5.70603386321395        5.11037495407149       -4.05264097672173
H           -6.78213859399468        5.59722001756058       -2.74141318041017
H           -6.73524742038335        3.91293395841475       -3.26559228273402
H           -4.41302846739803       -3.29544086717256       -1.11447917938414
H           -2.98433365386915       -5.31229096556324       -1.19333585593482

          :  Hamiltonian                  GFN2-xTB          :
         :: gradient norm              0.000062835387 Eh/a0 ::
         :: HOMO-LUMO gap              1.817888778327 eV    ::
         :: SCC energy              -148.892260923585 Eh    ::
         :: -> dispersion             -0.136182916789 Eh    ::
         :: -> Gsolv                  -0.065265878077 Eh    ::
         :: repulsion energy           2.449206436845 Eh    ::

    * Orbital Energies and Occupations

         #    Occupation            Energy/Eh            Energy/eV
      -------------------------------------------------------------
         1        2.0000           -0.7765258             -21.1303
       ...           ...                  ...                  ...
       123        2.0000           -0.4178896             -11.3714
       124        2.0000           -0.4157293             -11.3126
       125        2.0000           -0.4150441             -11.2939
       126        2.0000           -0.4109199             -11.1817
       127        2.0000           -0.4101998             -11.1621
       128        2.0000           -0.4098364             -11.1522
       129        2.0000           -0.4088415             -11.1251
       130        2.0000           -0.3879967             -10.5579
       131        2.0000           -0.3873963             -10.5416
       132        2.0000           -0.3689194             -10.0388
       133        2.0000           -0.3685525             -10.0288
       134        2.0000           -0.3499768              -9.5234
       135        2.0000           -0.3496917              -9.5156 (HOMO)
       136                         -0.2828855              -7.6977 (LUMO)
       137                         -0.2610606              -7.1038
       138                         -0.2561520              -6.9702
       139                         -0.2436209              -6.6293
       140                         -0.2415032              -6.5716
       141                         -0.2213069              -6.0221
       142                         -0.2128451              -5.7918
       143                         -0.2102072              -5.7200
       144                         -0.2086757              -5.6784
       145                         -0.2063832              -5.6160
       146                         -0.1930351              -5.2528
       ...                                ...                  ...
       265                          1.1755871              31.9894
      -------------------------------------------------------------
                  HL-Gap            0.0668062 Eh            1.8179 eV

     #   Z          covCN         q      C6AA      α(0)
     1   6 C        3.752    -0.104    22.539     6.770
     2   6 C        3.801    -0.054    21.538     6.608
     3   6 C        3.803    -0.063    21.700     6.632
     4   6 C        3.740    -0.002    20.692     6.490
     5   7 N        2.794    -0.037    21.959     6.960
     6   6 C        3.127     0.038    26.950     8.500
     7   6 C        2.909    -0.050    29.252     8.869
     8   6 C        2.922    -0.038    28.956     8.824
     9   6 C        2.918    -0.043    29.074     8.842
    10   6 C        2.910    -0.043    29.076     8.842
    11   6 C        3.065    -0.025    28.553     8.762
    12   6 C        3.176    -0.003    27.685     8.592
    13   6 C        3.199     0.010    27.245     8.507
    14   6 C        3.059    -0.018    28.388     8.737
    15   6 C        2.911    -0.038    28.954     8.823
    16   6 C        2.919    -0.041    29.017     8.833
    17   6 C        2.922    -0.037    28.923     8.819
    18   6 C        2.910    -0.051    29.263     8.870
    19   6 C        3.094     0.039    27.015     8.519
    20   7 N        2.796    -0.029    21.808     6.936
    21   6 C        2.910     0.074    26.339     8.415
    22   6 C        2.924    -0.044    29.096     8.846
    23   6 C        2.923    -0.018    28.453     8.747
    24   6 C        2.987    -0.087    30.162     9.009
    25   6 C        3.126     0.004    27.731     8.623
    26   6 C        2.926    -0.046    29.145     8.853
    27   6 C        3.126     0.004    27.731     8.623
    28   6 C        2.926    -0.046    29.145     8.853
    29   6 C        2.910     0.074    26.337     8.415
    30   7 N        2.795    -0.030    21.824     6.938
    31   6 C        3.094     0.039    27.014     8.519
    32   6 C        2.910    -0.051    29.266     8.871
    33   6 C        2.922    -0.037    28.924     8.819
    34   6 C        2.919    -0.041    29.019     8.834
    35   6 C        2.911    -0.039    28.975     8.827
    36   6 C        3.059    -0.017    28.386     8.737
    37   6 C        3.201     0.010    27.227     8.502
    38   6 C        3.175    -0.003    27.688     8.594
    39   6 C        3.067    -0.025    28.559     8.763
    40   6 C        2.910    -0.043    29.079     8.842
    41   6 C        2.918    -0.043    29.078     8.843
    42   6 C        2.921    -0.038    28.953     8.824
    43   6 C        2.909    -0.050    29.241     8.867
    44   6 C        3.125     0.039    26.943     8.500
    45   7 N        2.793    -0.035    21.911     6.952
    46   6 C        3.739    -0.002    20.697     6.491
    47   6 C        3.803    -0.065    21.737     6.638
    48   6 C        3.800    -0.052    21.514     6.604
    49   6 C        3.752    -0.104    22.538     6.770
    50   6 C        2.924    -0.044    29.095     8.846
    51   6 C        2.922    -0.018    28.454     8.748
    52   6 C        2.987    -0.087    30.161     9.009
    53  16 S        3.955     0.954   107.990    17.490
    54   8 O        0.860    -0.577    25.559     6.778
    55   8 O        0.860    -0.577    25.557     6.778
    56   1 H        0.925     0.037     2.495     2.470
    57   1 H        0.925     0.037     2.491     2.468
    58   1 H        0.925     0.036     2.497     2.471
    59   1 H        0.924     0.034     2.531     2.488
    60   1 H        0.924     0.034     2.537     2.491
    61   1 H        0.924     0.042     2.416     2.431
    62   1 H        0.924     0.042     2.424     2.435
    63   1 H        0.924     0.054     2.265     2.354
    64   1 H        0.924     0.053     2.280     2.361
    65   1 H        0.926     0.032     2.561     2.502
    66   1 H        0.926     0.027     2.627     2.534
    67   1 H        0.926     0.023     2.686     2.563
    68   1 H        0.926     0.026     2.644     2.543
    69   1 H        0.926     0.034     2.534     2.489
    70   1 H        0.926     0.030     2.588     2.516
    71   1 H        0.926     0.030     2.583     2.513
    72   1 H        0.926     0.033     2.541     2.493
    73   1 H        0.926     0.069     2.095     2.263
    74   1 H        0.926     0.053     2.279     2.361
    75   1 H        0.926     0.078     2.005     2.214
    76   1 H        0.926     0.077     2.006     2.215
    77   1 H        0.926     0.033     2.546     2.495
    78   1 H        0.926     0.030     2.588     2.516
    79   1 H        0.926     0.030     2.591     2.517
    80   1 H        0.926     0.035     2.518     2.481
    81   1 H        0.926     0.025     2.652     2.546
    82   1 H        0.926     0.023     2.684     2.562
    83   1 H        0.926     0.027     2.628     2.535
    84   1 H        0.926     0.031     2.578     2.511
    85   1 H        0.924     0.053     2.286     2.365
    86   1 H        0.924     0.056     2.242     2.342
    87   1 H        0.924     0.045     2.385     2.415
    88   1 H        0.924     0.045     2.379     2.412
    89   1 H        0.924     0.033     2.549     2.497
    90   1 H        0.924     0.033     2.545     2.495
    91   1 H        0.925     0.035     2.518     2.481
    92   1 H        0.925     0.036     2.502     2.474
    93   1 H        0.925     0.034     2.524     2.484
    94   1 H        0.926     0.069     2.095     2.263
    95   1 H        0.926     0.053     2.279     2.361

molecular dipole:
                 x           y           z       tot (Debye)
 q only:       -0.070       5.349       0.503
   full:       -0.058       4.946       0.490      12.634

 projected vibrational frequencies (cm⁻¹)
eigval :       -0.00    -0.00    -0.00    -0.00     0.00     0.00
eigval :        9.55    13.23    16.00    17.79    21.43    30.32
eigval :       30.79    35.61    42.79    44.40    61.23    65.25
eigval :       80.52    82.06    85.77    89.59    94.36   101.61
eigval :      104.89   106.72   122.78   130.21   141.66   152.32
eigval :      154.68   163.78   180.96   184.63   186.91   196.40
eigval :      203.88   210.57   224.78   229.43   235.83   237.81
eigval :      250.10   254.77   268.06   292.72   297.33   312.62
eigval :      321.27   322.09   333.52   335.70   346.76   354.25
eigval :      364.60   374.84   380.54   394.83   403.32   410.77
eigval :      411.41   414.65   416.28   423.25   428.75   441.89
eigval :      445.96   450.81   462.53   487.04   511.32   524.56
eigval :      526.74   528.65   530.19   535.18   538.27   546.36
eigval :      549.16   558.08   569.28   578.20   583.40   604.31
eigval :      611.81   619.67   628.06   628.97   650.88   655.11
eigval :      666.58   672.15   683.04   686.59   687.36   689.28
eigval :      691.02   691.44   698.57   717.73   750.82   766.37
eigval :      766.88   767.32   769.40   771.72   781.31   790.89
eigval :      805.87   823.96   827.85   832.52   841.51   853.97
eigval :      857.43   861.59   864.80   865.13   868.51   874.82
eigval :      878.54   882.34   886.09   895.83   897.09   905.29
eigval :      905.73   909.34   913.50   913.97   920.44   920.85
eigval :      925.45   928.03   931.37   942.97   950.99   967.67
eigval :      981.53   996.80  1021.44  1022.82  1040.16  1057.45
eigval :     1059.47  1063.03  1063.75  1076.41  1077.09  1078.99
eigval :     1079.72  1087.70  1094.30  1098.87  1104.41  1125.81
eigval :     1128.64  1135.55  1137.48  1142.39  1144.52  1151.89
eigval :     1153.34  1167.19  1168.85  1177.11  1177.67  1184.95
eigval :     1187.89  1190.34  1195.11  1201.65  1213.46  1217.32
eigval :     1222.70  1228.12  1237.77  1238.84  1248.12  1251.54
eigval :     1257.56  1263.24  1264.08  1267.82  1274.85  1278.65
eigval :     1279.88  1284.85  1304.91  1320.87  1321.21  1323.01
eigval :     1327.45  1332.02  1339.77  1347.62  1353.35  1354.51
eigval :     1355.75  1364.66  1366.68  1368.74  1369.95  1389.28
eigval :     1396.97  1398.93  1408.70  1410.06  1413.86  1413.97
eigval :     1429.37  1431.90  1437.89  1441.71  1452.39  1454.08
eigval :     1457.11  1461.31  1464.57  1478.61  1492.52  1493.92
eigval :     1494.07  1494.78  1495.05  1500.02  1500.48  1500.77
eigval :     1501.53  1502.57  1503.62  1536.63  1537.15  1565.60
eigval :     1566.84  1568.59  1575.39  1579.95  1580.26  1583.68
eigval :     1583.97  1601.87  1602.16  1616.89  1617.01  2945.58
eigval :     2959.31  2963.15  2964.39  2972.72  2976.67  2978.74
eigval :     2979.51  2981.56  2985.42  2990.14  2991.13  3024.50
eigval :     3027.05  3028.24  3029.71  3035.83  3036.43  3068.87
eigval :     3069.27  3074.30  3074.43  3076.17  3076.37  3081.65
eigval :     3082.22  3083.47  3084.28  3091.49  3091.74  3092.32
eigval :     3092.56  3097.62  3097.93  3103.10  3104.27  3115.35
eigval :     3115.90  3122.64  3128.01

   temp. (K)  partition function   enthalpy   heat capacity  entropy
                                   cal/mol     cal/K/mol   cal/K/mol   J/K/mol
 298.15  VIB  0.550E+22            27615.267    170.605    172.698
         ROT  0.113E+09              888.752      2.981     39.838
         INT  0.625E+30            28504.019    173.586    212.536
         TR   0.194E+29             1481.254      4.968     45.651
         TOT                       29985.2733   178.5541   258.1871  1080.2547

       T/K    H(0)-H(T)+PV         H(T)/Eh          T*S/Eh         G(T)/Eh
   ------------------------------------------------------------------------
    298.15    0.477846E-01    0.796060E+00    0.122673E+00    0.673387E+00
   ------------------------------------------------------------------------

         :::::::::::::::::::::::::::::::::::::::::::::::::::::
         ::                  THERMODYNAMIC                  ::
         :::::::::::::::::::::::::::::::::::::::::::::::::::::
         :: total free energy        -145.769667335355 Eh   ::
         ::.................................................::
         :: total energy             -146.443054487969 Eh   ::
         :: zero point energy           0.748275589811 Eh   ::
         :: G(RRHO) w/o ZPVE           -0.074888437197 Eh   ::
         :: G(RRHO) contrib.            0.673387152614 Eh   ::
         :::::::::::::::::::::::::::::::::::::::::::::::::::::

           -------------------------------------------------
          | TOTAL ENERGY             -146.443054487969 Eh   |
          | TOTAL ENTHALPY           -145.646994323534 Eh   |
          | TOTAL FREE ENERGY        -145.769667335355 Eh   |
          | GRADIENT NORM               0.000062837041 Eh/α |
          | HOMO-LUMO GAP               1.817889214007 eV   |
           -------------------------------------------------

 * finished run on 2025/07/19 at 10:25:20.920
