   * xtb version 6.7.1 (edcfbbe) compiled by 'albert@albert-system' on 2024-07-22

   ID    Z sym.   atoms
    1    6 C      1-26
    2    1 H      27-42

          program call               : xtb data2507/gas/phenylperylene/phenylperylene_gas_S0_crest.xyz --gfn 2 --ohess vtight --parallel 40 --molden --ceasefiles --namespace data2507/gas/phenylperylene/phenylperylene_gas_S0_finalOpt
          :  Hamiltonian                  GFN2-xTB          :
 * total energy  :   -63.8519366 Eh     change       -0.1338677E-08 Eh
   *** GEOMETRY OPTIMIZATION CONVERGED AFTER 1 ITERATIONS ***

 final structure:
================
42
 xtb: 6.7.1 (edcfbbe)
C            5.05635950040000        0.78796606070000        0.63147966280000
C            4.95671426530000       -0.09742843590000       -0.42779444180000
C            3.76214381430000       -0.74797024680000       -0.68007678000000
C            2.64526673980000       -0.50680952760000        0.11489686360000
C            1.38852444070000       -1.24846309330000       -0.09531261000000
C            1.49168159230000       -2.65123627320000       -0.09505873430000
C            0.38439683000000       -3.44626944090000       -0.14896527710000
C           -0.90228548800000       -2.87358030250000       -0.10765641490000
C           -2.05659711150000       -3.67827589840000       -0.07013190310000
C           -3.29558949440000       -3.10375593000000        0.00897785350000
C           -3.42224465210000       -1.71742441920000        0.09346460250000
C           -2.31750660470000       -0.88436359010000        0.06675705860000
C           -2.43523676920000        0.56154647330000        0.20257344770000
C           -3.60936510400000        1.18252354170000        0.59029913430000
C           -3.72171796890000        2.57308349980000        0.61865940750000
C           -2.67658229590000        3.35993616490000        0.21847829030000
C           -1.45447575580000        2.77634575660000       -0.16977140970000
C           -0.37985689920000        3.56427138340000       -0.62759414730000
C            0.77469851520000        2.96885606080000       -1.05646995090000
C            0.94069356750000        1.58759933390000       -0.94886156950000
C           -0.04933426510000        0.78200032160000       -0.41429939990000
C            0.13473225410000       -0.64694379370000       -0.19187652700000
C           -1.02740870270000       -1.46000995740000       -0.08888914570000
C           -1.30988575150000        1.36511219140000       -0.11681442860000
C            2.75846003350000        0.37763670390000        1.18642261490000
C            3.95456048380000        1.01986844390000        1.43974227650000
H            5.98997713220000        1.29355886780000        0.82937963180000
H            5.81342694500000       -0.28511060000000       -1.05895106290000
H            3.68365475550000       -1.43230106210000       -1.51335114810000
H            2.47714592280000       -3.09193558740000       -0.04334095050000
H            0.47728900900000       -4.52212810860000       -0.18295395900000
H           -1.94358436860000       -4.75230590650000       -0.10052548490000
H           -4.18399127890000       -3.71822956040000        0.02504192140000
H           -4.41405473310000       -1.30175325730000        0.17523476170000
H           -4.46682944930000        0.59675258040000        0.88194622310000
H           -4.65266013710000        3.02088910540000        0.93517424490000
H           -2.77169605110000        4.43583477230000        0.19136611800000
H           -0.49711498860000        4.63778816990000       -0.66045533610000
H            1.57893632800000        3.56371851000000       -1.46433966520000
H            1.86327321220000        1.15346028820000       -1.29707618590000
H            1.89968296820000        0.55547121930000        1.81759587020000
H            4.03042116780000        1.70264191680000        2.27342400920000

          :  Hamiltonian                  GFN2-xTB          :
         :: gradient norm              0.000182190792 Eh/a0 ::
         :: HOMO-LUMO gap              1.828614629487 eV    ::
         :: SCC energy               -65.116864030255 Eh    ::
         :: -> dispersion             -0.058820105953 Eh    ::
         :: repulsion energy           1.264927456643 Eh    ::

    * Orbital Energies and Occupations

         #    Occupation            Energy/Eh            Energy/eV
      -------------------------------------------------------------
         1        2.0000           -0.6536710             -17.7873
       ...           ...                  ...                  ...
        48        2.0000           -0.4362444             -11.8708
        49        2.0000           -0.4285116             -11.6604
        50        2.0000           -0.4230019             -11.5105
        51        2.0000           -0.4199288             -11.4268
        52        2.0000           -0.4115360             -11.1985
        53        2.0000           -0.4043797             -11.0037
        54        2.0000           -0.4034022             -10.9771
        55        2.0000           -0.4025412             -10.9537
        56        2.0000           -0.3998823             -10.8814
        57        2.0000           -0.3981415             -10.8340
        58        2.0000           -0.3960961             -10.7783
        59        2.0000           -0.3872041             -10.5364
        60        2.0000           -0.3527301              -9.5983 (HOMO)
        61                         -0.2855298              -7.7697 (LUMO)
        62                         -0.2363046              -6.4302
        63                         -0.2264042              -6.1608
        64                         -0.2252648              -6.1298
        65                         -0.2226630              -6.0590
        66                         -0.2202610              -5.9936
        67                         -0.2099595              -5.7133
        68                         -0.1569144              -4.2699
        69                         -0.1541941              -4.1958
        70                         -0.1190282              -3.2389
        71                         -0.0889674              -2.4209
       ...                                ...                  ...
       120                          0.7373420              20.0641
      -------------------------------------------------------------
                  HL-Gap            0.0672003 Eh            1.8286 eV

     #   Z          covCN         q      C6AA      α(0)
     1   6 C        2.920    -0.032    28.797     8.800
     2   6 C        2.918    -0.030    28.749     8.793
     3   6 C        2.924    -0.036    28.885     8.814
     4   6 C        2.980     0.015    27.669     8.628
     5   6 C        2.976     0.003    27.951     8.672
     6   6 C        2.923    -0.035    28.873     8.812
     7   6 C        2.917    -0.038    28.948     8.823
     8   6 C        2.987     0.010    27.784     8.646
     9   6 C        2.921    -0.037    28.920     8.819
    10   6 C        2.913    -0.031    28.780     8.797
    11   6 C        2.922    -0.037    28.919     8.819
    12   6 C        2.975     0.005    27.897     8.664
    13   6 C        2.975     0.005    27.902     8.665
    14   6 C        2.922    -0.037    28.925     8.820
    15   6 C        2.913    -0.031    28.780     8.797
    16   6 C        2.920    -0.037    28.924     8.819
    17   6 C        2.986     0.012    27.749     8.641
    18   6 C        2.920    -0.037    28.927     8.820
    19   6 C        2.914    -0.031    28.767     8.795
    20   6 C        2.922    -0.037    28.913     8.818
    21   6 C        2.975     0.008    27.846     8.656
    22   6 C        2.976     0.001    28.001     8.680
    23   6 C        2.995     0.003    27.957     8.673
    24   6 C        2.999     0.003    27.954     8.673
    25   6 C        2.925    -0.031    28.772     8.796
    26   6 C        2.919    -0.029    28.720     8.788
    27   1 H        0.926     0.029     2.606     2.525
    28   1 H        0.926     0.029     2.605     2.524
    29   1 H        0.926     0.029     2.604     2.524
    30   1 H        0.926     0.032     2.564     2.504
    31   1 H        0.926     0.031     2.566     2.505
    32   1 H        0.926     0.030     2.579     2.512
    33   1 H        0.926     0.029     2.600     2.521
    34   1 H        0.926     0.032     2.556     2.500
    35   1 H        0.926     0.031     2.566     2.505
    36   1 H        0.926     0.029     2.603     2.523
    37   1 H        0.926     0.030     2.582     2.513
    38   1 H        0.926     0.030     2.582     2.513
    39   1 H        0.926     0.029     2.607     2.525
    40   1 H        0.926     0.035     2.520     2.483
    41   1 H        0.926     0.028     2.621     2.532
    42   1 H        0.926     0.029     2.597     2.520

molecular dipole:
                 x           y           z       tot (Debye)
 q only:        0.017      -0.022       0.000
   full:        0.023      -0.027       0.013       0.095

 projected vibrational frequencies (cm⁻¹)
eigval :       -0.00    -0.00    -0.00     0.00     0.00     0.00
eigval :       36.08    46.78    59.76    74.63    92.22   148.96
eigval :      159.40   174.65   205.01   233.57   239.44   268.84
eigval :      299.15   334.89   361.64   373.27   374.89   384.17
eigval :      417.69   439.21   456.41   493.79   494.68   510.94
eigval :      513.60   529.35   536.83   569.28   576.32   590.94
eigval :      595.21   612.90   626.00   662.99   674.37   692.23
eigval :      727.40   747.02   753.57   758.66   769.23   777.77
eigval :      788.51   811.19   830.75   834.27   877.21   877.87
eigval :      879.03   881.94   892.22   901.24   909.99   915.75
eigval :      919.78   921.78   925.52   930.19   931.91   979.47
eigval :     1009.79  1059.07  1084.06  1107.72  1120.05  1129.97
eigval :     1137.37  1153.28  1160.20  1176.39  1182.14  1197.45
eigval :     1198.98  1202.13  1214.14  1225.88  1231.09  1260.16
eigval :     1274.76  1282.27  1292.63  1314.74  1336.63  1346.39
eigval :     1352.39  1364.55  1382.87  1390.15  1415.42  1422.89
eigval :     1429.71  1438.54  1455.28  1480.11  1493.63  1509.93
eigval :     1530.30  1562.07  1578.97  1583.47  1588.15  1590.24
eigval :     1591.85  1599.08  3068.24  3070.28  3070.51  3072.56
eigval :     3072.86  3073.19  3078.37  3082.09  3082.63  3084.03
eigval :     3084.76  3086.20  3092.20  3096.07  3105.86  3120.47

   temp. (K)  partition function   enthalpy   heat capacity  entropy
                                   cal/mol     cal/K/mol   cal/K/mol   J/K/mol
 298.15  VIB  0.770E+06             9839.279     70.941     57.357
         ROT  0.953E+07              888.752      2.981     34.917
         INT  0.734E+13            10728.032     73.922     92.274
         TR   0.576E+28             1481.254      4.968     43.243
         TOT                       12209.2855    78.8898   135.5170   567.0031

       T/K    H(0)-H(T)+PV         H(T)/Eh          T*S/Eh         G(T)/Eh
   ------------------------------------------------------------------------
    298.15    0.194567E-01    0.343411E+00    0.643885E-01    0.279023E+00
   ------------------------------------------------------------------------

         :::::::::::::::::::::::::::::::::::::::::::::::::::::
         ::                  THERMODYNAMIC                  ::
         :::::::::::::::::::::::::::::::::::::::::::::::::::::
         :: total free energy         -63.572913836157 Eh   ::
         ::.................................................::
         :: total energy              -63.851936573612 Eh   ::
         :: zero point energy           0.323954495574 Eh   ::
         :: G(RRHO) w/o ZPVE           -0.044931758120 Eh   ::
         :: G(RRHO) contrib.            0.279022737454 Eh   ::
         :::::::::::::::::::::::::::::::::::::::::::::::::::::

           -------------------------------------------------
          | TOTAL ENERGY              -63.851936573612 Eh   |
          | TOTAL ENTHALPY            -63.508525343066 Eh   |
          | TOTAL FREE ENERGY         -63.572913836157 Eh   |
          | GRADIENT NORM               0.000182178372 Eh/α |
          | HOMO-LUMO GAP               1.828614599098 eV   |
           -------------------------------------------------

 * finished run on 2025/09/04 at 12:58:54.844
