   * xtb version 6.7.1 (edcfbbe) compiled by 'albert@albert-system' on 2024-07-22

   ID    Z sym.   atoms
    1    6 C      1-26
    2    1 H      27-42

          program call               : xtb data2507/gas/phenylperylene/phenylperylene_gas_T1_crest.xyz --gfn 2 --spinpol --tblite --uhf 2 --ohess vtight --parallel 40 --molden --ceasefiles --namespace data2507/gas/phenylperylene/phenylperylene_gas_T1_finalOpt
 * total energy  :   -63.7968830 Eh     change       -0.6108948E-08 Eh
 * total energy  :   -63.7968932 Eh     change       -0.1021185E-04 Eh
 * total energy  :   -63.7968975 Eh     change       -0.4267223E-05 Eh
 * total energy  :   -63.7968988 Eh     change       -0.1245605E-05 Eh
 * total energy  :   -63.7969005 Eh     change       -0.1742497E-05 Eh
 * total energy  :   -63.7969020 Eh     change       -0.1541933E-05 Eh
 * total energy  :   -63.7969031 Eh     change       -0.1064262E-05 Eh
 * total energy  :   -63.7969037 Eh     change       -0.5886511E-06 Eh
 * total energy  :   -63.7969038 Eh     change       -0.1477132E-06 Eh
 * total energy  :   -63.7969040 Eh     change       -0.1995482E-06 Eh
 * total energy  :   -63.7969043 Eh     change       -0.2261404E-06 Eh
 * total energy  :   -63.7969045 Eh     change       -0.1952279E-06 Eh
 * total energy  :   -63.7969046 Eh     change       -0.9072512E-07 Eh
   *** GEOMETRY OPTIMIZATION CONVERGED AFTER 13 ITERATIONS ***

 final structure:
================
42
 xtb: 6.7.1 (edcfbbe)
C            4.98340864148667        0.79637247209228        0.76086586768354
C            4.99191187633084       -0.18924894216200       -0.21390531279327
C            3.83132008758432       -0.86825322712307       -0.52821904237920
C            2.62985922320318       -0.56245237043378        0.11589276560900
C            1.40376602885777       -1.29915604140258       -0.17492426185993
C            1.46417916908448       -2.68271882750497       -0.26514309429347
C            0.32163123111835       -3.45475990186653       -0.27504239451290
C           -0.94971738506012       -2.86196318605414       -0.11726078923562
C           -2.10771213117464       -3.64139326310369       -0.01906855375405
C           -3.35073630158083       -3.03956560521780        0.13677687952686
C           -3.45931642721947       -1.67350106616482        0.20796932492515
C           -2.31815766552126       -0.83756596149996        0.11832439918933
C           -2.40536044408968        0.58321781556049        0.20315569969112
C           -3.58905845481240        1.25540302708284        0.59902612879552
C           -3.66609990635104        2.62717890297378        0.58751934189246
C           -2.58734840188528        3.39186042762139        0.16689862488162
C           -1.38463551617085        2.77722144152537       -0.21726802900500
C           -0.28789535093223        3.53595902154977       -0.66677956508746
C            0.87113086500771        2.90738942857807       -1.09933830790734
C            1.00347752086697        1.54390984052482       -1.00690831600802
C           -0.03221949990123        0.74046498616826       -0.45227784661212
C            0.11850722788743       -0.65149080172551       -0.22224263011353
C           -1.04889737475840       -1.44286397848535       -0.06773705978153
C           -1.27607795719254        1.35866747542734       -0.15605875844753
C            2.63711740847406        0.42932603823305        1.10399463200246
C            3.80248656432772        1.09725459996934        1.42103621682878
H            5.89287022746490        1.32447374837672        1.00598166917009
H            5.90925728013577       -0.42657032899734       -0.73324070669551
H            3.84141450463472       -1.61947123964074       -1.30497673562813
H            2.43041728276039       -3.16682347100354       -0.25931974940943
H            0.39161875977996       -4.53101941157624       -0.32985425113106
H           -2.02544935093088       -4.71658927036088       -0.07832962777204
H           -4.23733535182316       -3.65406992777644        0.19842884723931
H           -4.43706926918502       -1.23132928437313        0.30862115861833
H           -4.44082674737373        0.68630048466281        0.93417921005390
H           -4.57708638802139        3.11625039821440        0.90156974335087
H           -2.65757519575427        4.46922673154264        0.14202161882092
H           -0.37991144201012        4.61073467114279       -0.71667344818558
H            1.67453301182993        3.49547264769245       -1.51892471860645
H            1.88488416319845        1.06784545711276       -1.40316054165394
H            1.72405746802834        0.65312831163882        1.63575652238900
H            3.79183131558665        1.85657345178223        2.18936566330481

 projected vibrational frequencies (cm⁻¹)
eigval :       -0.00    -0.00     0.00     0.00     0.00     0.00
eigval :       40.38    44.68    62.90    76.66    90.15   154.43
eigval :      162.45   166.93   200.64   236.94   239.74   258.83
eigval :      290.06   328.98   359.10   365.43   375.47   383.01
eigval :      419.34   448.71   451.65   454.36   482.51   500.82
eigval :      504.54   518.91   528.71   560.86   573.47   581.29
eigval :      590.67   599.73   604.09   649.74   669.58   690.07
eigval :      713.47   735.04   739.10   741.67   749.99   757.64
eigval :      771.64   775.45   799.71   822.04   841.96   847.47
eigval :      850.37   871.32   873.41   893.42   900.75   901.67
eigval :      908.88   910.35   912.87   928.28   929.31   971.10
eigval :     1010.23  1033.29  1082.93  1104.00  1119.82  1122.99
eigval :     1131.22  1141.39  1152.97  1164.68  1181.58  1187.00
eigval :     1197.39  1199.81  1212.00  1219.22  1226.11  1264.57
eigval :     1280.60  1284.74  1297.96  1305.30  1319.45  1333.91
eigval :     1350.50  1359.38  1375.73  1378.70  1390.14  1402.81
eigval :     1404.81  1426.19  1434.94  1459.91  1465.04  1475.35
eigval :     1490.92  1500.87  1511.83  1517.01  1538.38  1554.26
eigval :     1564.33  1587.87  3069.68  3071.63  3071.94  3072.93
eigval :     3073.53  3074.56  3081.33  3083.54  3083.70  3086.65
eigval :     3087.12  3088.36  3093.69  3101.64  3112.38  3116.08

   temp. (K)  partition function   enthalpy   heat capacity  entropy
                                   cal/mol     cal/K/mol   cal/K/mol   J/K/mol
 298.15  VIB  0.801E+06            10003.450     72.304     58.186
         ROT  0.944E+07              888.752      2.981     34.897
         INT  0.756E+13            10892.202     75.285     93.084
         TR   0.576E+28             1481.254      4.968     43.243
         TOT                       12373.4562    80.2535   136.3265   570.3899

       T/K    H(0)-H(T)+PV         H(T)/Eh          T*S/Eh         G(T)/Eh
   ------------------------------------------------------------------------
    298.15    0.197184E-01    0.340812E+00    0.647731E-01    0.276038E+00
   ------------------------------------------------------------------------

         :::::::::::::::::::::::::::::::::::::::::::::::::::::
         ::                  THERMODYNAMIC                  ::
         :::::::::::::::::::::::::::::::::::::::::::::::::::::
         :: total free energy         -63.520866151674 Eh   ::
         ::.................................................::
         :: total energy              -63.796904598782 Eh   ::
         :: zero point energy           0.321093189202 Eh   ::
         :: G(RRHO) w/o ZPVE           -0.045054742095 Eh   ::
         :: G(RRHO) contrib.            0.276038447107 Eh   ::
         :::::::::::::::::::::::::::::::::::::::::::::::::::::

           -------------------------------------------------
          | TOTAL ENERGY              -63.796904598782 Eh   |
          | TOTAL ENTHALPY            -63.456093052036 Eh   |
          | TOTAL FREE ENERGY         -63.520866151674 Eh   |
          | GRADIENT NORM               0.000082391406 Eh/α |
           -------------------------------------------------

 * finished run on 2025/09/04 at 12:59:43.852
