   * xtb version 6.7.1 (edcfbbe) compiled by 'albert@albert-system' on 2024-07-22

   ID    Z sym.   atoms
    1    6 C      1-26
    2    1 H      27-42

          program call               : xtb data2507/gas/phenylperylene/phenylperylene_gas_S0_finalOpt.xtbopt.xyz --gfn 2 --spinpol --tblite --uhf 2 --ohess vtight --parallel 40 --molden --ceasefiles --namespace data2507/gas/phenylperylene/phenylperylene_gas_T1_preOpt
 * total energy  :   -63.7886166 Eh     change        0.3640415E-07 Eh
 * total energy  :   -63.7946202 Eh     change       -0.6003654E-02 Eh
 * total energy  :   -63.7961822 Eh     change       -0.1561945E-02 Eh
 * total energy  :   -63.7963205 Eh     change       -0.1383551E-03 Eh
 * total energy  :   -63.7964718 Eh     change       -0.1512688E-03 Eh
 * total energy  :   -63.7965626 Eh     change       -0.9082545E-04 Eh
 * total energy  :   -63.7966521 Eh     change       -0.8943001E-04 Eh
 * total energy  :   -63.7967349 Eh     change       -0.8284919E-04 Eh
 * total energy  :   -63.7967854 Eh     change       -0.5048514E-04 Eh
 * total energy  :   -63.7968179 Eh     change       -0.3254748E-04 Eh
 * total energy  :   -63.7969030 Eh     change       -0.3706911E-06 Eh
 * total energy  :   -63.7969032 Eh     change       -0.2390445E-06 Eh
 * total energy  :   -63.7969035 Eh     change       -0.2363675E-06 Eh
 * total energy  :   -63.7969036 Eh     change       -0.1584331E-06 Eh
 * total energy  :   -63.7969038 Eh     change       -0.1797817E-06 Eh
 * total energy  :   -63.7969039 Eh     change       -0.1155136E-06 Eh
 * total energy  :   -63.7969040 Eh     change       -0.1176548E-06 Eh
 * total energy  :   -63.7969041 Eh     change       -0.1047840E-06 Eh
 * total energy  :   -63.7969042 Eh     change       -0.8387878E-07 Eh
   *** GEOMETRY OPTIMIZATION CONVERGED AFTER 38 ITERATIONS ***

 final structure:
================
42
 xtb: 6.7.1 (edcfbbe)
C            4.98735727689577        0.85039758765075        0.70371847344761
C            4.99351751285130       -0.12303353696845       -0.28323722697966
C            3.83697865722268       -0.81312295002888       -0.58811627346295
C            2.64176188786094       -0.53078017829972        0.07794193401290
C            1.42125472175202       -1.27991634343770       -0.20507722056026
C            1.49969300125154       -2.66147399245193       -0.31086763761210
C            0.36791430111137       -3.44915380736929       -0.31887582262330
C           -0.90998607416268       -2.87564053641849       -0.14436783712866
C           -2.05630401874737       -3.67232305718073       -0.04699501833030
C           -3.30625988406537       -3.08985054504239        0.12557923642618
C           -3.43296893629502       -1.72640379050070        0.21459154447010
C           -2.30419368040166       -0.87358469525292        0.12657713314798
C           -2.41053392396329        0.54459307999093        0.23034069944762
C           -3.60092692280009        1.19491121091575        0.64250855268046
C           -3.69689467695924        2.56548781367797        0.65068849519831
C           -2.63112363078406        3.35076636405398        0.23496479416372
C           -1.42277774273723        2.75811278670863       -0.16569379388064
C           -0.33955331110835        3.53835746514397       -0.61115728797116
C            0.82399361843450        2.93199090766288       -1.06276133920555
C            0.97481448864691        1.56907930856223       -0.99292158867039
C           -0.04488264130063        0.74353179600929       -0.44100597850851
C            0.12699987481084       -0.64931400059068       -0.23148388590332
C           -1.02810807483379       -1.45870890651872       -0.07694986049155
C           -1.29457057299351        1.34040992937063       -0.12599070842937
C            2.65145768668414        0.44866652395540        1.07814899142925
C            3.81301336639735        1.12773601083336        1.38558148032679
H            5.89363086739976        1.38731942282419        0.94135561011779
H            5.90564723847773       -0.34199680922858       -0.81954235973421
H            3.84446064386215       -1.55454173610663       -1.37427003719081
H            2.47259352378158       -3.13200456055000       -0.31949068896300
H            0.45216792584159       -4.52369603931858       -0.38598878261788
H           -1.95950211417784       -4.74544655966363       -0.12018989052783
H           -4.18384932751680       -3.71724010393747        0.18630626204964
H           -4.41595048857019       -1.29930550520853        0.32841607100877
H           -4.44296856726097        0.60968150432530        0.97440788712140
H           -4.61272632259253        3.03743374242565        0.97662275421110
H           -2.71599957367076        4.42732827387984        0.22611763138343
H           -0.44612269327608        4.61246456453194       -0.64341341249387
H            1.61614333511637        3.53699372514857       -1.47966482674250
H            1.85848980655897        1.11105310023615       -1.40495951620595
H            1.74376606717643        0.65427857783916        1.62620515664297
H            3.80458047233647        1.87748819921680        2.16327716171270

 projected vibrational frequencies (cm⁻¹)
eigval :       -0.00    -0.00    -0.00     0.00     0.00     0.00
eigval :       40.22    45.03    62.85    76.66    90.12   154.27
eigval :      162.31   166.89   200.59   237.23   239.74   259.05
eigval :      289.98   328.95   359.24   365.41   375.48   382.97
eigval :      419.24   448.74   451.74   454.40   482.66   500.68
eigval :      504.62   518.93   528.70   560.88   573.46   581.33
eigval :      590.66   599.72   604.11   649.79   669.71   690.15
eigval :      713.50   735.03   739.12   741.68   750.02   757.62
eigval :      771.63   775.42   799.77   821.90   841.90   847.38
eigval :      850.51   871.31   873.48   893.51   900.91   901.71
eigval :      908.87   910.35   912.85   928.31   929.29   971.09
eigval :     1010.28  1033.29  1082.96  1104.02  1119.84  1122.96
eigval :     1131.26  1141.46  1153.02  1164.68  1181.53  1187.03
eigval :     1197.41  1199.75  1211.95  1219.28  1226.21  1264.59
eigval :     1280.47  1284.65  1297.94  1305.15  1319.38  1333.87
eigval :     1350.51  1359.30  1375.72  1378.68  1390.16  1402.96
eigval :     1404.82  1426.05  1434.91  1459.95  1464.99  1475.20
eigval :     1491.04  1500.88  1511.88  1516.93  1538.35  1554.30
eigval :     1564.38  1587.92  3069.64  3071.58  3071.89  3073.06
eigval :     3073.50  3074.48  3081.28  3083.46  3083.68  3086.54
eigval :     3087.14  3088.33  3093.61  3101.76  3112.48  3116.57

   temp. (K)  partition function   enthalpy   heat capacity  entropy
                                   cal/mol     cal/K/mol   cal/K/mol   J/K/mol
 298.15  VIB  0.799E+06            10003.055     72.306     58.187
         ROT  0.944E+07              888.752      2.981     34.898
         INT  0.755E+13            10891.807     75.287     93.085
         TR   0.576E+28             1481.254      4.968     43.243
         TOT                       12373.0611    80.2553   136.3280   570.3963

       T/K    H(0)-H(T)+PV         H(T)/Eh          T*S/Eh         G(T)/Eh
   ------------------------------------------------------------------------
    298.15    0.197177E-01    0.340813E+00    0.647738E-01    0.276039E+00
   ------------------------------------------------------------------------

         :::::::::::::::::::::::::::::::::::::::::::::::::::::
         ::                  THERMODYNAMIC                  ::
         :::::::::::::::::::::::::::::::::::::::::::::::::::::
         :: total free energy         -63.520865005736 Eh   ::
         ::.................................................::
         :: total energy              -63.796904234344 Eh   ::
         :: zero point energy           0.321095329493 Eh   ::
         :: G(RRHO) w/o ZPVE           -0.045056100885 Eh   ::
         :: G(RRHO) contrib.            0.276039228608 Eh   ::
         :::::::::::::::::::::::::::::::::::::::::::::::::::::

           -------------------------------------------------
          | TOTAL ENERGY              -63.796904234344 Eh   |
          | TOTAL ENTHALPY            -63.456091176874 Eh   |
          | TOTAL FREE ENERGY         -63.520865005736 Eh   |
          | GRADIENT NORM               0.000022686038 Eh/α |
           -------------------------------------------------

 * finished run on 2025/09/04 at 12:58:57.443
