   * xtb version 6.7.1 (edcfbbe) compiled by 'albert@albert-system' on 2024-07-22

   ID    Z sym.   atoms
    1    6 C      1-26
    2    1 H      27-42

          program call               : xtb data2507/gas/phenylperylene/phenylperylene.xyz --gfn 2 --ohess vtight --parallel 40 --molden --ceasefiles --namespace data2507/gas/phenylperylene/phenylperylene_gas_S0_preOpt
          :  Hamiltonian                  GFN2-xTB          :
 * total energy  :   -63.8367984 Eh     change       -0.8798793E-09 Eh
 * total energy  :   -63.8468671 Eh     change       -0.1006866E-01 Eh
 * total energy  :   -63.8496112 Eh     change       -0.2744155E-02 Eh
 * total energy  :   -63.8498713 Eh     change       -0.2600473E-03 Eh
 * total energy  :   -63.8500191 Eh     change       -0.1478011E-03 Eh
 * total energy  :   -63.8500907 Eh     change       -0.7164442E-04 Eh
 * total energy  :   -63.8502039 Eh     change       -0.1132456E-03 Eh
 * total energy  :   -63.8503658 Eh     change       -0.1618338E-03 Eh
 * total energy  :   -63.8505749 Eh     change       -0.2091006E-03 Eh
 * total energy  :   -63.8508286 Eh     change       -0.2537043E-03 Eh
 * total energy  :   -63.8519282 Eh     change       -0.4495354E-05 Eh
 * total energy  :   -63.8519327 Eh     change       -0.4515946E-05 Eh
 * total energy  :   -63.8519356 Eh     change       -0.2938641E-05 Eh
 * total energy  :   -63.8519365 Eh     change       -0.9050809E-06 Eh
 * total energy  :   -63.8519369 Eh     change       -0.3384410E-06 Eh
 * total energy  :   -63.8519371 Eh     change       -0.2179759E-06 Eh
 * total energy  :   -63.8519373 Eh     change       -0.1805812E-06 Eh
 * total energy  :   -63.8519374 Eh     change       -0.1190704E-06 Eh
 * total energy  :   -63.8519375 Eh     change       -0.6459815E-07 Eh
   *** GEOMETRY OPTIMIZATION CONVERGED AFTER 33 ITERATIONS ***

 final structure:
================
42
 xtb: 6.7.1 (edcfbbe)
C            4.94259883591906        0.79934436772064       -0.60689917438202
C            4.84639926024890       -0.04168125239117        0.48823657869868
C            3.65987872590274       -0.70034226779567        0.75686743885501
C            2.54727223520381       -0.51095990120738       -0.05784746029163
C            1.30036278150228       -1.26354363487054        0.17159276404330
C            1.42499086301225       -2.66349876571513        0.22563785379176
C            0.32954035969446       -3.47295387453368        0.30249120752923
C           -0.96539675826964       -2.92227749187882        0.23075215016270
C           -2.10714468105633       -3.74545762552631        0.21700512531648
C           -3.35408490813038       -3.19352954180187        0.10761080791282
C           -3.50113865686235       -1.81365303646536       -0.03191227835682
C           -2.40932013448110       -0.96335666043322       -0.03054456846030
C           -2.54762378686129        0.47414105872466       -0.22405030110813
C           -3.72750786850664        1.06138825647033       -0.64532353432888
C           -3.86028984676177        2.44792112509216       -0.72925899479889
C           -2.83070369037376        3.26573435550938       -0.35140000774461
C           -1.60354315540842        2.71655130909475        0.06974160454837
C           -0.54528687592578        3.53789148788410        0.50642071798145
C            0.61435482509027        2.97722538800631        0.96726105383924
C            0.80261987498232        1.59567901635539        0.91306529539568
C           -0.17053338694623        0.75507325074442        0.40202470250154
C            0.03691163802902       -0.67831283223339        0.23600126146495
C           -1.11189537693621       -1.51261432959305        0.15633920499500
C           -1.43726508401496        1.30673747707329        0.07261745960218
C            2.65691229951652        0.32926383645002       -1.16463845535255
C            3.84533786009344        0.97909478480088       -1.43431685107631
H            5.87011374490287        1.31096701830231       -0.81759083781475
H            5.69942948177628       -0.18792829439012        1.13511713323108
H            3.58383768936537       -1.34987017619669        1.61774077996019
H            2.41747668169524       -3.09039904830275        0.19771539080266
H            0.43856797068542       -4.54517983613669        0.37799242947510
H           -1.97817907180487       -4.81561230159944        0.29050234194584
H           -4.23303126523785       -3.82168566232931        0.11090604277696
H           -4.49854066564167       -1.41679827701816       -0.13630998264329
H           -4.57379108111837        0.45160326752919       -0.91990367494353
H           -4.79483333596346        2.86878616859823       -1.07112535518972
H           -2.94213797038495        4.34029556861244       -0.36748958579794
H           -0.67945223704993        4.60992490106938        0.49799682156734
H            1.40563543092876        3.59954211105077        1.35914196800100
H            1.72894774038405        1.18949674462339        1.28427496405133
H            1.80164160699620        0.46635847934020       -1.81058410507015
H            3.91887193180752        1.62663183736776       -2.29585693108896

          :  Hamiltonian                  GFN2-xTB          :
         :: gradient norm              0.000029025695 Eh/a0 ::
         :: HOMO-LUMO gap              1.829859908489 eV    ::
         :: SCC energy               -65.116905414190 Eh    ::
         :: -> dispersion             -0.058813567148 Eh    ::
         :: repulsion energy           1.264967951343 Eh    ::

    * Orbital Energies and Occupations

         #    Occupation            Energy/Eh            Energy/eV
      -------------------------------------------------------------
         1        2.0000           -0.6536748             -17.7874
       ...           ...                  ...                  ...
        48        2.0000           -0.4362436             -11.8708
        49        2.0000           -0.4285227             -11.6607
        50        2.0000           -0.4230120             -11.5107
        51        2.0000           -0.4199096             -11.4263
        52        2.0000           -0.4115074             -11.1977
        53        2.0000           -0.4043760             -11.0036
        54        2.0000           -0.4033909             -10.9768
        55        2.0000           -0.4025329             -10.9535
        56        2.0000           -0.3998841             -10.8814
        57        2.0000           -0.3981282             -10.8336
        58        2.0000           -0.3960967             -10.7783
        59        2.0000           -0.3872426             -10.5374
        60        2.0000           -0.3527478              -9.5988 (HOMO)
        61                         -0.2855017              -7.7689 (LUMO)
        62                         -0.2362194              -6.4279
        63                         -0.2264020              -6.1607
        64                         -0.2252679              -6.1299
        65                         -0.2226426              -6.0584
        66                         -0.2203025              -5.9947
        67                         -0.2100411              -5.7155
        68                         -0.1569123              -4.2698
        69                         -0.1541995              -4.1960
        70                         -0.1190349              -3.2391
        71                         -0.0890030              -2.4219
       ...                                ...                  ...
       120                          0.7373740              20.0650
      -------------------------------------------------------------
                  HL-Gap            0.0672461 Eh            1.8299 eV

     #   Z          covCN         q      C6AA      α(0)
     1   6 C        2.920    -0.032    28.797     8.800
     2   6 C        2.918    -0.030    28.749     8.793
     3   6 C        2.924    -0.036    28.885     8.814
     4   6 C        2.980     0.015    27.668     8.628
     5   6 C        2.976     0.003    27.951     8.672
     6   6 C        2.923    -0.035    28.873     8.812
     7   6 C        2.917    -0.038    28.948     8.823
     8   6 C        2.987     0.010    27.784     8.646
     9   6 C        2.921    -0.037    28.920     8.819
    10   6 C        2.913    -0.031    28.780     8.797
    11   6 C        2.922    -0.037    28.918     8.819
    12   6 C        2.975     0.005    27.897     8.664
    13   6 C        2.975     0.005    27.902     8.665
    14   6 C        2.922    -0.037    28.925     8.820
    15   6 C        2.913    -0.031    28.780     8.797
    16   6 C        2.920    -0.037    28.924     8.819
    17   6 C        2.986     0.012    27.749     8.641
    18   6 C        2.920    -0.037    28.927     8.820
    19   6 C        2.914    -0.031    28.767     8.795
    20   6 C        2.922    -0.037    28.913     8.818
    21   6 C        2.975     0.008    27.846     8.656
    22   6 C        2.976     0.001    28.001     8.680
    23   6 C        2.995     0.003    27.957     8.673
    24   6 C        2.999     0.003    27.954     8.673
    25   6 C        2.925    -0.031    28.772     8.797
    26   6 C        2.919    -0.029    28.719     8.788
    27   1 H        0.926     0.029     2.606     2.525
    28   1 H        0.926     0.029     2.605     2.524
    29   1 H        0.926     0.029     2.604     2.524
    30   1 H        0.926     0.032     2.564     2.504
    31   1 H        0.926     0.031     2.566     2.505
    32   1 H        0.926     0.030     2.579     2.512
    33   1 H        0.926     0.029     2.600     2.521
    34   1 H        0.926     0.032     2.556     2.500
    35   1 H        0.926     0.031     2.566     2.505
    36   1 H        0.926     0.029     2.603     2.523
    37   1 H        0.926     0.030     2.582     2.513
    38   1 H        0.926     0.030     2.582     2.513
    39   1 H        0.926     0.029     2.607     2.525
    40   1 H        0.926     0.035     2.520     2.483
    41   1 H        0.926     0.028     2.621     2.532
    42   1 H        0.926     0.029     2.596     2.520

molecular dipole:
                 x           y           z       tot (Debye)
 q only:        0.017      -0.022       0.001
   full:        0.023      -0.027      -0.011       0.095

 projected vibrational frequencies (cm⁻¹)
eigval :       -0.00    -0.00    -0.00     0.00     0.00     0.00
eigval :       35.97    46.79    59.67    74.33    92.13   148.87
eigval :      159.32   174.66   205.02   233.32   239.28   268.64
eigval :      299.16   335.02   361.58   373.10   374.83   384.14
eigval :      417.63   439.13   456.43   493.78   494.61   511.00
eigval :      513.64   529.37   536.86   569.29   576.32   590.94
eigval :      595.21   612.89   625.96   663.05   674.31   692.23
eigval :      727.38   747.02   753.57   758.65   769.23   777.78
eigval :      788.55   811.16   830.76   834.28   877.22   877.83
eigval :      879.05   881.96   892.13   901.18   910.01   915.74
eigval :      919.75   921.84   925.46   930.11   931.88   979.50
eigval :     1009.79  1059.09  1084.07  1107.71  1120.02  1129.94
eigval :     1137.33  1153.26  1160.18  1176.38  1182.14  1197.45
eigval :     1198.90  1202.13  1214.09  1225.85  1231.07  1260.15
eigval :     1274.78  1282.23  1292.57  1314.77  1336.63  1346.42
eigval :     1352.41  1364.57  1382.91  1390.21  1415.45  1422.91
eigval :     1429.73  1438.55  1455.31  1480.16  1493.63  1509.92
eigval :     1530.35  1562.10  1579.07  1583.51  1588.16  1590.24
eigval :     1591.85  1599.12  3068.40  3070.25  3070.43  3072.50
eigval :     3072.76  3073.12  3078.44  3082.02  3082.58  3084.03
eigval :     3084.69  3086.13  3092.20  3095.99  3105.72  3120.62

   temp. (K)  partition function   enthalpy   heat capacity  entropy
                                   cal/mol     cal/K/mol   cal/K/mol   J/K/mol
 298.15  VIB  0.778E+06             9840.943     70.938     57.373
         ROT  0.953E+07              888.752      2.981     34.917
         INT  0.741E+13            10729.696     73.919     92.290
         TR   0.576E+28             1481.254      4.968     43.243
         TOT                       12210.9494    78.8867   135.5329   567.0699

       T/K    H(0)-H(T)+PV         H(T)/Eh          T*S/Eh         G(T)/Eh
   ------------------------------------------------------------------------
    298.15    0.194594E-01    0.343409E+00    0.643961E-01    0.279013E+00
   ------------------------------------------------------------------------

         :::::::::::::::::::::::::::::::::::::::::::::::::::::
         ::                  THERMODYNAMIC                  ::
         :::::::::::::::::::::::::::::::::::::::::::::::::::::
         :: total free energy         -63.572924455179 Eh   ::
         ::.................................................::
         :: total energy              -63.851937462847 Eh   ::
         :: zero point energy           0.323949697900 Eh   ::
         :: G(RRHO) w/o ZPVE           -0.044936690232 Eh   ::
         :: G(RRHO) contrib.            0.279013007668 Eh   ::
         :::::::::::::::::::::::::::::::::::::::::::::::::::::

           -------------------------------------------------
          | TOTAL ENERGY              -63.851937462847 Eh   |
          | TOTAL ENTHALPY            -63.508528378383 Eh   |
          | TOTAL FREE ENERGY         -63.572924455179 Eh   |
          | GRADIENT NORM               0.000029029386 Eh/α |
          | HOMO-LUMO GAP               1.829860020420 eV   |
           -------------------------------------------------

 * finished run on 2025/09/04 at 12:58:12.229
