   * xtb version 6.7.1 (edcfbbe) compiled by 'albert@albert-system' on 2024-07-22

   ID    Z sym.   atoms
    1    6 C      1-22, 24-40, 42-48, 50-55
    2    7 N      23, 41, 49
    3    1 H      56-90

          program call               : xtb data2507/gas/PhCz-Pyr/PhCz-Pyr_gas_S0_crest.xyz --gfn 2 --ohess vtight --parallel 40 --molden --ceasefiles --namespace data2507/gas/PhCz-Pyr/PhCz-Pyr_gas_S0_finalOpt
          :  Hamiltonian                  GFN2-xTB          :
 * total energy  :  -137.9935429 Eh     change       -0.1483301E-08 Eh
 * total energy  :  -137.9935441 Eh     change       -0.1174527E-05 Eh
 * total energy  :  -137.9935454 Eh     change       -0.1334521E-05 Eh
 * total energy  :  -137.9935481 Eh     change       -0.2639710E-05 Eh
 * total energy  :  -137.9935491 Eh     change       -0.1021966E-05 Eh
 * total energy  :  -137.9935504 Eh     change       -0.1338303E-05 Eh
 * total energy  :  -137.9935525 Eh     change       -0.2022701E-05 Eh
 * total energy  :  -137.9935544 Eh     change       -0.1983365E-05 Eh
 * total energy  :  -137.9935562 Eh     change       -0.1774488E-05 Eh
 * total energy  :  -137.9935583 Eh     change       -0.2034044E-05 Eh
 * total energy  :  -137.9936037 Eh     change       -0.4908649E-06 Eh
 * total energy  :  -137.9936040 Eh     change       -0.3106002E-06 Eh
 * total energy  :  -137.9936043 Eh     change       -0.2877329E-06 Eh
 * total energy  :  -137.9936047 Eh     change       -0.3762038E-06 Eh
 * total energy  :  -137.9936051 Eh     change       -0.4665507E-06 Eh
 * total energy  :  -137.9936057 Eh     change       -0.5676978E-06 Eh
 * total energy  :  -137.9936064 Eh     change       -0.6513468E-06 Eh
 * total energy  :  -137.9936070 Eh     change       -0.6634496E-06 Eh
 * total energy  :  -137.9936070 Eh     change       -0.6010794E-08 Eh
   *** GEOMETRY OPTIMIZATION CONVERGED AFTER 44 ITERATIONS ***

 final structure:
================
90
 xtb: 6.7.1 (edcfbbe)
C           -9.66852984182239       -5.91284577730872       -0.70643743309334
C           -8.52947757939352       -5.98046108955023       -1.49098894537834
C           -7.54245075698088       -5.02044586278431       -1.36874592104238
C           -7.67908547388007       -3.97224498467760       -0.46139769403779
C           -6.63217790827199       -2.94739738505898       -0.33368298051533
C           -5.28109174261634       -3.32011557000109       -0.34137905613577
C           -4.26380268910887       -2.39486072028966       -0.22920315736181
C           -4.61009921808003       -1.05541374011573       -0.12219660769345
C           -5.96704477089083       -0.66125078129076       -0.08710785757194
C           -6.97316435585987       -1.60826511127152       -0.19408195208495
C           -5.97265019401231        0.76586757200091        0.08129833034794
C           -6.98573607132979        1.70720210297431        0.17049645681518
C           -6.65471118070230        3.04928956609723        0.30645008827730
C           -7.71058605433247        4.06804995778162        0.40669946717675
C           -8.84325072860545        3.83970234476994        1.18503880085740
C           -9.83687980287180        4.79568077687102        1.28200594077188
C           -9.71875206813400        5.99501303976462        0.59990142481523
C           -8.59876775493188        6.23208569134157       -0.17920032157436
C           -7.60236896235464        5.27863777354579       -0.27391219031588
C           -5.30625150613694        3.42939873325647        0.33877829128401
C           -4.28198241100616        2.50836772071745        0.25916240447412
C           -4.61876755040055        1.16708290189792        0.14592084955980
N           -3.80578057747384        0.05788291343157        0.02076445985490
C           -2.40608940039528        0.06302769570722        0.02976060448190
C           -1.69370256984941       -0.60188551328588       -0.96506191917913
C           -0.31408979981490       -0.59881403368930       -0.94970653912098
C            0.38999308347842        0.08058036083825        0.04314361341373
C            1.85786204230315        0.09297249764530        0.04530129840251
C            2.58185071861469       -1.06023256139124       -0.25591291605715
C            3.96010211009745       -1.04615894987068       -0.25436794736976
C            4.65894026288058        0.12615839169870        0.03042290397790
C            6.12584653938341        0.10874425224405        0.00611933525527
C            6.88725941796641        1.24346757355459       -0.27234873752173
C            8.27376729347929        1.09589637569682       -0.27339490318665
C            9.18975841526017        2.20994276883870       -0.55163565699745
C           10.47382667620529        2.18166190456419       -0.01055606603619
C           11.35664011304650        3.21697622736419       -0.24797726696946
C           10.97283856861722        4.28999550909489       -1.03627975479838
C            9.70344091664162        4.31931513362039       -1.58965552973981
C            8.81438923668758        3.28813777866843       -1.34925189934317
N            8.83530433688935       -0.07904850233311       -0.00036301469323
C            8.03592871525979       -1.11149115934487        0.24229462120675
C            8.66699076579996       -2.40357190806977        0.52754002563666
C            7.89108324130318       -3.49222168348536        0.91988826553863
C            8.48877453688121       -4.70838023993697        1.18859494598329
C            9.86230739795648       -4.85043586386480        1.06887360953505
C           10.63900632746126       -3.77068934371925        0.67895273521839
C           10.04719507598424       -2.55192829589379        0.40899955752669
N            6.70882495519745       -1.06317012804402        0.24625694474603
C            3.93889648658085        1.27835865757154        0.33771524372631
C            2.55922218410765        1.25822667895118        0.35050648369918
C           -0.33189918282007        0.74880268600513        1.03066216145167
C           -1.71156550309225        0.73445025434327        1.03282536708172
C           -8.83034826701429       -3.91363143642610        0.32085863920831
C           -9.81470303515835       -4.87648647236846        0.20031828571947
H          -10.43862716221701       -6.66421998568449       -0.80124196367923
H           -8.41147560595990       -6.78428463232424       -2.20348630172613
H           -6.66427942542467       -5.06970999792180       -1.99641384849207
H           -5.03146166409100       -4.36855735655643       -0.41198015160933
H           -3.23139789551113       -2.71016578878108       -0.21089522554337
H           -8.00899588029040       -1.30415728662910       -0.18822050599706
H           -8.01933567921066        1.40193813806644        0.10695493390300
H           -8.93316448235772        2.91271783540434        1.73292802954429
H          -10.70676834048815        4.60614054807990        1.89442577895557
H          -10.49596102252294        6.74129380883354        0.67485388245320
H           -8.50302037385820        7.16401354823744       -0.71777375340682
H           -6.73984128132425        5.46314907556197       -0.89803308491909
H           -5.06314413227945        4.47603749634584        0.44800322061646
H           -3.25105033241590        2.82844573781965        0.27506616381021
H           -2.22890896103037       -1.10348177758883       -1.75743489829025
H            0.22792540724096       -1.10279098210758       -1.73626338572319
H            2.05459295876209       -1.97840794613441       -0.47011850884551
H            4.52292599132682       -1.93907305282221       -0.47851677956758
H            6.42367344155235        2.19311412878667       -0.47967508037605
H           10.75715242450889        1.33801257662239        0.59958211340279
H           12.34774018817344        3.18898492580815        0.18067094283111
H           11.66268533188375        5.09968655707195       -1.22369126670417
H            9.40571565706088        5.14913089368239       -2.21414613274120
H            7.83524666728563        3.31251445733927       -1.80478619636725
H            6.82403332947770       -3.36277203367797        1.01199587766524
H            7.88449605065842       -5.55048769814922        1.49367955934520
H           10.32746854512121       -5.80257111688329        1.27957612093192
H           11.70949597300653       -3.88285386455521        0.58520541310306
H           10.63596988138407       -1.70220705079149        0.10052564321426
H            4.45733739662581        2.19162429572169        0.59057914170944
H            2.01423617016972        2.16243373996654        0.57996202630805
H            0.19579213246614        1.25840627134734        1.82332066169101
H           -2.26047944952199        1.22837450944924        1.82064173239987
H           -8.94256801441643       -3.11743641750711        1.04261637543780
H          -10.69941709351199       -4.82039345914687        0.81824178335945

          :  Hamiltonian                  GFN2-xTB          :
         :: gradient norm              0.000057352692 Eh/a0 ::
         :: HOMO-LUMO gap              2.119145117687 eV    ::
         :: SCC energy              -140.631079047353 Eh    ::
         :: -> dispersion             -0.118143578271 Eh    ::
         :: repulsion energy           2.637472012896 Eh    ::

    * Orbital Energies and Occupations

         #    Occupation            Energy/Eh            Energy/eV
      -------------------------------------------------------------
         1        2.0000           -0.6771128             -18.4252
       ...           ...                  ...                  ...
       117        2.0000           -0.4093332             -11.1385
       118        2.0000           -0.4039009             -10.9907
       119        2.0000           -0.4031447             -10.9701
       120        2.0000           -0.4001333             -10.8882
       121        2.0000           -0.3998924             -10.8816
       122        2.0000           -0.3994920             -10.8707
       123        2.0000           -0.3942049             -10.7269
       124        2.0000           -0.3924729             -10.6797
       125        2.0000           -0.3890243             -10.5859
       126        2.0000           -0.3888019             -10.5798
       127        2.0000           -0.3754664             -10.2170
       128        2.0000           -0.3573669              -9.7244
       129        2.0000           -0.3565087              -9.7011 (HOMO)
       130                         -0.2786315              -7.5819 (LUMO)
       131                         -0.2690292              -7.3207
       132                         -0.2510076              -6.8303
       133                         -0.2434245              -6.6239
       134                         -0.2416310              -6.5751
       135                         -0.2344231              -6.3790
       136                         -0.2321411              -6.3169
       137                         -0.2291670              -6.2360
       138                         -0.2274549              -6.1894
       139                         -0.2225278              -6.0553
       140                         -0.2204429              -5.9986
       ...                                ...                  ...
       255                          0.7500702              20.4104
      -------------------------------------------------------------
                  HL-Gap            0.0778771 Eh            2.1191 eV

     #   Z          covCN         q      C6AA      α(0)
     1   6 C        2.920    -0.032    28.803     8.801
     2   6 C        2.918    -0.030    28.753     8.793
     3   6 C        2.925    -0.035    28.868     8.811
     4   6 C        2.977     0.011    27.770     8.644
     5   6 C        2.977    -0.001    28.043     8.686
     6   6 C        2.929    -0.038    28.940     8.822
     7   6 C        2.908    -0.051    29.277     8.872
     8   6 C        3.076     0.045    26.910     8.505
     9   6 C        3.066    -0.017    28.375     8.735
    10   6 C        2.918    -0.038    28.933     8.821
    11   6 C        3.065    -0.017    28.374     8.735
    12   6 C        2.918    -0.038    28.933     8.821
    13   6 C        2.977    -0.001    28.045     8.687
    14   6 C        2.977     0.011    27.770     8.644
    15   6 C        2.925    -0.035    28.864     8.811
    16   6 C        2.918    -0.030    28.751     8.793
    17   6 C        2.920    -0.032    28.803     8.801
    18   6 C        2.918    -0.030    28.753     8.793
    19   6 C        2.925    -0.035    28.868     8.811
    20   6 C        2.929    -0.038    28.942     8.823
    21   6 C        2.908    -0.052    29.280     8.873
    22   6 C        3.077     0.045    26.911     8.505
    23   7 N        2.802    -0.042    22.043     6.973
    24   6 C        2.913     0.063    26.588     8.455
    25   6 C        2.920    -0.043    29.077     8.843
    26   6 C        2.925    -0.033    28.822     8.804
    27   6 C        2.976     0.007    27.858     8.658
    28   6 C        2.977     0.013    27.729     8.638
    29   6 C        2.923    -0.033    28.825     8.804
    30   6 C        2.924    -0.025    28.625     8.774
    31   6 C        2.981     0.003    27.955     8.673
    32   6 C        2.969     0.110    25.576     8.295
    33   6 C        2.912    -0.066    29.653     8.929
    34   6 C        2.969     0.110    25.572     8.295
    35   6 C        2.980     0.005    27.915     8.667
    36   6 C        2.926    -0.024    28.604     8.771
    37   6 C        2.918    -0.027    28.688     8.783
    38   6 C        2.920    -0.027    28.668     8.780
    39   6 C        2.919    -0.029    28.721     8.788
    40   6 C        2.923    -0.031    28.774     8.797
    41   7 N        1.850    -0.271    27.886     7.826
    42   6 C        2.946     0.181    24.117     8.055
    43   6 C        2.985     0.002    27.982     8.677
    44   6 C        2.924    -0.027    28.669     8.781
    45   6 C        2.918    -0.029    28.717     8.788
    46   6 C        2.920    -0.026    28.658     8.779
    47   6 C        2.918    -0.029    28.715     8.787
    48   6 C        2.924    -0.027    28.667     8.780
    49   7 N        1.850    -0.272    27.900     7.828
    50   6 C        2.921    -0.032    28.791     8.799
    51   6 C        2.924    -0.034    28.854     8.809
    52   6 C        2.924    -0.033    28.821     8.804
    53   6 C        2.920    -0.043    29.078     8.843
    54   6 C        2.925    -0.035    28.864     8.811
    55   6 C        2.918    -0.030    28.750     8.793
    56   1 H        0.926     0.027     2.624     2.533
    57   1 H        0.926     0.027     2.622     2.532
    58   1 H        0.926     0.029     2.598     2.521
    59   1 H        0.926     0.032     2.556     2.500
    60   1 H        0.926     0.028     2.612     2.527
    61   1 H        0.926     0.034     2.535     2.490
    62   1 H        0.926     0.034     2.536     2.490
    63   1 H        0.926     0.030     2.589     2.516
    64   1 H        0.926     0.028     2.618     2.530
    65   1 H        0.926     0.027     2.623     2.533
    66   1 H        0.926     0.027     2.623     2.533
    67   1 H        0.926     0.029     2.598     2.520
    68   1 H        0.926     0.032     2.559     2.502
    69   1 H        0.926     0.028     2.617     2.530
    70   1 H        0.926     0.041     2.430     2.437
    71   1 H        0.926     0.038     2.469     2.457
    72   1 H        0.926     0.036     2.498     2.472
    73   1 H        0.926     0.054     2.273     2.358
    74   1 H        0.926     0.032     2.558     2.501
    75   1 H        0.926     0.053     2.286     2.364
    76   1 H        0.926     0.035     2.517     2.481
    77   1 H        0.926     0.034     2.534     2.490
    78   1 H        0.926     0.033     2.549     2.497
    79   1 H        0.926     0.032     2.560     2.502
    80   1 H        0.926     0.053     2.279     2.361
    81   1 H        0.926     0.033     2.540     2.492
    82   1 H        0.926     0.033     2.546     2.495
    83   1 H        0.926     0.033     2.538     2.491
    84   1 H        0.926     0.054     2.274     2.358
    85   1 H        0.926     0.033     2.543     2.494
    86   1 H        0.926     0.034     2.528     2.486
    87   1 H        0.926     0.038     2.474     2.460
    88   1 H        0.926     0.041     2.430     2.438
    89   1 H        0.926     0.030     2.590     2.517
    90   1 H        0.926     0.028     2.619     2.531

molecular dipole:
                 x           y           z       tot (Debye)
 q only:        0.508       0.155      -0.026
   full:        0.392       0.552      -0.116       1.747

 projected vibrational frequencies (cm⁻¹)
eigval :       -0.00    -0.00    -0.00     0.00     0.00     0.00
eigval :        5.87     7.64    11.30    21.91    27.37    31.04
eigval :       34.22    36.18    37.98    39.04    48.83    52.05
eigval :       55.00    59.22    69.44    80.95    87.61    92.54
eigval :       96.81   105.70   113.40   124.71   139.10   153.37
eigval :      168.49   188.18   198.35   215.79   217.01   225.93
eigval :      236.78   246.86   264.42   267.57   277.71   295.09
eigval :      305.57   323.52   345.98   365.60   366.90   368.03
eigval :      370.43   372.34   373.05   378.26   381.97   386.17
eigval :      398.30   402.89   412.75   427.77   432.12   450.50
eigval :      454.23   472.60   478.64   483.87   495.93   506.90
eigval :      530.02   552.02   556.96   571.53   583.13   587.17
eigval :      587.31   587.64   592.02   601.11   603.92   606.84
eigval :      607.57   618.55   619.33   624.14   629.98   635.53
eigval :      660.43   664.50   667.66   673.40   673.59   685.37
eigval :      686.25   707.74   708.26   716.60   738.06   740.51
eigval :      753.98   759.07   761.87   764.82   779.93   807.48
eigval :      823.10   825.58   830.67   835.85   844.16   849.85
eigval :      861.99   869.37   872.58   874.45   875.55   877.45
eigval :      879.60   882.06   882.80   900.97   901.31   904.83
eigval :      907.06   910.08   910.74   912.81   917.62   926.75
eigval :      928.46   928.95   929.68   930.40   931.71   931.89
eigval :      931.94   932.52   933.12   933.52   936.26   968.02
eigval :      972.33   981.97   988.98   993.16  1018.44  1026.71
eigval :     1027.89  1072.64  1072.92  1076.21  1078.82  1080.48
eigval :     1086.81  1087.35  1090.02  1105.45  1111.50  1122.07
eigval :     1122.25  1125.85  1134.18  1135.69  1143.50  1160.36
eigval :     1170.89  1181.03  1181.65  1182.58  1182.82  1184.16
eigval :     1195.44  1197.95  1200.84  1201.66  1204.40  1208.33
eigval :     1222.09  1224.36  1225.16  1246.43  1250.74  1266.17
eigval :     1270.47  1272.44  1279.54  1282.24  1282.46  1282.89
eigval :     1292.27  1307.32  1309.00  1315.43  1319.58  1320.83
eigval :     1322.13  1323.56  1328.33  1347.04  1359.90  1363.39
eigval :     1366.68  1379.83  1392.94  1402.30  1409.36  1416.52
eigval :     1431.05  1432.32  1433.83  1436.60  1439.37  1462.28
eigval :     1468.67  1471.23  1478.40  1481.46  1495.22  1498.30
eigval :     1507.25  1519.77  1533.15  1555.06  1563.84  1569.36
eigval :     1575.18  1582.92  1583.64  1584.42  1586.06  1590.06
eigval :     1594.28  1596.39  1597.60  1598.76  1602.66  1603.85
eigval :     1615.76  3068.92  3068.97  3070.35  3070.39  3071.28
eigval :     3072.78  3074.47  3077.26  3077.32  3078.51  3078.64
eigval :     3079.45  3079.99  3080.14  3082.13  3082.80  3083.02
eigval :     3083.76  3084.20  3086.89  3087.25  3087.35  3090.30
eigval :     3090.42  3090.70  3091.67  3091.74  3092.45  3094.54
eigval :     3095.41  3102.84  3103.34  3105.15  3105.65  3108.78

   temp. (K)  partition function   enthalpy   heat capacity  entropy
                                   cal/mol     cal/K/mol   cal/K/mol   J/K/mol
 298.15  VIB  0.417E+22            25808.891    159.966    163.485
         ROT  0.265E+09              888.752      2.981     41.527
         INT  0.111E+31            26697.644    162.947    205.012
         TR   0.180E+29             1481.254      4.968     45.506
         TOT                       28178.8977   167.9151   250.5178  1048.1663

       T/K    H(0)-H(T)+PV         H(T)/Eh          T*S/Eh         G(T)/Eh
   ------------------------------------------------------------------------
    298.15    0.449059E-01    0.739729E+00    0.119029E+00    0.620700E+00
   ------------------------------------------------------------------------

         :::::::::::::::::::::::::::::::::::::::::::::::::::::
         ::                  THERMODYNAMIC                  ::
         :::::::::::::::::::::::::::::::::::::::::::::::::::::
         :: total free energy        -137.372907103301 Eh   ::
         ::.................................................::
         :: total energy             -137.993607034456 Eh   ::
         :: zero point energy           0.694823074287 Eh   ::
         :: G(RRHO) w/o ZPVE           -0.074123143133 Eh   ::
         :: G(RRHO) contrib.            0.620699931155 Eh   ::
         :::::::::::::::::::::::::::::::::::::::::::::::::::::

           -------------------------------------------------
          | TOTAL ENERGY             -137.993607034456 Eh   |
          | TOTAL ENTHALPY           -137.253878028338 Eh   |
          | TOTAL FREE ENERGY        -137.372907103301 Eh   |
          | GRADIENT NORM               0.000057351818 Eh/α |
          | HOMO-LUMO GAP               2.119144987843 eV   |
           -------------------------------------------------

 * finished run on 2025/07/17 at 06:46:34.435
