   * xtb version 6.7.1 (edcfbbe) compiled by 'albert@albert-system' on 2024-07-22

   ID    Z sym.   atoms
    1    6 C      1-22, 24-40, 42-48, 50-55
    2    7 N      23, 41, 49
    3    1 H      56-90

          program call               : xtb data2507/gas/PhCz-Pyr/PhCz-Pyr.xyz --gfn 2 --ohess vtight --parallel 40 --molden --ceasefiles --namespace data2507/gas/PhCz-Pyr/PhCz-Pyr_gas_S0_preOpt
          :  Hamiltonian                  GFN2-xTB          :
 * total energy  :  -137.9723792 Eh     change       -0.1469715E-08 Eh
 * total energy  :  -137.9854038 Eh     change       -0.1302456E-01 Eh
 * total energy  :  -137.9887893 Eh     change       -0.3385481E-02 Eh
 * total energy  :  -137.9899424 Eh     change       -0.1153103E-02 Eh
 * total energy  :  -137.9908047 Eh     change       -0.8622793E-03 Eh
 * total energy  :  -137.9911985 Eh     change       -0.3938766E-03 Eh
 * total energy  :  -137.9914521 Eh     change       -0.2535656E-03 Eh
 * total energy  :  -137.9916184 Eh     change       -0.1662498E-03 Eh
 * total energy  :  -137.9917635 Eh     change       -0.1451248E-03 Eh
 * total energy  :  -137.9919125 Eh     change       -0.1489887E-03 Eh
 * total energy  :  -137.9934006 Eh     change       -0.1394532E-05 Eh
 * total energy  :  -137.9934021 Eh     change       -0.1530356E-05 Eh
 * total energy  :  -137.9934038 Eh     change       -0.1683212E-05 Eh
 * total energy  :  -137.9934056 Eh     change       -0.1847310E-05 Eh
 * total energy  :  -137.9934077 Eh     change       -0.2023182E-05 Eh
 * total energy  :  -137.9934099 Eh     change       -0.2214492E-05 Eh
 * total energy  :  -137.9934123 Eh     change       -0.2427348E-05 Eh
 * total energy  :  -137.9934150 Eh     change       -0.2675255E-05 Eh
 * total energy  :  -137.9934150 Eh     change       -0.5008900E-08 Eh
   *** GEOMETRY OPTIMIZATION CONVERGED AFTER 152 ITERATIONS ***

 final structure:
================
90
 xtb: 6.7.1 (edcfbbe)
C           -9.42177858714396       -5.99354675503525       -1.00613680985743
C           -8.28485027081972       -5.99336477212916       -1.79665751364339
C           -7.32181948478431       -5.01593219205471       -1.62983162933824
C           -7.48056258984509       -4.01786685687194       -0.67090423110212
C           -6.45781485505970       -2.97566814239317       -0.49674112638297
C           -5.09866856181612       -3.31621066516073       -0.53076087486876
C           -4.10197533888825       -2.37401114747650       -0.38234662058630
C           -4.47768639157600       -1.04921627650295       -0.21106350710149
C           -5.84283409739836       -0.68928917939064       -0.14403907728156
C           -6.82806910789841       -1.65330964007107       -0.28864631153314
C           -5.87921497472019        0.72742222476346        0.09441025149994
C           -6.91280758596983        1.63808441727365        0.24533616574934
C           -6.61164091085312        2.97901447846322        0.44650652717378
C           -7.68935675485507        3.96447850318193        0.62044011567450
C           -8.79943333574735        3.66671336685463        1.40784499731895
C           -9.81253007693354        4.59161206478308        1.57739980316218
C           -9.73684521457751        5.82878754842491        0.95991387095647
C           -8.63993321694526        6.13478085600563        0.17205129597883
C           -7.62398530062805        5.21237040671913        0.00492053372830
C           -5.27228535437537        3.38998981279331        0.47764852869001
C           -4.22782764157285        2.49939100962357        0.33697422792982
C           -4.53422538328418        1.15734498239964        0.16255480138151
N           -3.69733357427803        0.07502393726169       -0.02500266137734
C           -2.29812945402452        0.10639110961544       -0.02440007805517
C           -1.58167112057286       -0.51263324314366       -1.04580478697862
C           -0.20215655964187       -0.50020361818213       -1.03137194923797
C            0.49719195653182        0.14756837704182       -0.01467444093074
C            1.96522397403110        0.15658526624281       -0.00337712202032
C            2.68418681825190       -0.99862482420275       -0.30806112327572
C            4.06230398750582       -0.99583078151562       -0.28414467961691
C            4.76469620577229        0.16838045796212        0.02257356367470
C            6.23161980861017        0.13938977693300        0.03157529423800
C            7.00675465175944        1.25989571374820       -0.26538215868045
C            8.39194833389929        1.10156650136477       -0.23485029120437
C            9.32193234357599        2.19447442187096       -0.54799850486093
C           10.58775165511232        1.88565078651890       -1.04281498806714
C           11.48149359681522        2.89063666282680       -1.35698341185208
C           11.12720381851302        4.21756902703807       -1.17325582736929
C            9.87654884683001        4.53325173115345       -0.66864546334275
C            8.97688384579142        3.53035819247093       -0.35848951044060
N            8.93785494376541       -0.07487213551358        0.06286908656852
C            8.12583150543585       -1.09142741068103        0.32932725219099
C            8.73950207708103       -2.38154800216590        0.65832354511664
C            7.93985732718392       -3.48770531645308        0.93838969499748
C            8.52026529072154       -4.70208650327070        1.24937946543446
C            9.90037721057277       -4.82505403376847        1.28515944487733
C           10.70079696723935       -3.72737084910113        1.01026755963697
C           10.12619530945643       -2.51041851707384        0.69828764263723
N            6.79914584828524       -1.02860860258820        0.32071034950793
C            4.04962285460147        1.32443883098344        0.32591541534248
C            2.66961308691670        1.31446527467009        0.32093487990696
C           -0.22812327212951        0.77905939936401        0.99390925357684
C           -1.60769463761509        0.75117176735319        0.99879808616708
C           -8.62955867346479       -4.02707118892791        0.11670659496587
C           -9.58996171183744       -5.00736604339184       -0.04865397579890
H          -10.17311514317815       -6.75859436217260       -1.13571535664324
H           -8.14965911300391       -6.75762180538458       -2.54855544565806
H           -6.44551455891815       -5.01169083622251       -2.26200774327506
H           -4.82561724024764       -4.35408747365388       -0.65223505802339
H           -3.06277761538243       -2.66649798268592       -0.38533107169017
H           -7.87048310877388       -1.37405530388072       -0.25947252060722
H           -7.93976972531629        1.31135742341608        0.18082351186908
H           -8.85584682471225        2.70945329179717        1.90588694670651
H          -10.66418074357945        4.34811306478047        2.19634411907441
H          -10.52906040448448        6.55100200379863        1.09186444528906
H           -8.57752692748617        7.09664183564862       -0.31645889202544
H           -6.77958938645322        5.45144655353208       -0.62545190979509
H           -5.05239136860821        4.43544506131268        0.63629093312302
H           -3.20479730805595        2.84375040730293        0.35400052383054
H           -2.11385830358748       -0.98852091294189       -1.85581247017973
H            0.34356086584947       -0.97295610270964       -1.83465424766837
H            2.15224489347196       -1.90971352864038       -0.54033489265973
H            4.62120535017392       -1.89152921114168       -0.50691347896980
H            6.55288193107107        2.19349940500427       -0.55275499285801
H           10.84809971147628        0.84754534878487       -1.17963053297171
H           12.45789519408334        2.64124711224261       -1.74591139625719
H           11.82533669212202        5.00446819828491       -1.41820932962430
H            9.60191563856848        5.56665204375400       -0.51410202962442
H            8.01279228822307        3.78945947870345        0.05387239685258
H            6.86758299324938       -3.37314858079494        0.91079404781999
H            7.89718222147774       -5.55768793667275        1.46640852967737
H           10.35207670819551       -5.77572691749638        1.52912234046585
H           11.77647848445724       -3.82366026813003        1.04122288568680
H           10.73424915602828       -1.64497978080604        0.48631735419689
H            4.57305430099261        2.23121830980457        0.59177411093190
H            2.12691536822275        2.21956621369691        0.55251972420207
H            0.29744007456825        1.26703741437934        1.80150465580066
H           -2.15888047215515        1.21111631547645        1.80530596780776
H           -8.75869151330011       -3.27078359951473        0.87748952731647
H          -10.47317734001803       -5.00439008758803        0.57392177462739

          :  Hamiltonian                  GFN2-xTB          :
         :: gradient norm              0.000055120618 Eh/a0 ::
         :: HOMO-LUMO gap              2.130860630853 eV    ::
         :: SCC energy              -140.631063420222 Eh    ::
         :: -> dispersion             -0.118213926296 Eh    ::
         :: repulsion energy           2.637648427163 Eh    ::

    * Orbital Energies and Occupations

         #    Occupation            Energy/Eh            Energy/eV
      -------------------------------------------------------------
         1        2.0000           -0.6771156             -18.4253
       ...           ...                  ...                  ...
       117        2.0000           -0.4093412             -11.1387
       118        2.0000           -0.4041809             -10.9983
       119        2.0000           -0.4032266             -10.9724
       120        2.0000           -0.4001433             -10.8885
       121        2.0000           -0.3999111             -10.8821
       122        2.0000           -0.3995439             -10.8721
       123        2.0000           -0.3938972             -10.7185
       124        2.0000           -0.3932997             -10.7022
       125        2.0000           -0.3890328             -10.5861
       126        2.0000           -0.3886384             -10.5754
       127        2.0000           -0.3754827             -10.2174
       128        2.0000           -0.3573451              -9.7239
       129        2.0000           -0.3564537              -9.6996 (HOMO)
       130                         -0.2781460              -7.5687 (LUMO)
       131                         -0.2692554              -7.3268
       132                         -0.2511546              -6.8343
       133                         -0.2434580              -6.6248
       134                         -0.2416573              -6.5758
       135                         -0.2343157              -6.3761
       136                         -0.2323525              -6.3226
       137                         -0.2292940              -6.2394
       138                         -0.2275804              -6.1928
       139                         -0.2225195              -6.0551
       140                         -0.2204615              -5.9991
       ...                                ...                  ...
       255                          0.7499152              20.4062
      -------------------------------------------------------------
                  HL-Gap            0.0783077 Eh            2.1309 eV

     #   Z          covCN         q      C6AA      α(0)
     1   6 C        2.920    -0.032    28.803     8.801
     2   6 C        2.918    -0.030    28.753     8.793
     3   6 C        2.925    -0.035    28.868     8.811
     4   6 C        2.977     0.011    27.770     8.644
     5   6 C        2.977    -0.001    28.042     8.686
     6   6 C        2.929    -0.038    28.941     8.822
     7   6 C        2.908    -0.051    29.278     8.872
     8   6 C        3.077     0.045    26.911     8.505
     9   6 C        3.065    -0.017    28.375     8.735
    10   6 C        2.918    -0.038    28.933     8.821
    11   6 C        3.066    -0.017    28.373     8.735
    12   6 C        2.918    -0.038    28.933     8.821
    13   6 C        2.977    -0.001    28.044     8.687
    14   6 C        2.977     0.011    27.770     8.644
    15   6 C        2.926    -0.035    28.864     8.811
    16   6 C        2.918    -0.030    28.751     8.793
    17   6 C        2.920    -0.032    28.803     8.801
    18   6 C        2.919    -0.030    28.753     8.793
    19   6 C        2.925    -0.035    28.868     8.811
    20   6 C        2.929    -0.038    28.943     8.823
    21   6 C        2.908    -0.052    29.280     8.873
    22   6 C        3.076     0.045    26.912     8.505
    23   7 N        2.802    -0.041    22.039     6.972
    24   6 C        2.913     0.063    26.590     8.456
    25   6 C        2.921    -0.043    29.080     8.843
    26   6 C        2.925    -0.033    28.823     8.804
    27   6 C        2.977     0.007    27.859     8.658
    28   6 C        2.977     0.013    27.728     8.638
    29   6 C        2.923    -0.033    28.823     8.804
    30   6 C        2.924    -0.025    28.617     8.773
    31   6 C        2.981     0.003    27.950     8.672
    32   6 C        2.969     0.110    25.571     8.295
    33   6 C        2.912    -0.066    29.651     8.929
    34   6 C        2.968     0.110    25.572     8.295
    35   6 C        2.980     0.005    27.913     8.666
    36   6 C        2.926    -0.024    28.599     8.770
    37   6 C        2.918    -0.027    28.687     8.783
    38   6 C        2.920    -0.027    28.666     8.780
    39   6 C        2.919    -0.029    28.721     8.788
    40   6 C        2.923    -0.031    28.767     8.796
    41   7 N        1.850    -0.271    27.882     7.826
    42   6 C        2.946     0.181    24.118     8.055
    43   6 C        2.985     0.002    27.984     8.677
    44   6 C        2.924    -0.027    28.669     8.781
    45   6 C        2.918    -0.029    28.716     8.788
    46   6 C        2.920    -0.026    28.657     8.779
    47   6 C        2.918    -0.029    28.716     8.787
    48   6 C        2.924    -0.027    28.667     8.780
    49   7 N        1.850    -0.271    27.896     7.828
    50   6 C        2.921    -0.031    28.783     8.798
    51   6 C        2.923    -0.034    28.851     8.809
    52   6 C        2.925    -0.033    28.820     8.804
    53   6 C        2.920    -0.044    29.082     8.843
    54   6 C        2.925    -0.035    28.864     8.810
    55   6 C        2.918    -0.030    28.750     8.793
    56   1 H        0.926     0.027     2.623     2.533
    57   1 H        0.926     0.027     2.622     2.532
    58   1 H        0.926     0.029     2.598     2.520
    59   1 H        0.926     0.032     2.556     2.500
    60   1 H        0.926     0.028     2.609     2.526
    61   1 H        0.926     0.034     2.534     2.490
    62   1 H        0.926     0.034     2.536     2.490
    63   1 H        0.926     0.030     2.589     2.516
    64   1 H        0.926     0.028     2.618     2.530
    65   1 H        0.926     0.027     2.623     2.533
    66   1 H        0.926     0.027     2.623     2.533
    67   1 H        0.926     0.029     2.598     2.520
    68   1 H        0.926     0.032     2.559     2.502
    69   1 H        0.926     0.028     2.615     2.529
    70   1 H        0.926     0.042     2.428     2.437
    71   1 H        0.926     0.038     2.473     2.459
    72   1 H        0.926     0.036     2.499     2.472
    73   1 H        0.926     0.052     2.291     2.367
    74   1 H        0.926     0.032     2.557     2.501
    75   1 H        0.926     0.052     2.290     2.367
    76   1 H        0.926     0.035     2.516     2.481
    77   1 H        0.926     0.034     2.533     2.489
    78   1 H        0.926     0.033     2.548     2.496
    79   1 H        0.926     0.031     2.567     2.505
    80   1 H        0.926     0.054     2.275     2.359
    81   1 H        0.926     0.033     2.540     2.492
    82   1 H        0.926     0.033     2.545     2.495
    83   1 H        0.926     0.033     2.538     2.491
    84   1 H        0.926     0.054     2.274     2.358
    85   1 H        0.926     0.032     2.551     2.498
    86   1 H        0.926     0.034     2.528     2.486
    87   1 H        0.926     0.038     2.476     2.460
    88   1 H        0.926     0.041     2.429     2.437
    89   1 H        0.926     0.030     2.590     2.517
    90   1 H        0.926     0.028     2.619     2.531

molecular dipole:
                 x           y           z       tot (Debye)
 q only:        0.509       0.140      -0.139
   full:        0.399       0.545      -0.205       1.793

 projected vibrational frequencies (cm⁻¹)
eigval :       -0.00    -0.00    -0.00    -0.00     0.00     0.00
eigval :        5.98     7.61    11.18    21.62    25.85    30.94
eigval :       33.50    35.40    37.95    39.02    48.85    51.27
eigval :       55.08    58.87    70.43    79.77    88.28    92.83
eigval :       98.46   105.50   110.57   123.41   146.76   153.65
eigval :      168.26   184.73   200.48   213.81   216.95   229.01
eigval :      231.80   246.91   264.48   268.08   278.63   293.41
eigval :      305.86   324.17   344.56   366.07   367.13   369.57
eigval :      371.00   372.57   373.06   378.98   382.34   386.40
eigval :      398.65   400.68   411.36   426.87   432.82   447.47
eigval :      452.89   472.32   478.81   484.02   499.58   507.49
eigval :      530.98   551.91   556.93   571.65   583.14   587.24
eigval :      587.43   587.68   592.04   600.79   603.70   606.95
eigval :      607.51   618.08   619.92   624.96   630.50   635.54
eigval :      660.44   663.68   667.68   673.12   673.60   685.54
eigval :      686.39   707.23   708.16   716.67   737.72   740.60
eigval :      753.78   759.05   761.31   765.87   780.19   807.70
eigval :      823.14   825.62   832.00   838.48   842.11   850.27
eigval :      861.96   869.41   872.48   874.45   874.82   877.48
eigval :      879.04   882.06   882.99   900.93   901.33   904.21
eigval :      907.05   910.00   910.40   912.92   917.26   927.01
eigval :      928.12   928.53   929.59   930.38   931.31   931.90
eigval :      931.97   932.64   933.02   933.39   936.41   968.21
eigval :      972.34   981.99   988.94   993.24  1018.32  1026.66
eigval :     1027.87  1072.74  1072.95  1076.20  1079.06  1080.60
eigval :     1086.82  1087.35  1089.98  1105.21  1111.31  1122.05
eigval :     1122.27  1125.74  1134.27  1135.47  1142.20  1160.65
eigval :     1170.38  1180.95  1181.66  1182.57  1182.82  1184.06
eigval :     1195.32  1197.22  1199.78  1201.67  1204.13  1207.82
eigval :     1222.04  1223.59  1225.08  1246.43  1250.22  1265.99
eigval :     1270.21  1271.36  1279.11  1282.23  1282.44  1282.94
eigval :     1292.32  1307.38  1309.00  1315.45  1319.57  1320.85
eigval :     1322.06  1323.79  1328.51  1347.06  1359.74  1363.18
eigval :     1366.82  1379.82  1393.05  1402.33  1409.23  1416.34
eigval :     1431.05  1432.40  1433.83  1436.59  1439.51  1462.27
eigval :     1468.67  1470.96  1478.26  1481.79  1495.23  1498.32
eigval :     1507.55  1519.68  1533.30  1555.24  1563.99  1569.55
eigval :     1575.08  1582.91  1583.66  1584.40  1586.11  1590.66
eigval :     1594.23  1596.39  1597.76  1598.76  1602.74  1603.82
eigval :     1615.62  3068.93  3068.98  3070.35  3070.43  3071.28
eigval :     3072.95  3073.94  3077.27  3077.43  3078.58  3078.68
eigval :     3079.30  3080.04  3080.30  3081.98  3082.85  3082.99
eigval :     3083.54  3084.48  3086.34  3087.29  3087.33  3090.30
eigval :     3090.44  3090.76  3091.86  3091.89  3092.61  3094.77
eigval :     3095.63  3102.52  3103.83  3106.14  3106.60  3106.61

   temp. (K)  partition function   enthalpy   heat capacity  entropy
                                   cal/mol     cal/K/mol   cal/K/mol   J/K/mol
 298.15  VIB  0.463E+22            25813.263    159.914    163.506
         ROT  0.265E+09              888.752      2.981     41.526
         INT  0.123E+31            26702.015    162.895    205.032
         TR   0.180E+29             1481.254      4.968     45.506
         TOT                       28183.2690   167.8629   250.5374  1048.2485

       T/K    H(0)-H(T)+PV         H(T)/Eh          T*S/Eh         G(T)/Eh
   ------------------------------------------------------------------------
    298.15    0.449129E-01    0.739715E+00    0.119038E+00    0.620677E+00
   ------------------------------------------------------------------------

         :::::::::::::::::::::::::::::::::::::::::::::::::::::
         ::                  THERMODYNAMIC                  ::
         :::::::::::::::::::::::::::::::::::::::::::::::::::::
         :: total free energy        -137.372738446351 Eh   ::
         ::.................................................::
         :: total energy             -137.993414993064 Eh   ::
         :: zero point energy           0.694802057213 Eh   ::
         :: G(RRHO) w/o ZPVE           -0.074125510500 Eh   ::
         :: G(RRHO) contrib.            0.620676546713 Eh   ::
         :::::::::::::::::::::::::::::::::::::::::::::::::::::

           -------------------------------------------------
          | TOTAL ENERGY             -137.993414993064 Eh   |
          | TOTAL ENTHALPY           -137.253700037814 Eh   |
          | TOTAL FREE ENERGY        -137.372738446351 Eh   |
          | GRADIENT NORM               0.000055121492 Eh/α |
          | HOMO-LUMO GAP               2.130860675029 eV   |
           -------------------------------------------------

 * finished run on 2025/07/17 at 06:42:02.600
