   * xtb version 6.7.1 (edcfbbe) compiled by 'albert@albert-system' on 2024-07-22

   ID    Z sym.   atoms
    1    6 C      1-22, 24-40, 42-48, 50-55
    2    7 N      23, 41, 49
    3    1 H      56-90

          program call               : xtb data2507/gas/PhCz-Pyr/PhCz-Pyr_gas_S0_finalOpt.xtbopt.xyz --gfn 2 --spinpol --tblite --uhf 2 --ohess vtight --parallel 40 --molden --ceasefiles --namespace data2507/gas/PhCz-Pyr/PhCz-Pyr_gas_T1_preOpt
 * total energy  :  -137.9105736 Eh     change       -0.3711557E-07 Eh
 * total energy  :  -137.9147777 Eh     change       -0.4204137E-02 Eh
 * total energy  :  -137.9164075 Eh     change       -0.1629724E-02 Eh
 * total energy  :  -137.9165189 Eh     change       -0.1114720E-03 Eh
 * total energy  :  -137.9166786 Eh     change       -0.1596786E-03 Eh
 * total energy  :  -137.9167766 Eh     change       -0.9801406E-04 Eh
 * total energy  :  -137.9169115 Eh     change       -0.1348751E-03 Eh
 * total energy  :  -137.9170520 Eh     change       -0.1405311E-03 Eh
 * total energy  :  -137.9171527 Eh     change       -0.1006726E-03 Eh
 * total energy  :  -137.9172469 Eh     change       -0.9416506E-04 Eh
 * total energy  :  -137.9188855 Eh     change       -0.1259957E-05 Eh
 * total energy  :  -137.9188870 Eh     change       -0.1544517E-05 Eh
 * total energy  :  -137.9188888 Eh     change       -0.1844287E-05 Eh
 * total energy  :  -137.9188908 Eh     change       -0.1953129E-05 Eh
 * total energy  :  -137.9188927 Eh     change       -0.1883799E-05 Eh
 * total energy  :  -137.9188945 Eh     change       -0.1772173E-05 Eh
 * total energy  :  -137.9188965 Eh     change       -0.2014533E-05 Eh
 * total energy  :  -137.9188965 Eh     change        0.2520949E-08 Eh
 * total energy  :  -137.9188965 Eh     change       -0.2683970E-07 Eh
   *** GEOMETRY OPTIMIZATION CONVERGED AFTER 153 ITERATIONS ***

 final structure:
================
90
 xtb: 6.7.1 (edcfbbe)
C           -9.68163491546349       -5.94006262004176       -0.26673875357320
C           -8.52583184534225       -6.07523933151700       -1.01766973606110
C           -7.53771164242223       -5.11099885121769       -0.95350355677120
C           -7.69057376141965       -3.98986560281859       -0.13991531726536
C           -6.64455694449199       -2.95987010637458       -0.07728924231892
C           -5.29302588836141       -3.33114092122564       -0.04096649627414
C           -4.27715245814147       -2.39934597240409        0.00964696409203
C           -4.62500054107405       -1.05477936603166        0.00697433075245
C           -5.98377754961910       -0.66010252341851       -0.00208596974576
C           -6.98765771765348       -1.61186890625639       -0.04488809631743
C           -5.98887576765216        0.77728711003796        0.05297134441603
C           -6.99890613101457        1.72346803538743        0.06411258611271
C           -6.66417907147823        3.07360327520712        0.09669490822251
C           -7.71776296183583        4.09774804720649        0.11830667828556
C           -8.85453826127892        3.92620217172135        0.90610882280427
C           -9.84495896119846        4.88972273278427        0.93383415169017
C           -9.72073825416163        6.03867243815260        0.17059503666062
C           -8.59767987031440        6.21812877159862       -0.61973436497582
C           -7.60331189368179        5.25839594257986       -0.64428882753237
C           -5.31454794491606        3.45233944207850        0.10259407812946
C           -4.29247254869672        2.52583340527677        0.10003257690272
C           -4.63286174284649        1.17949294837981        0.09307526195843
N           -3.82301509470190        0.06440414872145        0.06501454513001
C           -2.42177993940079        0.07059098129091        0.08302686074699
C           -1.70072616365562       -0.67274685461575       -0.85035120726695
C           -0.32398744306637       -0.66006995010298       -0.83202627304350
C            0.38433292878500        0.10051389638799        0.10655212819335
C            1.83917610173523        0.12633107713029        0.10813011620310
C            2.59067299314551       -1.00304632123722       -0.25016965254498
C            3.95943859736490       -0.97504715167959       -0.25018306296656
C            4.67269938951132        0.19485255990902        0.08870104456532
C            6.10188467226024        0.17788815207015        0.05381541797822
C            6.92236078230350        1.29845709909014        0.27213855042728
C            8.29489757301641        1.14207890283376        0.19580440026236
C            9.25551021448023        2.20749705806561        0.39690099638595
C           10.62125252191283        1.88888142998897        0.44624639774174
C           11.57173969219028        2.86773282599834        0.63555226727516
C           11.19242255611882        4.19405546862789        0.77961997582817
C            9.84664386642465        4.52573324060780        0.72890429329472
C            8.88864841398812        3.55163714664218        0.54017632904862
N            8.79998643007987       -0.09773489741742       -0.07617045692036
C            8.01449226505273       -1.13666507514275       -0.28072116299475
C            8.60629252947081       -2.44124081440543       -0.56919565279179
C            7.79759799253236       -3.56938401454532       -0.68564102143936
C            8.36072456953983       -4.80175478262426       -0.95340052101818
C            9.73327708383869       -4.92012144995370       -1.10826811860131
C           10.54303628311314       -3.80092198965829       -0.99504241656157
C            9.98459348106139       -2.56639178211140       -0.72638067245832
N            6.71462035984128       -1.00925249789349       -0.22313586927833
C            3.91502199418314        1.32723153863394        0.44508497429649
C            2.54439459454327        1.28560515497794        0.46242046519538
C           -0.35556740523774        0.84000547509310        1.03761206262092
C           -1.73236954112890        0.82355946344348        1.03251525120511
C           -8.85893856439795       -3.86389392975501        0.60932988770011
C           -9.84357098673638       -4.83178307450977        0.54785938765543
H          -10.45246754151565       -6.69484691160387       -0.31607010279343
H           -8.39563704947189       -6.93545499168816       -1.65831465773573
H           -6.64696712697959       -5.21376794780732       -1.55622437926092
H           -5.04288796398319       -4.38149230938480       -0.02591137999912
H           -3.24483228333150       -2.70956990021426        0.06424330852811
H           -8.02362284321210       -1.30993890117433       -0.07433099591970
H           -8.03326662738771        1.41764329852098        0.01994377644990
H           -8.94868103965744        3.04036845306277        1.51754436959750
H          -10.71688858479812        4.74585366437499        1.55547935695873
H          -10.49561107425600        6.79064473541347        0.19147254672564
H           -8.49777847072177        7.10996751416188       -1.22137887955357
H           -6.73870279078883        5.39674773639634       -1.27716630459714
H           -5.06952671750053        4.50363151736715        0.12942078272300
H           -3.26063611638541        2.84209004660100        0.09451449930738
H           -2.23096347649810       -1.23460283393116       -1.60533792784973
H            0.21812637608580       -1.21809291393897       -1.58046265032721
H            2.07999277842264       -1.92256311308129       -0.49825861362279
H            4.52507479765490       -1.85562845700592       -0.51564943091354
H            6.48649833206516        2.25680549618584        0.49439914868233
H           10.91170412196745        0.85481691420229        0.33778383681458
H           12.61795533452765        2.59923562707299        0.67168632166811
H           11.93678790121231        4.96208435914692        0.92747049267022
H            9.54341073490433        5.55758519423534        0.83560026572278
H            7.85062718153308        3.84298183435794        0.49395088632651
H            6.73108293876076       -3.46158752361404       -0.55943274983945
H            7.73098821193174       -5.67495849877446       -1.04131628640118
H           10.17175608713340       -5.88493288840770       -1.31707238334807
H           11.61222545598058       -3.89427065704220       -1.11695031735222
H           10.60143266799447       -1.68511602344405       -0.63766882035128
H            4.40900908764236        2.24818643707269        0.71439603275061
H            1.99492665653729        2.17929102105703        0.72188111941796
H            0.16160370705243        1.40774340067956        1.79633837323185
H           -2.28710423507686        1.37285231504737        1.77911561968747
H           -8.98378787357987       -3.01123463831164        1.26098275544951
H          -10.74100661401696       -4.72306607166495        1.13962455571657

 projected vibrational frequencies (cm⁻¹)
eigval :       -0.00    -0.00    -0.00    -0.00     0.00     0.00
eigval :        4.16     6.76    10.09    11.95    20.68    25.61
eigval :       31.94    33.88    37.39    38.16    46.68    49.68
eigval :       55.46    58.13    74.02    77.89    88.06    94.20
eigval :       95.99   106.57   108.35   122.74   150.72   152.77
eigval :      166.79   181.63   199.71   206.63   218.25   218.58
eigval :      226.57   245.53   261.49   266.65   274.13   293.96
eigval :      304.06   322.36   347.45   365.42   366.31   368.57
eigval :      370.14   371.81   372.03   377.54   380.87   386.70
eigval :      394.25   397.80   405.47   409.20   428.88   433.56
eigval :      448.80   467.43   475.71   481.43   482.54   504.55
eigval :      518.14   537.62   545.49   555.67   572.63   579.10
eigval :      581.25   581.63   586.46   587.08   590.07   591.22
eigval :      593.56   602.76   608.07   620.36   627.16   627.94
eigval :      629.59   650.83   654.63   664.02   665.57   667.20
eigval :      672.94   687.29   690.23   708.14   713.83   739.30
eigval :      746.63   750.51   757.96   759.02   764.03   791.72
eigval :      807.80   819.04   820.70   825.60   828.54   836.91
eigval :      838.64   853.32   860.85   864.73   871.44   872.13
eigval :      873.30   878.89   879.23   879.88   900.80   900.91
eigval :      901.67   904.09   906.85   909.90   910.91   913.38
eigval :      919.25   921.25   923.90   925.52   927.29   929.10
eigval :      929.50   930.60   931.01   931.08   931.58   932.88
eigval :      971.93   975.64   978.28   982.11   985.63  1011.18
eigval :     1027.21  1030.08  1061.19  1065.13  1070.79  1071.07
eigval :     1071.64  1074.92  1084.21  1086.53  1087.06  1112.48
eigval :     1121.82  1122.05  1122.93  1132.09  1136.04  1148.20
eigval :     1153.90  1168.70  1178.18  1179.55  1180.47  1180.81
eigval :     1181.70  1195.91  1197.31  1198.86  1199.44  1204.38
eigval :     1211.93  1219.85  1222.53  1243.33  1249.00  1265.78
eigval :     1268.72  1274.77  1280.28  1280.98  1281.08  1283.43
eigval :     1292.29  1298.17  1299.47  1304.49  1317.10  1319.63
eigval :     1320.60  1326.59  1329.14  1330.91  1347.92  1349.57
eigval :     1355.43  1366.31  1374.31  1396.12  1405.64  1412.49
eigval :     1428.20  1429.31  1431.23  1431.44  1433.53  1436.36
eigval :     1453.77  1454.30  1461.99  1466.90  1472.22  1484.14
eigval :     1490.00  1491.55  1494.51  1503.67  1535.63  1546.90
eigval :     1556.02  1558.55  1569.95  1578.32  1581.08  1581.58
eigval :     1583.24  1587.63  1592.33  1594.52  1594.63  1600.37
eigval :     1608.71  3069.47  3069.57  3069.86  3069.96  3071.47
eigval :     3071.50  3071.54  3071.91  3075.44  3079.50  3079.67
eigval :     3080.00  3080.54  3081.49  3082.59  3082.90  3085.16
eigval :     3085.69  3086.46  3087.40  3089.02  3089.44  3089.73
eigval :     3091.18  3091.66  3091.80  3092.59  3093.65  3094.52
eigval :     3094.70  3095.66  3096.33  3097.36  3098.51  3123.06

   temp. (K)  partition function   enthalpy   heat capacity  entropy
                                   cal/mol     cal/K/mol   cal/K/mol   J/K/mol
 298.15  VIB  0.341E+23            26142.982    161.665    166.412
         ROT  0.266E+09              888.752      2.981     41.532
         INT  0.907E+31            27031.735    164.646    207.944
         TR   0.180E+29             1481.254      4.968     45.506
         TOT                       28512.9885   169.6145   253.4498  1060.4340

       T/K    H(0)-H(T)+PV         H(T)/Eh          T*S/Eh         G(T)/Eh
   ------------------------------------------------------------------------
    298.15    0.454383E-01    0.736015E+00    0.120422E+00    0.615593E+00
   ------------------------------------------------------------------------

         :::::::::::::::::::::::::::::::::::::::::::::::::::::
         ::                  THERMODYNAMIC                  ::
         :::::::::::::::::::::::::::::::::::::::::::::::::::::
         :: total free energy        -137.303303894089 Eh   ::
         ::.................................................::
         :: total energy             -137.918896493030 Eh   ::
         :: zero point energy           0.690576439306 Eh   ::
         :: G(RRHO) w/o ZPVE           -0.074983840364 Eh   ::
         :: G(RRHO) contrib.            0.615592598941 Eh   ::
         :::::::::::::::::::::::::::::::::::::::::::::::::::::

           -------------------------------------------------
          | TOTAL ENERGY             -137.918896493030 Eh   |
          | TOTAL ENTHALPY           -137.182881714347 Eh   |
          | TOTAL FREE ENERGY        -137.303303894089 Eh   |
          | GRADIENT NORM               0.000112496413 Eh/α |
           -------------------------------------------------

 * finished run on 2025/07/17 at 06:47:04.584
