   * xtb version 6.7.1 (edcfbbe) compiled by 'albert@albert-system' on 2024-07-22

   ID    Z sym.   atoms
    1    6 C      1-22, 24-40, 42-48, 50-55
    2    7 N      23, 41, 49
    3    1 H      56-90

          program call               : xtb data2507/gas/PhCz-Pyr/PhCz-Pyr_gas_T1_crest.xyz --gfn 2 --spinpol --tblite --uhf 2 --ohess vtight --parallel 40 --molden --ceasefiles --namespace data2507/gas/PhCz-Pyr/PhCz-Pyr_gas_T1_finalOpt
 * total energy  :  -137.9186316 Eh     change       -0.3945871E-08 Eh
 * total energy  :  -137.9187762 Eh     change       -0.1446285E-03 Eh
 * total energy  :  -137.9188721 Eh     change       -0.9594562E-04 Eh
 * total energy  :  -137.9188839 Eh     change       -0.1176578E-04 Eh
 * total energy  :  -137.9189064 Eh     change       -0.2252340E-04 Eh
 * total energy  :  -137.9189140 Eh     change       -0.7601395E-05 Eh
 * total energy  :  -137.9189277 Eh     change       -0.1361402E-04 Eh
 * total energy  :  -137.9189325 Eh     change       -0.4870884E-05 Eh
 * total energy  :  -137.9189317 Eh     change        0.8181197E-06 Eh
 * total energy  :  -137.9189366 Eh     change       -0.4859114E-05 Eh
 * total energy  :  -137.9189846 Eh     change       -0.6954294E-06 Eh
 * total energy  :  -137.9189852 Eh     change       -0.6174037E-06 Eh
 * total energy  :  -137.9189858 Eh     change       -0.5341425E-06 Eh
 * total energy  :  -137.9189862 Eh     change       -0.4238052E-06 Eh
 * total energy  :  -137.9189865 Eh     change       -0.3337954E-06 Eh
 * total energy  :  -137.9189867 Eh     change       -0.2284810E-06 Eh
 * total energy  :  -137.9189869 Eh     change       -0.1479603E-06 Eh
 * total energy  :  -137.9189871 Eh     change       -0.1817418E-06 Eh
 * total energy  :  -137.9189872 Eh     change       -0.9789724E-07 Eh
   *** GEOMETRY OPTIMIZATION CONVERGED AFTER 34 ITERATIONS ***

 final structure:
================
90
 xtb: 6.7.1 (edcfbbe)
C           -9.54202857066662       -6.03639166537289        0.74717006140767
C           -8.40523579098360       -6.26263113733417       -0.01083077626029
C           -7.44108862061305       -5.27945848343793       -0.12942217984480
C           -7.59957798055606       -4.04860357072441        0.50466889684860
C           -6.57729121357210       -3.00093659675312        0.37688807146604
C           -5.21717709882935       -3.33675740309635        0.43228728793060
C           -4.22209958002931       -2.38863616549061        0.31614937820305
C           -4.60102030851873       -1.06667908308250        0.12256363031442
C           -5.96823574299803       -0.70385397907511        0.08695716628925
C           -6.95064589128450       -1.67059090287169        0.21307278899545
C           -6.00413248304674        0.72503610403058       -0.07584513837193
C           -7.03395417288674        1.64247833109969       -0.19136274298333
C           -6.72793626320056        2.98998642993593       -0.35455689566630
C           -7.80188289700392        3.98641562922931       -0.46752447196074
C           -7.69797689499958        5.22062744161339        0.17134322153478
C           -8.71126853747647        6.15493211659992        0.06850010617517
C           -9.84368334850506        5.87577636394383       -0.67834253106253
C           -9.95711485479242        4.65364914280120       -1.31994026637025
C           -8.94736667764178        3.71594031629770       -1.21387471585170
C           -5.38654144568185        3.39241282706034       -0.42148896414377
C           -4.34506531366962        2.49413851885613       -0.31636299380738
C           -4.65678027873679        1.15484635473254       -0.12188096402268
N           -3.82345024950705        0.06396383290359       -0.00310831983761
C           -2.42249376788877        0.09871704748627       -0.00269825135973
C           -1.69515847951419       -0.75468783746233       -0.83107187093334
C           -0.31880705058662       -0.72185636152117       -0.82281960979206
C            0.38400624088890        0.16439284297395        0.00371119028128
C            1.83811256234017        0.19588761607086        0.01006312267062
C            2.59492723521654       -0.96420372268625       -0.21684440219260
C            3.96325279075405       -0.93566474051207       -0.19936369387041
C            4.67332515950625        0.26191741544301        0.03387924162925
C            6.10227413807382        0.23791425973549        0.04074246053931
C            6.92257713327397        1.35346833732300        0.28742306899693
C            8.29529330959441        1.18627198017483        0.26500240183001
C            9.25478261221658        2.24796917169911        0.49289924645529
C           10.61521214690105        1.99407561953724        0.26206023130685
C           11.56324187005208        2.97333675239679        0.46203109421253
C           11.18632802273868        4.23410153970965        0.90035567760907
C            9.84588748341982        4.49886847136122        1.13856431155572
C            8.89043663101454        3.52409968012092        0.94017581065697
N            8.80250228789427       -0.05365502707844       -0.00077028627784
C            8.01708618563968       -1.08778703641059       -0.23103179609426
C            8.61020211859440       -2.39400457315221       -0.50916192993712
C            7.79924102465292       -3.48164756537168       -0.82488334813656
C            8.36356086609399       -4.71477721380065       -1.08655285623022
C            9.73966390545299       -4.87466530199394       -1.03526167086753
C           10.55183971347027       -3.79636512267313       -0.72096293122649
C            9.99212971633692       -2.56096116660703       -0.45905420657457
N            6.71689707744258       -0.95381122748165       -0.21006981845502
C            3.91101614808194        1.42627953855244        0.25119842825520
C            2.54046302512988        1.38729953222154        0.24557256501349
C           -0.36333263617408        1.01760985300412        0.82592987753552
C           -1.73967873755879        0.98609593402909        0.82786882268704
C           -8.74915482067596       -3.83157990930844        1.26211912488535
C           -9.70958272585967       -4.81792981635064        1.38385916527591
H          -10.29370353060938       -6.80608450381948        0.84144009241682
H           -8.27096799502866       -7.20956614166310       -0.51345933864353
H           -6.56541238528457       -5.45636318850322       -0.73701471917849
H           -4.94283057065358       -4.36782218644845        0.59855473208754
H           -3.18183931534147       -2.66686144741116        0.38923087515013
H           -7.99378698668383       -1.39677946489777        0.16660149407431
H           -8.06193029932911        1.31765675331393       -0.13632687434050
H           -6.82559599166139        5.43809186120475        0.77046511835054
H           -8.61898884730598        7.10486624987950        0.57492786520412
H          -10.63400500626186        6.60723763141159       -0.76004094144682
H          -10.83608593462655        4.43184423780227       -1.90781259437193
H           -9.03403917119322        2.77202257002443       -1.73233303596656
H           -5.16477821853446        4.43611189105406       -0.58742289629604
H           -3.32037928067975        2.82328722158506       -0.39766073569389
H           -2.22101802188647       -1.42173523898929       -1.49849232794044
H            0.22645381834837       -1.36905614400813       -1.49293182546266
H            2.08858809710935       -1.90587718852403       -0.37338873043355
H            4.53160095840962       -1.83988421244812       -0.35786638646914
H            6.48619647217521        2.31817367844722        0.47909119103397
H           10.90345248579662        1.01284898545876       -0.08364921838134
H           12.60545417142713        2.75657146214135        0.27565003020303
H           11.92874468631734        5.00215613277167        1.05761216514965
H            9.54498059469983        5.47708613369238        1.48581764850651
H            7.85702564759690        3.75644677306546        1.14664302144456
H            6.72976685540507       -3.34117637784817       -0.86214157541262
H            7.73187899407159       -5.55601508011275       -1.33167871149894
H           10.17899373681923       -5.83997251073333       -1.23995936825232
H           11.62384097213271       -3.92242173352115       -0.68029324066062
H           10.61073929684462       -1.71237918681038       -0.20961748049350
H            4.40147121103641        2.37272776775934        0.41966744628833
H            1.98959778880413        2.30531405071040        0.39233993002840
H            0.14770978392955        1.68937443854921        1.49881348867329
H           -2.29916668506030        1.62764070364984        1.49293245370819
H           -8.87732774277162       -2.89039800674619        1.77693288783694
H          -10.59215182822976       -4.63711006942101        1.98031071625305

 projected vibrational frequencies (cm⁻¹)
eigval :       -0.00    -0.00    -0.00     0.00     0.00     0.00
eigval :        4.92     7.52    11.35    15.58    21.12    25.91
eigval :       32.80    33.59    38.85    38.97    44.76    49.42
eigval :       55.75    58.24    72.59    79.43    86.29    94.93
eigval :       96.69   105.16   107.91   123.33   149.96   157.85
eigval :      171.43   174.66   198.52   207.42   216.28   218.22
eigval :      225.21   251.05   262.01   266.89   281.34   285.15
eigval :      300.74   324.80   349.53   365.06   366.20   366.68
eigval :      370.74   371.87   372.27   378.03   385.90   388.88
eigval :      394.42   397.21   404.21   413.57   425.50   433.02
eigval :      442.86   465.24   473.11   477.76   495.12   503.19
eigval :      515.94   537.44   545.76   555.81   572.63   579.93
eigval :      581.36   581.64   586.41   586.90   589.79   592.23
eigval :      593.62   602.69   608.60   622.44   623.85   628.32
eigval :      629.92   651.56   654.58   664.10   664.58   669.55
eigval :      672.10   687.71   689.90   708.08   713.88   739.19
eigval :      747.44   750.44   758.26   760.01   764.40   791.62
eigval :      808.51   818.89   820.80   825.76   828.38   835.31
eigval :      839.33   854.27   860.16   864.70   871.96   871.99
eigval :      873.60   879.63   879.72   880.37   900.94   901.55
eigval :      901.70   904.31   906.88   910.70   911.06   913.12
eigval :      919.92   922.03   923.33   924.63   927.53   929.07
eigval :      930.35   930.88   931.54   931.82   932.03   932.49
eigval :      971.83   976.42   977.52   981.61   985.58  1011.28
eigval :     1027.08  1034.69  1061.52  1064.65  1070.69  1070.79
eigval :     1072.14  1075.54  1084.18  1087.06  1087.87  1112.29
eigval :     1122.15  1122.19  1122.37  1132.26  1136.44  1149.93
eigval :     1154.36  1168.24  1178.99  1180.42  1181.26  1182.19
eigval :     1182.42  1196.40  1198.03  1199.90  1200.58  1205.15
eigval :     1213.87  1221.20  1224.26  1244.51  1248.81  1265.98
eigval :     1268.94  1275.71  1281.25  1281.66  1281.94  1283.95
eigval :     1292.28  1298.62  1298.95  1305.54  1317.29  1319.66
eigval :     1320.65  1326.49  1329.46  1330.73  1347.72  1349.63
eigval :     1354.65  1366.72  1374.94  1397.35  1406.17  1412.99
eigval :     1429.11  1429.86  1431.72  1431.99  1433.70  1436.83
eigval :     1454.15  1454.58  1462.94  1466.97  1472.51  1483.89
eigval :     1490.22  1491.10  1494.53  1503.04  1534.69  1546.25
eigval :     1556.67  1558.57  1570.08  1578.15  1580.98  1581.47
eigval :     1583.28  1588.12  1592.38  1594.37  1594.93  1600.33
eigval :     1608.84  3069.72  3070.24  3071.31  3071.34  3071.94
eigval :     3072.11  3072.49  3072.53  3075.55  3079.71  3080.71
eigval :     3080.78  3080.85  3081.23  3083.72  3083.92  3085.78
eigval :     3085.95  3086.65  3087.57  3089.28  3089.63  3089.85
eigval :     3091.14  3092.14  3092.49  3092.74  3094.23  3094.81
eigval :     3095.40  3095.83  3096.01  3097.46  3098.73  3122.84

   temp. (K)  partition function   enthalpy   heat capacity  entropy
                                   cal/mol     cal/K/mol   cal/K/mol   J/K/mol
 298.15  VIB  0.168E+23            26125.775    161.641    165.713
         ROT  0.266E+09              888.752      2.981     41.532
         INT  0.446E+31            27014.527    164.622    207.246
         TR   0.180E+29             1481.254      4.968     45.506
         TOT                       28495.7810   169.5902   252.7514  1057.5117

       T/K    H(0)-H(T)+PV         H(T)/Eh          T*S/Eh         G(T)/Eh
   ------------------------------------------------------------------------
    298.15    0.454109E-01    0.736151E+00    0.120090E+00    0.616061E+00
   ------------------------------------------------------------------------

         :::::::::::::::::::::::::::::::::::::::::::::::::::::
         ::                  THERMODYNAMIC                  ::
         :::::::::::::::::::::::::::::::::::::::::::::::::::::
         :: total free energy        -137.302926504532 Eh   ::
         ::.................................................::
         :: total energy             -137.918987227536 Eh   ::
         :: zero point energy           0.690740136269 Eh   ::
         :: G(RRHO) w/o ZPVE           -0.074679413265 Eh   ::
         :: G(RRHO) contrib.            0.616060723004 Eh   ::
         :::::::::::::::::::::::::::::::::::::::::::::::::::::

           -------------------------------------------------
          | TOTAL ENERGY             -137.918987227536 Eh   |
          | TOTAL ENTHALPY           -137.182836173686 Eh   |
          | TOTAL FREE ENERGY        -137.302926504532 Eh   |
          | GRADIENT NORM               0.000102059225 Eh/α |
           -------------------------------------------------

 * finished run on 2025/07/17 at 06:54:44.229
