   * xtb version 6.7.1 (edcfbbe) compiled by 'albert@albert-system' on 2024-07-22

   ID    Z sym.   atoms
    1    6 C      1-9, 11-17, 19-25, 27-35, 37-44
    2    7 N      10, 18, 26, 36
    3    1 H      45-72

          program call               : xtb data2507/gas/DMAC-PCN/DMAC-PCN_gas_S0_finalOpt.xtbopt.xyz --gfn 2 --spinpol --tblite --uhf 2 --ohess vtight --parallel 40 --molden --ceasefiles --namespace data2507/gas/DMAC-PCN/DMAC-PCN_gas_T1_preOpt
 * total energy  :  -111.4909818 Eh     change        0.3802337E-07 Eh
 * total energy  :  -111.4936840 Eh     change       -0.2702262E-02 Eh
 * total energy  :  -111.4951594 Eh     change       -0.1475384E-02 Eh
 * total energy  :  -111.4956904 Eh     change       -0.5309769E-03 Eh
 * total energy  :  -111.4966334 Eh     change       -0.9429969E-03 Eh
 * total energy  :  -111.4969574 Eh     change       -0.3240052E-03 Eh
 * total energy  :  -111.4971445 Eh     change       -0.1870656E-03 Eh
 * total energy  :  -111.4974570 Eh     change       -0.3124912E-03 Eh
 * total energy  :  -111.4977599 Eh     change       -0.3029062E-03 Eh
 * total energy  :  -111.4980417 Eh     change       -0.2818362E-03 Eh
 * total energy  :  -111.5003456 Eh     change       -0.1173722E-06 Eh
 * total energy  :  -111.5003459 Eh     change       -0.2904466E-06 Eh
 * total energy  :  -111.5003461 Eh     change       -0.1935655E-06 Eh
 * total energy  :  -111.5003463 Eh     change       -0.2576340E-06 Eh
 * total energy  :  -111.5003465 Eh     change       -0.1488844E-06 Eh
 * total energy  :  -111.5003466 Eh     change       -0.1320584E-06 Eh
 * total energy  :  -111.5003467 Eh     change       -0.1144316E-06 Eh
 * total energy  :  -111.5003469 Eh     change       -0.1639627E-06 Eh
 * total energy  :  -111.5003470 Eh     change       -0.9542589E-07 Eh
   *** GEOMETRY OPTIMIZATION CONVERGED AFTER 111 ITERATIONS ***

 final structure:
================
72
 xtb: 6.7.1 (edcfbbe)
C           -7.58653164066650        0.27198897011249        1.24418091630313
C           -6.70625361623699        0.00732956512755        0.00775989250434
C           -7.58905012364201       -0.25386671078388       -1.22760524801907
C           -5.86256716210334       -1.22214943623950        0.27107436424878
C           -6.47989022251606       -2.43714083630112        0.53463793786433
C           -5.75411001412754       -3.58464682858317        0.79650901605251
C           -4.36887924282227       -3.52967336209669        0.80852173128115
C           -3.72772735926398       -2.33931756147927        0.55041298522555
C           -4.46031600902021       -1.17746368641626        0.26832853905444
N           -3.79299612781367        0.00131919164643        0.00455986132208
C           -2.36840329097487       -0.00180694600084        0.00227254636668
C           -1.68078643470440       -0.49178801833257       -1.10003180035070
C           -0.30015516155627       -0.49891238987979       -1.09774118231437
C            0.40061879640353       -0.00708251768642       -0.00259488246008
C            1.87763617331573       -0.00849941995593       -0.00541463963523
C            2.55066582449844       -1.22831720215721       -0.08961093403743
C            1.79201159726579       -2.39095794894693        0.00979179984642
N            1.06425546623907       -3.28500829335329        0.09239533215179
C            4.01159445537005       -1.18802906124501       -0.10639401494393
C            4.86508762732916       -2.34959064277313       -0.14826988492373
C            4.42490343295646       -3.60980443988534       -0.57341298753212
C            5.29763865580457       -4.67734378928161       -0.62262104785903
C            6.62394676781552       -4.52408910021373       -0.24870377422073
C            7.07674081814969       -3.27858143921649        0.16775378277298
C            6.21542221205197       -2.20737416889767        0.21800761487819
N            4.57508685792438       -0.00943692437270       -0.01067800695706
C            4.01278697666089        1.16917154769667        0.08787057769348
C            4.86645412996600        2.33088831988348        0.12797543264375
C            4.42900498240270        3.58801747515711        0.56469152545519
C            5.30122591519886        4.65605618597938        0.61216948548619
C            6.62408337503042        4.50612835504251        0.22492802234924
C            7.07412266170164        3.26354513907220       -0.20298693658491
C            6.21329610270254        2.19175936199743       -0.25150122647933
C            2.55199897735681        1.21087323374519        0.07636048994860
C            1.79500068258797        2.37468228508364       -0.02153618537263
N            1.06931997350761        3.27052169588735       -0.10270190332726
C           -0.29448282798043        0.48714023406581        1.09511925464824
C           -1.67508732722894        0.48526514014700        1.10230000967506
C           -4.45600616164573        1.18303307275156       -0.25704477202238
C           -3.71929049669163        2.34206147457147       -0.54000774380016
C           -4.35613537267820        3.53520699981504       -0.79591227924880
C           -5.74110151057856        3.59581832789397       -0.78097938340962
C           -6.47099684648628        2.45111123461014       -0.51829542763627
C           -5.85807204994140        1.23348277660106       -0.25664185367296
H           -8.22447928070774       -0.58140679792611        1.45469826789180
H           -8.21999514364940        1.14047780219893        1.08915362848584
H           -6.95881307032916        0.45488662706312        2.11413133006339
H           -8.22416088909964        0.60190175919799       -1.43709216153100
H           -6.96311008972881       -0.43881175109593       -2.09840548960000
H           -8.22541711164562       -1.12012482364511       -1.07195450570422
H           -7.55741920087701       -2.49598355669150        0.53816095231056
H           -6.26609554875991       -4.51335080949495        0.99530809002186
H           -3.78703086112461       -4.41302078381575        1.02017763106920
H           -2.65017138861440       -2.30200266066952        0.56738857956978
H           -2.23089690010364       -0.86701181825880       -1.94986281204540
H            0.23776000552328       -0.87822989653587       -1.95334858407575
H            3.40104452424777       -3.75045664382061       -0.88012347642333
H            4.93956237766527       -5.64046592072236       -0.95595731057006
H            7.29997878356309       -5.36523038322285       -0.28345336907243
H            8.11063209549325       -3.14935350620590        0.45430956831964
H            6.56162379010108       -1.23728370237046        0.54314884948740
H            3.40796514494576        3.72558782509694        0.88213960348352
H            4.94550224761027        5.61682061185901        0.95467537398268
H            7.29966412209349        5.34769140620686        0.25824922591048
H            8.10540409415098        3.13701671722409       -0.49995166379049
H            6.55731519822568        1.22395302890544       -0.58563329599575
H            0.24788335513238        0.86446326937674        1.94880034845700
H           -2.22078265677561        0.86262342849700        1.95402878731077
H           -2.64193535524995        2.30042307101060       -0.55938213692124
H           -3.77112105537165        4.41631680907661       -1.00816077683000
H           -6.24972305133630        4.52672113613450       -0.97813139147756
H           -7.54828361381815        2.51430836609853       -0.51964406128146

 projected vibrational frequencies (cm⁻¹)
eigval :       -0.00    -0.00     0.00     0.00     0.00     0.00
eigval :        7.98    10.64    17.25    26.28    27.72    29.02
eigval :       37.80    49.46    51.00    59.60    66.53    66.93
eigval :       97.14    99.68   111.49   113.15   128.40   129.37
eigval :      138.50   156.73   169.77   191.59   195.39   203.15
eigval :      216.23   231.42   236.01   237.92   247.49   267.25
eigval :      285.17   290.24   304.00   326.82   328.61   340.81
eigval :      352.72   367.80   369.29   371.85   376.51   395.57
eigval :      395.94   399.24   403.27   417.25   444.74   449.88
eigval :      451.12   465.58   501.85   502.83   505.06   514.25
eigval :      537.17   539.29   542.91   564.20   566.23   578.87
eigval :      580.42   585.30   588.42   592.81   608.77   618.94
eigval :      638.64   639.23   651.49   652.05   660.72   669.29
eigval :      686.87   700.11   702.03   730.69   748.03   748.44
eigval :      774.91   776.22   777.68   815.28   816.77   827.51
eigval :      852.44   855.48   866.43   873.18   873.56   883.81
eigval :      886.20   908.35   916.33   917.21   917.45   917.90
eigval :      921.00   922.17   922.92   922.98   923.07   925.21
eigval :      925.47   937.55   947.71   958.17   960.90  1002.39
eigval :     1005.35  1013.33  1039.30  1075.31  1077.49  1079.91
eigval :     1085.79  1107.94  1112.61  1121.06  1122.33  1133.05
eigval :     1137.48  1139.81  1151.31  1165.39  1172.62  1178.47
eigval :     1179.26  1184.72  1185.01  1185.31  1199.97  1200.17
eigval :     1206.93  1218.19  1238.75  1244.10  1258.75  1261.21
eigval :     1263.92  1276.44  1277.90  1289.87  1293.84  1309.67
eigval :     1313.66  1318.30  1328.23  1329.50  1332.33  1334.21
eigval :     1348.17  1372.04  1398.89  1401.99  1402.11  1415.45
eigval :     1419.75  1421.23  1429.99  1430.08  1432.01  1457.08
eigval :     1461.01  1464.61  1478.76  1486.44  1486.71  1487.43
eigval :     1497.56  1501.01  1547.52  1547.89  1554.85  1565.74
eigval :     1568.60  1575.45  1578.70  1578.80  1589.12  1594.83
eigval :     2245.83  2290.41  3030.79  3032.44  3045.93  3048.31
eigval :     3054.17  3057.75  3071.05  3071.31  3077.81  3077.90
eigval :     3085.04  3085.72  3087.81  3087.97  3088.15  3089.05
eigval :     3092.28  3092.49  3096.08  3096.21  3098.97  3099.62
eigval :     3103.91  3104.11  3114.03  3114.41  3118.67  3119.30

   temp. (K)  partition function   enthalpy   heat capacity  entropy
                                   cal/mol     cal/K/mol   cal/K/mol   J/K/mol
 298.15  VIB  0.459E+18            21964.244    134.501    137.809
         ROT  0.349E+08              888.752      2.981     37.498
         INT  0.160E+26            22852.996    137.481    175.307
         TR   0.130E+29             1481.254      4.968     44.858
         TOT                       24334.2500   142.4496   220.1642   921.1670

       T/K    H(0)-H(T)+PV         H(T)/Eh          T*S/Eh         G(T)/Eh
   ------------------------------------------------------------------------
    298.15    0.387791E-01    0.586812E+00    0.104607E+00    0.482205E+00
   ------------------------------------------------------------------------

         :::::::::::::::::::::::::::::::::::::::::::::::::::::
         ::                  THERMODYNAMIC                  ::
         :::::::::::::::::::::::::::::::::::::::::::::::::::::
         :: total free energy        -111.018141991313 Eh   ::
         ::.................................................::
         :: total energy             -111.500346927815 Eh   ::
         :: zero point energy           0.548032950511 Eh   ::
         :: G(RRHO) w/o ZPVE           -0.065828014009 Eh   ::
         :: G(RRHO) contrib.            0.482204936502 Eh   ::
         :::::::::::::::::::::::::::::::::::::::::::::::::::::

           -------------------------------------------------
          | TOTAL ENERGY             -111.500346927815 Eh   |
          | TOTAL ENTHALPY           -110.913534881559 Eh   |
          | TOTAL FREE ENERGY        -111.018141991313 Eh   |
          | GRADIENT NORM               0.000067727520 Eh/α |
           -------------------------------------------------

 * finished run on 2025/08/25 at 02:40:50.368
