   * xtb version 6.7.1 (edcfbbe) compiled by 'albert@albert-system' on 2024-07-22

   ID    Z sym.   atoms
    1    6 C      1-9, 11-17, 19-25, 27-35, 37-44
    2    7 N      10, 18, 26, 36
    3    1 H      45-72

          program call               : xtb data2507/gas/DMAC-PCN/DMAC-PCN.xyz --gfn 2 --ohess vtight --parallel 40 --molden --ceasefiles --namespace data2507/gas/DMAC-PCN/DMAC-PCN_gas_S0_preOpt
          :  Hamiltonian                  GFN2-xTB          :
 * total energy  :  -111.5466972 Eh     change       -0.2126527E-08 Eh
 * total energy  :  -111.5626031 Eh     change       -0.1590594E-01 Eh
 * total energy  :  -111.5670845 Eh     change       -0.4481354E-02 Eh
 * total energy  :  -111.5681120 Eh     change       -0.1027549E-02 Eh
 * total energy  :  -111.5690395 Eh     change       -0.9274830E-03 Eh
 * total energy  :  -111.5695171 Eh     change       -0.4775719E-03 Eh
 * total energy  :  -111.5699053 Eh     change       -0.3881779E-03 Eh
 * total energy  :  -111.5702334 Eh     change       -0.3281067E-03 Eh
 * total energy  :  -111.5705319 Eh     change       -0.2985450E-03 Eh
 * total energy  :  -111.5707576 Eh     change       -0.2257380E-03 Eh
 * total energy  :  -111.5737037 Eh     change       -0.1601921E-06 Eh
 * total energy  :  -111.5737038 Eh     change       -0.1582589E-06 Eh
 * total energy  :  -111.5737040 Eh     change       -0.1533938E-06 Eh
 * total energy  :  -111.5737041 Eh     change       -0.1376763E-06 Eh
 * total energy  :  -111.5737042 Eh     change       -0.1318008E-06 Eh
 * total energy  :  -111.5737044 Eh     change       -0.1396362E-06 Eh
 * total energy  :  -111.5737045 Eh     change       -0.1397851E-06 Eh
 * total energy  :  -111.5737046 Eh     change       -0.1117214E-06 Eh
 * total energy  :  -111.5737047 Eh     change       -0.7569561E-07 Eh
   *** GEOMETRY OPTIMIZATION CONVERGED AFTER 150 ITERATIONS ***

 final structure:
================
72
 xtb: 6.7.1 (edcfbbe)
C           -7.17018199555779        0.12196205136691        1.21650147863508
C           -6.28356818028951       -0.01047032425937       -0.03531365152869
C           -7.15682247451440       -0.13511737886629       -1.29725837268089
C           -5.44102132880809       -1.26385592790086        0.10191417678115
C           -6.07005611139521       -2.49467334731775        0.23398904811342
C           -5.36005455192899       -3.66915092360280        0.39699511049604
C           -3.97901705795068       -3.62018912455552        0.45086236458032
C           -3.32872158757114       -2.41130999775109        0.32115549203356
C           -4.04321853360766       -1.22585306545905        0.12323394168988
N           -3.36180155549874       -0.02313380737003       -0.01522973274110
C           -1.94713600641941       -0.02755660327191        0.00008826134810
C           -1.23645717263574       -0.57233907710674       -1.06485519176864
C            0.14314602823909       -0.58295891590822       -1.04608390396118
C            0.83430241409410       -0.03212536736528        0.02987517335614
C            2.30331741951205       -0.02413250938694        0.04763058758527
C            3.03810822234113       -1.20637683151826       -0.11668800744325
C            2.34883652016588       -2.42420773436593       -0.30182565628117
N            1.76427712047651       -3.39903656345527       -0.45889850518740
C            4.44714337098206       -1.13379429836744       -0.12513040888723
C            5.30110336539443       -2.31325132642830       -0.30278774153496
C            5.00002078232643       -3.53666353248199        0.29039594609559
C            5.83759571896035       -4.62090928968288        0.10442210114630
C            6.97804498413674       -4.49840360402715       -0.67162041894214
C            7.29228141009794       -3.27893703621985       -1.25021070632090
C            6.46468054409925       -2.19007355540270       -1.06090313583588
N            5.07891470038675        0.02053428707793        0.01461079143310
C            4.41549447858958        1.14961594096648        0.20927407454751
C            5.23194475855046        2.35354000776982        0.38859940057856
C            4.85568937004155        3.37421919955721        1.25869283253197
C            5.65731180125905        4.49100204528892        1.40465256848713
C            6.83768973165796        4.60234929150592        0.68880752488185
C            7.22707999313714        3.58215297070367       -0.16467283282015
C            6.43460893098871        2.46093992579785       -0.30907072640083
C            3.00516855979213        1.17659543361689        0.22270065599240
C            2.27930626979096        2.38637277761106        0.27603718214000
N            1.66608389716443        3.35616849992534        0.26719530605584
C            0.12112834885115        0.52155505504305        1.09035189543864
C           -1.25829464975429        0.51496660401097        1.08051425451582
C           -4.03098042037995        1.18530782381972       -0.16544903930421
C           -3.30341584332644        2.36397692233658       -0.35622041892537
C           -3.94139094312282        3.57827850473796       -0.49614476624127
C           -5.32254021821324        3.63947614237763       -0.45967389109499
C           -6.04496884935657        2.47155596610375       -0.30444119399384
C           -5.42848140707581        1.23542561747318       -0.16278912838861
H           -7.81385259708386       -0.74580650280146        1.33069086997699
H           -7.79880262249612        1.00599641122743        1.15534127992377
H           -6.54591396546709        0.20520542699009        2.10428978138965
H           -7.79166516887453        0.73814373567857       -1.41865291784582
H           -6.52304546274890       -0.22353898204773       -2.17776152134981
H           -7.79374905204969       -1.01367368227963       -1.24367659424064
H           -7.14828806632546       -2.54364198747434        0.21226294672023
H           -5.88121118734668       -4.60949878389941        0.49217981901175
H           -3.40244399610258       -4.52112571173893        0.59710168987251
H           -2.25163145994083       -2.38645275438980        0.37976164545453
H           -1.77332513221010       -0.98880441268133       -1.90364615411741
H            0.68813491127104       -0.99567703491880       -1.88215127711036
H            4.12767780094010       -3.63745154854146        0.91805143481860
H            5.59812095273885       -5.56498208973121        0.57009330617410
H            7.62520577368417       -5.35009714884715       -0.81918326277615
H            8.18567416716235       -3.17793161120475       -1.84843097170214
H            6.69911618296352       -1.23470029546771       -1.50440804092013
H            3.95095881064922        3.28785192583785        1.84126237513326
H            5.35887292876745        5.27648796519961        2.08248381070940
H            7.45704284585700        5.47964991285557        0.80154451129630
H            8.15152130103567        3.66225872751837       -0.71710785671610
H            6.72686693825509        1.65847586913518       -0.96837413368544
H            0.64967092138516        0.93527662577835        1.93681647747080
H           -1.81213456650918        0.93485234376201        1.90651993340657
H           -2.22596279925984        2.32984420207672       -0.40200167203254
H           -3.35491020640286        4.47361857587362       -0.63694488219190
H           -5.83415323766179        4.58423530820063       -0.56274121606027
H           -7.12292586784329        2.53000859089279       -0.29655111876380

          :  Hamiltonian                  GFN2-xTB          :
         :: gradient norm              0.000023372094 Eh/a0 ::
         :: HOMO-LUMO gap              1.077163493311 eV    ::
         :: SCC energy              -113.705700208164 Eh    ::
         :: -> dispersion             -0.101771638286 Eh    ::
         :: repulsion energy           2.131995492661 Eh    ::

    * Orbital Energies and Occupations

         #    Occupation            Energy/Eh            Energy/eV
      -------------------------------------------------------------
         1        2.0000           -0.6970671             -18.9682
       ...           ...                  ...                  ...
        92        2.0000           -0.4230193             -11.5109
        93        2.0000           -0.4195382             -11.4162
        94        2.0000           -0.4191076             -11.4045
        95        2.0000           -0.4179151             -11.3720
        96        2.0000           -0.4144503             -11.2778
        97        2.0000           -0.4072216             -11.0811
        98        2.0000           -0.4043008             -11.0016
        99        2.0000           -0.4033193             -10.9749
       100        2.0000           -0.3992823             -10.8650
       101        2.0000           -0.3934743             -10.7070
       102        2.0000           -0.3912533             -10.6465
       103        2.0000           -0.3882480             -10.5648
       104        2.0000           -0.3435371              -9.3481 (HOMO)
       105                         -0.3039520              -8.2710 (LUMO)
       106                         -0.2947121              -8.0195
       107                         -0.2544890              -6.9250
       108                         -0.2437097              -6.6317
       109                         -0.2376690              -6.4673
       110                         -0.2373614              -6.4589
       111                         -0.2369268              -6.4471
       112                         -0.2245000              -6.1090
       113                         -0.2200096              -5.9868
       114                         -0.2184780              -5.9451
       115                         -0.2147263              -5.8430
       ...                                ...                  ...
       204                          1.1576796              31.5021
      -------------------------------------------------------------
                  HL-Gap            0.0395852 Eh            1.0772 eV

     #   Z          covCN         q      C6AA      α(0)
     1   6 C        3.761    -0.103    22.510     6.763
     2   6 C        3.909     0.021    20.157     6.382
     3   6 C        3.761    -0.103    22.511     6.764
     4   6 C        2.980    -0.014    28.348     8.734
     5   6 C        2.928    -0.036    28.903     8.817
     6   6 C        2.917    -0.044    29.097     8.845
     7   6 C        2.920    -0.032    28.806     8.801
     8   6 C        2.924    -0.058    29.453     8.900
     9   6 C        2.927     0.057    26.715     8.476
    10   7 N        2.754    -0.070    22.590     7.059
    11   6 C        2.928     0.076    26.311     8.412
    12   6 C        2.921    -0.035    28.861     8.810
    13   6 C        2.923    -0.026    28.647     8.777
    14   6 C        2.979     0.004    27.940     8.671
    15   6 C        2.998     0.036    27.173     8.551
    16   6 C        2.970    -0.010    28.258     8.720
    17   6 C        1.908     0.114    28.284     8.589
    18   7 N        0.911    -0.239    26.238     7.408
    19   6 C        2.949     0.108    25.614     8.301
    20   6 C        2.983     0.006    27.871     8.660
    21   6 C        2.922    -0.026    28.663     8.780
    22   6 C        2.919    -0.025    28.619     8.773
    23   6 C        2.920    -0.023    28.588     8.768
    24   6 C        2.918    -0.026    28.652     8.778
    25   6 C        2.926    -0.023    28.568     8.765
    26   7 N        1.856    -0.239    27.108     7.717
    27   6 C        2.949     0.108    25.619     8.302
    28   6 C        2.982     0.006    27.873     8.660
    29   6 C        2.922    -0.026    28.654     8.778
    30   6 C        2.919    -0.025    28.621     8.773
    31   6 C        2.920    -0.023    28.579     8.767
    32   6 C        2.918    -0.026    28.647     8.777
    33   6 C        2.926    -0.022    28.565     8.765
    34   6 C        2.971    -0.010    28.257     8.719
    35   6 C        1.909     0.114    28.291     8.590
    36   7 N        0.911    -0.239    26.251     7.410
    37   6 C        2.923    -0.026    28.650     8.778
    38   6 C        2.921    -0.035    28.872     8.811
    39   6 C        2.927     0.057    26.717     8.477
    40   6 C        2.924    -0.058    29.450     8.899
    41   6 C        2.920    -0.032    28.804     8.801
    42   6 C        2.917    -0.044    29.095     8.845
    43   6 C        2.928    -0.036    28.904     8.817
    44   6 C        2.980    -0.014    28.350     8.734
    45   1 H        0.925     0.039     2.463     2.454
    46   1 H        0.925     0.039     2.461     2.453
    47   1 H        0.925     0.031     2.572     2.508
    48   1 H        0.925     0.039     2.462     2.454
    49   1 H        0.925     0.031     2.570     2.507
    50   1 H        0.925     0.039     2.461     2.453
    51   1 H        0.926     0.030     2.591     2.517
    52   1 H        0.926     0.026     2.639     2.541
    53   1 H        0.926     0.030     2.583     2.513
    54   1 H        0.926     0.026     2.645     2.543
    55   1 H        0.926     0.051     2.310     2.377
    56   1 H        0.926     0.040     2.449     2.447
    57   1 H        0.926     0.040     2.455     2.450
    58   1 H        0.926     0.042     2.424     2.435
    59   1 H        0.926     0.040     2.451     2.448
    60   1 H        0.926     0.039     2.456     2.451
    61   1 H        0.926     0.047     2.354     2.400
    62   1 H        0.926     0.039     2.467     2.456
    63   1 H        0.926     0.042     2.425     2.435
    64   1 H        0.926     0.040     2.448     2.447
    65   1 H        0.926     0.040     2.453     2.449
    66   1 H        0.926     0.049     2.330     2.387
    67   1 H        0.926     0.038     2.476     2.461
    68   1 H        0.926     0.050     2.318     2.381
    69   1 H        0.926     0.027     2.634     2.538
    70   1 H        0.926     0.031     2.575     2.509
    71   1 H        0.926     0.026     2.639     2.540
    72   1 H        0.926     0.030     2.592     2.518

molecular dipole:
                 x           y           z       tot (Debye)
 q only:        1.177       0.028       0.059
   full:        1.313       0.024       0.132       3.355

 projected vibrational frequencies (cm⁻¹)
eigval :       -0.00    -0.00    -0.00    -0.00     0.00     0.00
eigval :       10.39    12.71    16.09    26.60    27.63    37.86
eigval :       41.58    46.92    54.60    58.03    62.53    84.46
eigval :       95.45   101.23   102.31   118.28   121.72   128.17
eigval :      149.26   153.82   170.55   189.29   202.26   206.45
eigval :      218.20   230.84   234.21   246.44   253.79   267.64
eigval :      282.76   293.60   305.84   332.07   334.71   338.79
eigval :      345.71   371.48   372.61   374.95   381.70   388.46
eigval :      396.79   400.30   414.06   449.07   453.28   462.68
eigval :      483.98   488.00   492.61   511.17   514.95   539.64
eigval :      547.47   548.06   554.97   576.65   579.95   586.22
eigval :      587.00   593.15   597.91   630.80   635.95   638.78
eigval :      662.93   664.60   668.99   675.04   678.61   683.00
eigval :      693.86   702.49   730.00   736.34   764.91   768.39
eigval :      777.94   779.40   783.37   818.52   828.29   834.39
eigval :      868.28   869.72   871.46   872.13   874.34   904.20
eigval :      906.05   913.48   914.18   914.76   919.22   921.65
eigval :      922.14   923.14   927.44   927.90   928.65   933.12
eigval :      933.33   938.85   957.15   961.41   968.67  1013.41
eigval :     1014.52  1016.86  1064.07  1077.19  1082.09  1084.15
eigval :     1086.17  1115.27  1120.04  1121.02  1122.44  1136.02
eigval :     1141.92  1160.39  1172.65  1180.11  1181.13  1184.50
eigval :     1187.30  1188.27  1188.91  1192.27  1199.82  1211.54
eigval :     1217.82  1245.62  1250.99  1263.27  1266.46  1270.28
eigval :     1274.07  1278.26  1278.81  1295.38  1308.91  1319.58
eigval :     1321.99  1324.25  1325.32  1334.33  1340.28  1362.22
eigval :     1389.61  1397.07  1402.73  1407.40  1420.96  1429.89
eigval :     1431.37  1436.10  1442.65  1472.31  1475.14  1479.50
eigval :     1480.73  1489.74  1490.16  1491.05  1499.79  1500.84
eigval :     1505.41  1511.36  1558.68  1576.05  1580.37  1581.32
eigval :     1589.02  1593.13  1593.19  1594.90  1595.60  1602.79
eigval :     2356.45  2359.90  3026.47  3028.60  3039.37  3042.06
eigval :     3048.33  3052.22  3079.28  3079.48  3080.09  3080.34
eigval :     3081.20  3084.65  3085.03  3085.44  3085.72  3085.83
eigval :     3092.37  3093.20  3094.53  3094.92  3098.77  3099.60
eigval :     3100.05  3100.26  3102.02  3102.95  3103.75  3103.83

   temp. (K)  partition function   enthalpy   heat capacity  entropy
                                   cal/mol     cal/K/mol   cal/K/mol   J/K/mol
 298.15  VIB  0.158E+18            21659.186    132.974    135.752
         ROT  0.705E+08              888.752      2.981     38.893
         INT  0.112E+26            22547.939    135.955    174.645
         TR   0.130E+29             1481.254      4.968     44.858
         TOT                       24029.1926   140.9231   219.5030   918.4007

       T/K    H(0)-H(T)+PV         H(T)/Eh          T*S/Eh         G(T)/Eh
   ------------------------------------------------------------------------
    298.15    0.382930E-01    0.590301E+00    0.104293E+00    0.486008E+00
   ------------------------------------------------------------------------

         :::::::::::::::::::::::::::::::::::::::::::::::::::::
         ::                  THERMODYNAMIC                  ::
         :::::::::::::::::::::::::::::::::::::::::::::::::::::
         :: total free energy        -111.087697169984 Eh   ::
         ::.................................................::
         :: total energy             -111.573704715492 Eh   ::
         :: zero point energy           0.552007569882 Eh   ::
         :: G(RRHO) w/o ZPVE           -0.066000024374 Eh   ::
         :: G(RRHO) contrib.            0.486007545508 Eh   ::
         :::::::::::::::::::::::::::::::::::::::::::::::::::::

           -------------------------------------------------
          | TOTAL ENERGY             -111.573704715492 Eh   |
          | TOTAL ENTHALPY           -110.983404189742 Eh   |
          | TOTAL FREE ENERGY        -111.087697169984 Eh   |
          | GRADIENT NORM               0.000023505753 Eh/α |
          | HOMO-LUMO GAP               1.077167076596 eV   |
           -------------------------------------------------

 * finished run on 2025/08/25 at 02:37:12.938
