   * xtb version 6.7.1 (edcfbbe) compiled by 'albert@albert-system' on 2024-07-22

   ID    Z sym.   atoms
    1    6 C      1-9, 11-17, 19-25, 27-35, 37-44
    2    7 N      10, 18, 26, 36
    3    1 H      45-72

          program call               : xtb data2507/gas/DMAC-PCN/DMAC-PCN_gas_S0_crest.xyz --gfn 2 --ohess vtight --parallel 40 --molden --ceasefiles --namespace data2507/gas/DMAC-PCN/DMAC-PCN_gas_S0_finalOpt
          :  Hamiltonian                  GFN2-xTB          :
 * total energy  :  -111.5736790 Eh     change       -0.1677932E-08 Eh
 * total energy  :  -111.5736798 Eh     change       -0.7097860E-06 Eh
 * total energy  :  -111.5736806 Eh     change       -0.8689208E-06 Eh
 * total energy  :  -111.5736811 Eh     change       -0.4416094E-06 Eh
 * total energy  :  -111.5736832 Eh     change       -0.2096821E-05 Eh
 * total energy  :  -111.5736843 Eh     change       -0.1126919E-05 Eh
 * total energy  :  -111.5736859 Eh     change       -0.1571290E-05 Eh
 * total energy  :  -111.5736877 Eh     change       -0.1818774E-05 Eh
 * total energy  :  -111.5736891 Eh     change       -0.1392403E-05 Eh
 * total energy  :  -111.5736905 Eh     change       -0.1451461E-05 Eh
 * total energy  :  -111.5737004 Eh     change       -0.7724979E-06 Eh
 * total energy  :  -111.5737014 Eh     change       -0.9256485E-06 Eh
 * total energy  :  -111.5737020 Eh     change       -0.6427165E-06 Eh
 * total energy  :  -111.5737025 Eh     change       -0.4979422E-06 Eh
 * total energy  :  -111.5737025 Eh     change        0.5295306E-08 Eh
 * total energy  :  -111.5737026 Eh     change       -0.1131560E-06 Eh
 * total energy  :  -111.5737025 Eh     change        0.1534564E-06 Eh
 * total energy  :  -111.5737029 Eh     change       -0.4592173E-06 Eh
 * total energy  :  -111.5737030 Eh     change       -0.6788355E-07 Eh
   *** GEOMETRY OPTIMIZATION CONVERGED AFTER 26 ITERATIONS ***

 final structure:
================
72
 xtb: 6.7.1 (edcfbbe)
C           -7.57002105934968        0.27269949060366        1.19893317883517
C           -6.68861596786351        0.01504845488732       -0.03694847758771
C           -7.56715649751032       -0.23035895237897       -1.27731138962756
C           -5.84901856569158       -1.22157687273635        0.21951012902106
C           -6.48058920321680       -2.43188891750673        0.47291050847478
C           -5.77277355447965       -3.58732011308748        0.74525754915292
C           -4.39129425720561       -3.53816793434860        0.78605125381410
C           -3.73841829354190       -2.34940679278009        0.53760306375676
C           -4.45104985180707       -1.18596020122045        0.23195153818758
N           -3.76731225244448       -0.00391506123376       -0.02226560336833
C           -2.35225693498034       -0.01048880765071       -0.00667322721763
C           -1.64349854830953       -0.64055550735690       -1.02464699639237
C           -0.26394811750516       -0.65510304408232       -1.00384904875980
C            0.42887224442008       -0.02526344435071        0.02684793147810
C            1.89782079070742       -0.02715909948155        0.04776521718200
C            2.62267471749647       -1.22441343068476       -0.03033207125074
C            1.92375078378812       -2.44702927976286       -0.12647705260055
N            1.33227527389139       -3.42666726992465       -0.21109361803210
C            4.03226980310903       -1.16465372898544       -0.04359420414466
C            4.87554023671130       -2.36104175783602       -0.14182511058156
C            4.56623550479259       -3.53801594250207        0.53511394360905
C            5.39275726455722       -4.64042933301095        0.42001896851808
C            6.53030886300006       -4.58220621222252       -0.36766898034723
C            6.85308026666477       -3.40809880205537       -1.02939141265899
C            6.03654502465303       -2.30095066321250       -0.91138057897309
N            4.67401866642834       -0.00902985740643        0.01713172582026
C            4.02019653337039        1.13640181548547        0.13268200719149
C            4.84703656243586        2.34235861956094        0.23347087832399
C            4.47765849920877        3.42223914492532        1.03213538745998
C            5.28939260667974        4.53878187746865        1.10644037948540
C            6.47304495623777        4.59122267585178        0.38925823678010
C            6.85544030224753        3.51286130098273       -0.39289559341089
C            6.05287196228031        2.39186256242123       -0.46522454664656
C            2.61007865491377        1.17672787735485        0.13919945373122
C            1.89623419586307        2.39429140125393        0.10413243693146
N            1.29427727788285        3.36785884554153        0.02388623741090
C           -0.28266464998009        0.61439032266409        1.03898624751338
C           -1.66216784905790        0.61409344084907        1.02745891975688
C           -4.43326615439242        1.18604063671512       -0.28724824146729
C           -3.70212653825894        2.33880649591848       -0.58959632560262
C           -4.33680837323738        3.53539717530453       -0.84747026347845
C           -5.71785507643183        3.60308772035918       -0.81913685501247
C           -6.44364934293446        2.45794875452735       -0.55064338938239
C           -5.83061354631710        1.23992129683816       -0.28873060199805
H           -8.21708046960906       -0.57681776215740        1.39900255496338
H           -8.19487011245460        1.14964979693150        1.05410964517069
H           -6.94212365779470        0.43890491173096        2.07239264932624
H           -8.20143309766273        0.62794431321305       -1.48064700575196
H           -6.93709536136933       -0.40519139794675       -2.14749848946087
H           -8.20497993855901       -1.09846378791428       -1.13594697803045
H           -7.55904472305793       -2.47943887573069        0.46124547019772
H           -6.29594159564167       -4.51234507498342        0.93381185904830
H           -3.81641297016291       -4.42301237164224        1.01426000776379
H           -2.66086423170892       -2.32246227968254        0.58646905770578
H           -2.18174358799692       -1.12030694774982       -1.82797996409402
H            0.27971312337093       -1.13435717573045       -1.80452447190991
H            3.69620805039927       -3.58723509301869        1.17205271740576
H            5.14675376211799       -5.54818048471470        0.95004942609129
H            7.16855035666045       -5.44829835820601       -0.45986990065225
H            7.74437948381235       -3.35674513063518       -1.63698410415397
H            6.27764869256537       -1.38043133598616       -1.42023830101058
H            3.57028161340647        3.38326125250320        1.61571385820180
H            4.99636500609354        5.37040249533415        1.72937964547500
H            7.10040080342501        5.46826322223093        0.44575249905318
H            7.78235965832875        3.54739914465965       -0.94589895853039
H            6.33965290901809        1.54447817582423       -1.06832224272789
H            0.24691564050145        1.09088280800277        1.85107125864864
H           -2.21497456786265        1.10125755802705        1.81637234559319
H           -2.62463949437065        2.29722110431108       -0.62924755043800
H           -3.74799514625117        4.41156674691803       -1.07344933102658
H           -6.22690211560204        4.53452282741152       -1.01471318095528
H           -7.52143918832468        2.52001898910413       -0.54860199529476

          :  Hamiltonian                  GFN2-xTB          :
         :: gradient norm              0.000074855028 Eh/a0 ::
         :: HOMO-LUMO gap              1.073252862486 eV    ::
         :: SCC energy              -113.705708144897 Eh    ::
         :: -> dispersion             -0.101758949873 Eh    ::
         :: repulsion energy           2.132005160171 Eh    ::

    * Orbital Energies and Occupations

         #    Occupation            Energy/Eh            Energy/eV
      -------------------------------------------------------------
         1        2.0000           -0.6971593             -18.9707
       ...           ...                  ...                  ...
        92        2.0000           -0.4230089             -11.5107
        93        2.0000           -0.4195789             -11.4173
        94        2.0000           -0.4191297             -11.4051
        95        2.0000           -0.4179601             -11.3733
        96        2.0000           -0.4145485             -11.2804
        97        2.0000           -0.4072827             -11.0827
        98        2.0000           -0.4042791             -11.0010
        99        2.0000           -0.4032916             -10.9741
       100        2.0000           -0.3992257             -10.8635
       101        2.0000           -0.3934474             -10.7062
       102        2.0000           -0.3913483             -10.6491
       103        2.0000           -0.3882219             -10.5641
       104        2.0000           -0.3434438              -9.3456 (HOMO)
       105                         -0.3040027              -8.2723 (LUMO)
       106                         -0.2949252              -8.0253
       107                         -0.2545644              -6.9271
       108                         -0.2439461              -6.6381
       109                         -0.2377104              -6.4684
       110                         -0.2373931              -6.4598
       111                         -0.2368989              -6.4463
       112                         -0.2245834              -6.1112
       113                         -0.2199304              -5.9846
       114                         -0.2185042              -5.9458
       115                         -0.2146740              -5.8416
       ...                                ...                  ...
       204                          1.1575532              31.4986
      -------------------------------------------------------------
                  HL-Gap            0.0394411 Eh            1.0732 eV

     #   Z          covCN         q      C6AA      α(0)
     1   6 C        3.761    -0.103    22.509     6.763
     2   6 C        3.909     0.021    20.157     6.382
     3   6 C        3.761    -0.103    22.511     6.764
     4   6 C        2.980    -0.014    28.350     8.734
     5   6 C        2.928    -0.036    28.903     8.817
     6   6 C        2.917    -0.044    29.098     8.846
     7   6 C        2.920    -0.032    28.806     8.801
     8   6 C        2.924    -0.058    29.454     8.900
     9   6 C        2.927     0.057    26.714     8.476
    10   7 N        2.754    -0.070    22.596     7.060
    11   6 C        2.928     0.076    26.306     8.411
    12   6 C        2.921    -0.034    28.858     8.809
    13   6 C        2.923    -0.026    28.646     8.777
    14   6 C        2.979     0.004    27.937     8.670
    15   6 C        2.998     0.036    27.174     8.551
    16   6 C        2.970    -0.010    28.259     8.720
    17   6 C        1.908     0.114    28.284     8.589
    18   7 N        0.911    -0.239    26.238     7.408
    19   6 C        2.949     0.108    25.613     8.301
    20   6 C        2.983     0.006    27.872     8.660
    21   6 C        2.922    -0.026    28.663     8.780
    22   6 C        2.919    -0.025    28.618     8.773
    23   6 C        2.920    -0.023    28.589     8.768
    24   6 C        2.918    -0.026    28.652     8.778
    25   6 C        2.926    -0.023    28.568     8.765
    26   7 N        1.856    -0.239    27.106     7.717
    27   6 C        2.949     0.108    25.619     8.302
    28   6 C        2.982     0.006    27.873     8.660
    29   6 C        2.922    -0.026    28.653     8.778
    30   6 C        2.919    -0.025    28.620     8.773
    31   6 C        2.920    -0.023    28.579     8.767
    32   6 C        2.918    -0.026    28.647     8.777
    33   6 C        2.926    -0.022    28.565     8.765
    34   6 C        2.971    -0.010    28.257     8.719
    35   6 C        1.909     0.114    28.292     8.590
    36   7 N        0.911    -0.239    26.249     7.410
    37   6 C        2.923    -0.026    28.648     8.777
    38   6 C        2.921    -0.035    28.869     8.811
    39   6 C        2.927     0.057    26.715     8.476
    40   6 C        2.924    -0.058    29.451     8.900
    41   6 C        2.920    -0.032    28.804     8.801
    42   6 C        2.917    -0.044    29.097     8.845
    43   6 C        2.928    -0.036    28.904     8.817
    44   6 C        2.980    -0.014    28.351     8.734
    45   1 H        0.925     0.039     2.463     2.454
    46   1 H        0.925     0.039     2.461     2.453
    47   1 H        0.925     0.031     2.573     2.508
    48   1 H        0.925     0.039     2.462     2.454
    49   1 H        0.925     0.031     2.570     2.507
    50   1 H        0.925     0.039     2.461     2.453
    51   1 H        0.926     0.030     2.591     2.517
    52   1 H        0.926     0.026     2.640     2.541
    53   1 H        0.926     0.030     2.584     2.514
    54   1 H        0.926     0.026     2.649     2.545
    55   1 H        0.926     0.051     2.309     2.376
    56   1 H        0.926     0.040     2.446     2.446
    57   1 H        0.926     0.040     2.455     2.450
    58   1 H        0.926     0.042     2.424     2.435
    59   1 H        0.926     0.040     2.451     2.448
    60   1 H        0.926     0.039     2.456     2.451
    61   1 H        0.926     0.047     2.356     2.400
    62   1 H        0.926     0.039     2.468     2.456
    63   1 H        0.926     0.042     2.425     2.435
    64   1 H        0.926     0.040     2.448     2.447
    65   1 H        0.926     0.040     2.452     2.449
    66   1 H        0.926     0.049     2.329     2.386
    67   1 H        0.926     0.038     2.473     2.459
    68   1 H        0.926     0.050     2.317     2.380
    69   1 H        0.926     0.026     2.640     2.541
    70   1 H        0.926     0.031     2.577     2.510
    71   1 H        0.926     0.026     2.640     2.541
    72   1 H        0.926     0.030     2.592     2.518

molecular dipole:
                 x           y           z       tot (Debye)
 q only:        1.186       0.020       0.058
   full:        1.321       0.020       0.131       3.373

 projected vibrational frequencies (cm⁻¹)
eigval :       -0.00    -0.00     0.00     0.00     0.00     0.00
eigval :       10.01    12.72    15.95    25.83    27.28    37.76
eigval :       41.27    46.80    54.33    57.83    62.34    84.51
eigval :       95.41   100.83   102.04   118.14   121.83   128.22
eigval :      149.41   153.83   170.74   189.41   201.82   206.28
eigval :      218.38   230.77   233.77   246.55   253.48   267.62
eigval :      282.93   293.65   305.73   331.95   334.73   338.72
eigval :      345.56   371.50   372.64   375.10   381.45   388.32
eigval :      396.95   400.36   414.08   449.30   452.90   462.71
eigval :      483.83   487.85   492.29   510.96   514.99   539.61
eigval :      547.45   548.08   554.94   576.67   579.95   586.23
eigval :      586.98   593.19   597.93   630.73   635.88   638.76
eigval :      663.02   664.53   669.01   675.08   678.66   682.91
eigval :      693.76   702.67   730.02   736.29   764.87   768.41
eigval :      777.83   779.26   783.42   818.31   828.27   834.45
eigval :      868.23   869.39   871.43   871.64   874.35   904.22
eigval :      906.06   913.47   914.16   914.70   919.19   921.72
eigval :      922.08   922.91   927.44   927.63   928.65   933.13
eigval :      933.33   938.88   957.14   961.42   968.67  1013.42
eigval :     1014.51  1016.83  1064.01  1077.22  1082.10  1084.15
eigval :     1086.25  1115.06  1119.96  1121.03  1122.43  1135.91
eigval :     1141.88  1160.42  1172.49  1180.11  1181.13  1184.44
eigval :     1187.25  1188.18  1188.82  1192.28  1199.81  1211.62
eigval :     1217.69  1245.55  1250.92  1263.34  1266.35  1270.23
eigval :     1274.02  1278.26  1278.81  1295.33  1308.79  1319.75
eigval :     1321.96  1324.23  1325.33  1334.40  1340.82  1362.21
eigval :     1389.43  1397.09  1402.71  1407.32  1420.95  1429.88
eigval :     1431.38  1436.21  1442.85  1472.31  1475.16  1479.72
eigval :     1480.71  1489.69  1490.19  1491.06  1499.85  1500.84
eigval :     1505.43  1511.38  1558.80  1576.08  1580.37  1581.32
eigval :     1589.09  1593.19  1593.25  1594.90  1595.60  1602.78
eigval :     2356.40  2359.85  3026.46  3028.61  3039.31  3042.02
eigval :     3048.27  3052.17  3079.22  3079.40  3080.10  3080.35
eigval :     3081.43  3084.58  3084.86  3085.41  3085.85  3085.87
eigval :     3092.29  3093.25  3094.39  3094.78  3098.90  3099.54
eigval :     3100.19  3100.23  3102.02  3102.64  3103.42  3103.86

   temp. (K)  partition function   enthalpy   heat capacity  entropy
                                   cal/mol     cal/K/mol   cal/K/mol   J/K/mol
 298.15  VIB  0.177E+18            21665.263    132.947    135.847
         ROT  0.705E+08              888.752      2.981     38.893
         INT  0.125E+26            22554.015    135.928    174.740
         TR   0.130E+29             1481.254      4.968     44.858
         TOT                       24035.2693   140.8961   219.5979   918.7974

       T/K    H(0)-H(T)+PV         H(T)/Eh          T*S/Eh         G(T)/Eh
   ------------------------------------------------------------------------
    298.15    0.383026E-01    0.590292E+00    0.104338E+00    0.485954E+00
   ------------------------------------------------------------------------

         :::::::::::::::::::::::::::::::::::::::::::::::::::::
         ::                  THERMODYNAMIC                  ::
         :::::::::::::::::::::::::::::::::::::::::::::::::::::
         :: total free energy        -111.087749407945 Eh   ::
         ::.................................................::
         :: total energy             -111.573702984725 Eh   ::
         :: zero point energy           0.551988962378 Eh   ::
         :: G(RRHO) w/o ZPVE           -0.066035385597 Eh   ::
         :: G(RRHO) contrib.            0.485953576780 Eh   ::
         :::::::::::::::::::::::::::::::::::::::::::::::::::::

           -------------------------------------------------
          | TOTAL ENERGY             -111.573702984725 Eh   |
          | TOTAL ENTHALPY           -110.983411382596 Eh   |
          | TOTAL FREE ENERGY        -111.087749407945 Eh   |
          | GRADIENT NORM               0.000074964903 Eh/α |
          | HOMO-LUMO GAP               1.073247820613 eV   |
           -------------------------------------------------

 * finished run on 2025/08/25 at 02:40:33.206
