   * xtb version 6.7.1 (edcfbbe) compiled by 'albert@albert-system' on 2024-07-22

   ID    Z sym.   atoms
    1    6 C      1-9, 11-17, 19-25, 27-35, 37-44
    2    7 N      10, 18, 26, 36
    3    1 H      45-72

          program call               : xtb data2507/gas/DMAC-PCN/DMAC-PCN_gas_T1_crest.xyz --gfn 2 --spinpol --tblite --uhf 2 --ohess vtight --parallel 40 --molden --ceasefiles --namespace data2507/gas/DMAC-PCN/DMAC-PCN_gas_T1_finalOpt
 * total energy  :  -111.5003299 Eh     change        0.1702966E-07 Eh
 * total energy  :  -111.5003359 Eh     change       -0.6021987E-05 Eh
 * total energy  :  -111.5003440 Eh     change       -0.8090003E-05 Eh
 * total energy  :  -111.5003457 Eh     change       -0.1703010E-05 Eh
 * total energy  :  -111.5003432 Eh     change        0.2425124E-05 Eh
 * total energy  :  -111.5003465 Eh     change       -0.3209978E-05 Eh
 * total energy  :  -111.5003467 Eh     change       -0.2056631E-06 Eh
 * total energy  :  -111.5003471 Eh     change       -0.4684329E-06 Eh
 * total energy  :  -111.5003480 Eh     change       -0.9046456E-06 Eh
 * total energy  :  -111.5003483 Eh     change       -0.3094310E-06 Eh
 * total energy  :  -111.5003484 Eh     change       -0.9719226E-07 Eh
   *** GEOMETRY OPTIMIZATION CONVERGED AFTER 11 ITERATIONS ***

 final structure:
================
72
 xtb: 6.7.1 (edcfbbe)
C           -7.58297528992312        0.25699355588617        1.22480191160608
C           -6.69376677464620       -0.00036213844298       -0.00671909491232
C           -7.56763923041075       -0.25908390322305       -1.24896999189966
C           -5.84859551743131       -1.22877368589781        0.25685005740282
C           -6.46431900041044       -2.44613638323355        0.51306657589675
C           -5.73706171723867       -3.59302047579959        0.77362165083655
C           -4.35200678522295       -3.53517054926073        0.79124824821881
C           -3.71242205671253       -2.34245689423874        0.54022986484946
C           -4.44645438553872       -1.18105671977017        0.26015482039303
N           -3.78054511081972        0.00009235138024        0.00380189608293
C           -2.35583571839798       -0.00100391696606        0.00408797528905
C           -1.66600063237883       -0.47749408983087       -1.10272364303452
C           -0.28537225342801       -0.48239872507293       -1.09874367292110
C            0.41335165769182       -0.00215930938621        0.00292321939255
C            1.89025649476018       -0.00124748187119        0.00166426560614
C            2.56529534734705       -1.21810492805858       -0.10759816670779
C            1.81094344466100       -2.38517611205075       -0.03026664479159
N            1.08822971946246       -3.28461749423610        0.03602350425436
C            4.02608611143508       -1.17520910485377       -0.12276062649625
C            4.88006420807735       -2.33546272965628       -0.19008135452345
C            4.44319148517161       -3.58175863802226       -0.65735948141053
C            5.31577894860383       -4.64809804680131       -0.72991932875495
C            6.63824688540012       -4.50723611994106       -0.33791355559406
C            7.08769271417419       -3.27520518720290        0.12010868129456
C            6.22658584450314       -2.20505876110077        0.19355883784408
N            4.58832281337021        0.00112741178154        0.00002489984865
C            4.02426913989811        1.17689019249172        0.12291856131116
C            4.87685873847758        2.33794285979473        0.18957333010377
C            4.43735836041121        3.58617827731261        0.64938681818190
C            5.30925265665477        4.65303934448430        0.72212886881126
C            6.63385675199273        4.51100696232352        0.33781039053293
C            7.08589092659312        3.27727821494894       -0.11314311267066
C            6.22546263922492        2.20668920770401       -0.18691291627108
C            2.56329385505449        1.21685089967258        0.10945919268147
C            1.80570711222437        2.38192461316948        0.03308343737005
N            1.07993151753655        3.27898348469178       -0.03242338639108
C           -0.28410735391507        0.47802986616034        1.10544348927674
C           -1.66475123568467        0.47430735070541        1.11061896558491
C           -4.44489500991607        1.18158918007624       -0.25509298989843
C           -3.70932984069190        2.34361600852858       -0.52850720736151
C           -4.34755447559767        3.53651989142044       -0.78210038626447
C           -5.73271300612937        3.59394086963761       -0.77396210353032
C           -6.46136319574891        2.44646835408063       -0.52001828159968
C           -5.84705897347395        1.22897997820632       -0.26097397770412
H           -8.22124578657720       -0.59826106278843        1.42660453706787
H           -8.21661477591319        1.12532910710587        1.06970812140888
H           -6.96162363792054        0.43641167308682        2.10002596717452
H           -8.20132899685732        0.59706574151141       -1.46120648890567
H           -6.93542633552424       -0.44208431046948       -2.11564231877271
H           -8.20489763155188       -1.12581594493353       -1.09967072260718
H           -7.54170938292103       -2.50742751265020        0.51150330021422
H           -6.24780707019989       -4.52360716045468        0.96671479196619
H           -3.76912248601515       -4.41815772646005        1.00156313682914
H           -2.63500274359386       -2.30282457054272        0.56092602983099
H           -2.21441545110635       -0.84399620928180       -1.95743508055924
H            0.25411364947034       -0.85091646593122       -1.95806331335061
H            3.42245048649513       -3.71172911311384       -0.97905091796435
H            4.96070866398785       -5.60039231601268       -1.09595389528160
H            7.31404022136792       -5.34763047003074       -0.39081376705176
H            8.11867420647170       -3.15566269538001        0.42098849196351
H            6.57007026865196       -1.24540366523096        0.55097698890784
H            3.41488610632432        3.71744243217924        0.96485981225152
H            4.95193451755858        5.60672076794711        1.08233050679454
H            7.30920912807171        5.35172118275298        0.39115722892559
H            8.11846991768066        3.15679192792089       -0.40812083314081
H            6.57104012702398        1.24568981760676       -0.53867244400416
H            0.25639460990695        0.84598497051352        1.96437299108584
H           -2.21210706954870        0.84120269134451        1.96584076617905
H           -2.63178818784730        2.30440564036884       -0.54209397407943
H           -3.76351002591383        4.41995828038129       -0.98722554561252
H           -6.24243644943170        4.52458035649223       -0.96950265910849
H           -7.53877300519763        2.50733590132924       -0.52642497949373

 projected vibrational frequencies (cm⁻¹)
eigval :       -0.00    -0.00     0.00     0.00     0.00     0.00
eigval :        8.17    10.73    17.11    26.58    27.89    29.17
eigval :       37.89    49.61    50.95    59.53    67.25    67.36
eigval :       97.01    99.70   111.37   113.22   128.33   129.31
eigval :      138.36   156.76   169.72   191.55   195.30   203.09
eigval :      216.23   231.00   236.32   238.16   247.15   267.22
eigval :      285.23   290.32   304.00   326.77   328.57   340.81
eigval :      352.39   367.93   369.38   372.03   376.42   395.88
eigval :      396.14   398.83   403.30   417.24   444.93   449.81
eigval :      451.00   465.55   501.27   502.81   505.07   514.05
eigval :      537.23   539.31   542.91   564.15   565.77   578.94
eigval :      580.48   585.32   588.49   592.92   608.81   618.61
eigval :      638.59   640.26   651.38   652.05   660.75   669.07
eigval :      686.86   700.10   702.07   730.74   748.07   748.43
eigval :      774.85   776.18   777.59   815.41   816.65   827.49
eigval :      852.45   855.75   866.37   873.08   873.45   883.88
eigval :      886.30   908.32   916.33   917.18   917.41   917.95
eigval :      921.01   922.09   922.95   922.96   923.08   925.13
eigval :      925.40   937.52   947.78   958.15   961.02  1002.31
eigval :     1005.66  1013.27  1038.61  1075.33  1077.35  1079.43
eigval :     1085.80  1107.42  1112.45  1121.00  1122.15  1133.03
eigval :     1135.24  1139.66  1151.31  1165.45  1173.74  1178.56
eigval :     1179.28  1184.72  1184.95  1185.45  1199.84  1200.32
eigval :     1207.36  1217.89  1240.42  1244.00  1259.37  1262.19
eigval :     1263.93  1276.51  1277.95  1289.58  1293.94  1309.67
eigval :     1313.76  1318.47  1328.24  1329.61  1332.30  1334.22
eigval :     1349.89  1372.20  1399.03  1402.01  1402.17  1415.36
eigval :     1420.02  1421.33  1429.79  1430.18  1431.99  1457.25
eigval :     1461.26  1465.22  1478.02  1486.63  1487.03  1487.39
eigval :     1497.54  1500.96  1547.62  1547.96  1554.90  1565.70
eigval :     1568.99  1575.52  1578.75  1578.85  1589.51  1594.86
eigval :     2245.81  2290.39  3030.95  3032.59  3045.97  3048.41
eigval :     3054.56  3058.11  3071.23  3071.44  3077.96  3078.06
eigval :     3085.34  3085.94  3088.06  3088.21  3088.44  3089.53
eigval :     3092.49  3092.62  3096.34  3096.46  3099.52  3099.77
eigval :     3104.14  3104.36  3114.10  3114.26  3118.24  3118.90

   temp. (K)  partition function   enthalpy   heat capacity  entropy
                                   cal/mol     cal/K/mol   cal/K/mol   J/K/mol
 298.15  VIB  0.433E+18            21962.678    134.522    137.767
         ROT  0.350E+08              888.752      2.981     37.498
         INT  0.151E+26            22851.431    137.503    175.265
         TR   0.130E+29             1481.254      4.968     44.858
         TOT                       24332.6845   142.4715   220.1228   920.9939

       T/K    H(0)-H(T)+PV         H(T)/Eh          T*S/Eh         G(T)/Eh
   ------------------------------------------------------------------------
    298.15    0.387766E-01    0.586832E+00    0.104587E+00    0.482245E+00
   ------------------------------------------------------------------------

         :::::::::::::::::::::::::::::::::::::::::::::::::::::
         ::                  THERMODYNAMIC                  ::
         :::::::::::::::::::::::::::::::::::::::::::::::::::::
         :: total free energy        -111.018103465813 Eh   ::
         ::.................................................::
         :: total energy             -111.500348480311 Eh   ::
         :: zero point energy           0.548055872962 Eh   ::
         :: G(RRHO) w/o ZPVE           -0.065810858464 Eh   ::
         :: G(RRHO) contrib.            0.482245014498 Eh   ::
         :::::::::::::::::::::::::::::::::::::::::::::::::::::

           -------------------------------------------------
          | TOTAL ENERGY             -111.500348480311 Eh   |
          | TOTAL ENTHALPY           -110.913516006417 Eh   |
          | TOTAL FREE ENERGY        -111.018103465813 Eh   |
          | GRADIENT NORM               0.000059112922 Eh/α |
           -------------------------------------------------

 * finished run on 2025/08/25 at 02:46:04.973
