   * xtb version 6.7.1 (edcfbbe) compiled by 'albert@albert-system' on 2024-07-22

   ID    Z sym.   atoms
    1    6 C      1-13, 15-44, 46-68
    2    7 N      14, 45
    3    1 H      69-120

          program call               : xtb data2507/toluene/pSFIAc2/pSFIAc2_toluene_S0_finalOpt.xtbopt.xyz --gfn 2 --uhf 2 --gbsa toluene --ohess vtight --parallel 40 --molden --ceasefiles --namespace data2507/toluene/pSFIAc2/pSFIAc2_toluene_T1_preOpt
      * Solvation model:               GBSA
        Solvent                        toluene
        Solvent mass                       9.2140E+01 g/mol
          :  Hamiltonian                  GFN2-xTB          :
 * total energy  :  -173.8729740 Eh     change       -0.1324679E-08 Eh
 * total energy  :  -173.8746889 Eh     change       -0.1714842E-02 Eh
 * total energy  :  -173.8752095 Eh     change       -0.5205687E-03 Eh
 * total energy  :  -173.8752518 Eh     change       -0.4238357E-04 Eh
 * total energy  :  -173.8752812 Eh     change       -0.2931513E-04 Eh
 * total energy  :  -173.8752951 Eh     change       -0.1390473E-04 Eh
 * total energy  :  -173.8753032 Eh     change       -0.8139465E-05 Eh
 * total energy  :  -173.8753135 Eh     change       -0.1028390E-04 Eh
 * total energy  :  -173.8753180 Eh     change       -0.4560458E-05 Eh
 * total energy  :  -173.8753246 Eh     change       -0.6556729E-05 Eh
 * total energy  :  -173.8753426 Eh     change       -0.2937339E-06 Eh
 * total energy  :  -173.8753429 Eh     change       -0.2196086E-06 Eh
 * total energy  :  -173.8753433 Eh     change       -0.4704624E-06 Eh
 * total energy  :  -173.8753437 Eh     change       -0.3550495E-06 Eh
 * total energy  :  -173.8753440 Eh     change       -0.3025810E-06 Eh
 * total energy  :  -173.8753442 Eh     change       -0.2235762E-06 Eh
 * total energy  :  -173.8753442 Eh     change        0.1799481E-07 Eh
 * total energy  :  -173.8753443 Eh     change       -0.1541132E-06 Eh
 * total energy  :  -173.8753444 Eh     change       -0.5121049E-07 Eh
   *** GEOMETRY OPTIMIZATION CONVERGED AFTER 45 ITERATIONS ***

 final structure:
================
120
 xtb: 6.7.1 (edcfbbe)
C           -2.54420896962343       -5.87078737202607        1.38612907042307
C           -1.41867409069328       -4.93646033202685        1.05978848192079
C           -0.10861517573418       -5.42133355148510        0.99367127448328
C            0.95385677461560       -4.58256216823651        0.68942578114753
C            0.69046324653580       -3.25433184932534        0.41001077663804
C           -0.63536449682950       -2.72202229493518        0.50478437526747
C           -1.67445100490154       -3.59450564503809        0.83814463711316
C           -0.54169607105394       -1.31451683473006        0.31864812805906
C           -1.44538620437594       -0.22343103286575        0.20702885087639
C           -0.84927156926006        1.02788091973422        0.19501041454155
C            0.54118835594216        1.31704860828133        0.31420896672950
C            1.44485026275660        0.22561739756606        0.20593383190386
C            0.84873559812027       -1.02571960951385        0.19822074050548
N            1.55638653569354       -2.20936488265685        0.14035958949712
C            2.86521728577946       -2.21145293410041       -0.29397071455971
C            3.48994088535038       -3.35911591226695       -0.78769215067554
C            4.80641927801318       -3.33660678659328       -1.19410577985616
C            5.55480560520998       -2.16417860355645       -1.13741187053427
C            7.01626109898878       -2.08369168491625       -1.54313413826639
C            7.59084967341205       -3.44708560459033       -1.93948462016337
C            7.14835036369475       -1.13565801864741       -2.74480470715608
C            7.83577352015579       -1.54251369244863       -0.36190993639401
C            4.89847270754825       -1.01216962505179       -0.71613414811669
C            3.57242006964761       -0.99900681823600       -0.31797387005404
C            2.93839204694451        0.32220105817250        0.10055607200267
C            3.64453689758230        0.73605794547660        1.38341963691248
C            3.52286275860178        0.19312750003282        2.64116317372332
C            4.33432371687495        0.68621593821078        3.65734421782206
C            5.25352194965055        1.69396622096482        3.40494661916589
C            5.37666210399041        2.24547486845681        2.13996985158105
C            4.56396445009610        1.76630054057721        1.12318972384545
C            4.42311458042387        2.17576561164418       -0.26548781390948
C            5.05657496277340        3.16972247520578       -0.99623611089647
C            4.66409556735004        3.37998688567568       -2.30843127492830
C            3.66255580457325        2.61358737514777       -2.88547841783608
C            3.03709251043926        1.60172432912166       -2.16473629996186
C            3.41836745577259        1.39356001269945       -0.86030681054629
C            0.63495754371848        2.72518250364877        0.49547248094186
C            1.67417855347355        3.59871694740440        0.82564922403053
C            1.41855644467571        4.94144190811192        1.04268925992358
C            2.54417699581875        5.87686647055525        1.36555326104277
C            0.10850075796804        5.42616064163728        0.97522699147875
C           -0.95409588562243        4.58641636269953        0.67415836332448
C           -0.69087499015880        3.25720731263761        0.39923673385768
N           -1.55689520483997        2.21135728498468        0.13331867955745
C           -2.86593314769216        2.21200683816767       -0.30040949442648
C           -3.49092892280856        3.35804238541349       -0.79756205295304
C           -4.80762608470423        3.33422514559332       -1.20318539610144
C           -5.55600808592134        2.16200802954716       -1.14222081010769
C           -7.01770737084087        2.08023790461424       -1.54680251068165
C           -7.83657400400653        1.54367332825970       -0.36302768571140
C           -7.59229103025224        3.44222840700803       -1.94795018438216
C           -7.15071107014708        1.12772088014434       -2.74482167968378
C           -4.89945170834062        1.01138522749996       -0.71752176784796
C           -3.57316802952318        0.99949724383993       -0.32007181890567
C           -2.93893325307521       -0.32046253905962        0.10208754419747
C           -3.64503458466630       -0.73110534406525        1.38600954090936
C           -3.52359355124493       -0.18484403251795        2.64231003205134
C           -4.33507744271845       -0.67537414214197        3.65975404025207
C           -5.25406842964978       -1.68398612481453        3.40993341581801
C           -5.37699553928619       -2.23887267718563        2.14643857759578
C           -4.56426423936666       -1.76226280876162        1.12840601400813
C           -4.42324324302296       -2.17536335849703       -0.25909860603484
C           -5.05644015176680       -3.17142719206003       -0.98730277882540
C           -4.66390942810511       -3.38499684838347       -2.29892307233336
C           -3.66254668015372       -2.61985111437938       -2.87799584493457
C           -3.03731452860814       -1.60596033574252       -2.15985354103347
C           -3.41864846538894       -1.39447808418248       -0.85599065096300
H           -2.20404206318467       -6.68299173232189        2.02519595314385
H           -3.35382197662612       -5.34164283981205        1.88330206802940
H           -2.93939751515897       -6.30753029590888        0.46748704289408
H            0.08549298261448       -6.46100763863042        1.21152213933506
H            1.95907609210518       -4.97052441585499        0.72583051690483
H           -2.67652729111671       -3.22639282562862        0.95601905218267
H            2.92360769228861       -4.26868229254619       -0.89210909849539
H            5.23776111311614       -4.25111230925981       -1.56571998844750
H            7.07871631045981       -3.85030710255595       -2.81005751021441
H            7.51461095029254       -4.15641978462704       -1.11848115790067
H            8.64334445035578       -3.33649004523142       -2.19232446233081
H            8.18657477672663       -1.08104454384486       -3.06520811867793
H            6.81420561540672       -0.13201077332527       -2.49608100748366
H            6.54748540474925       -1.49713465231699       -3.57708407523078
H            8.88995362603601       -1.50091582246506       -0.62754010326672
H            7.72266936703728       -2.19175013034733        0.50423683193730
H            7.51630461515701       -0.54279190750087       -0.08079369124580
H            5.43899097761632       -0.07943034308837       -0.70245908936584
H            2.80994832624998       -0.59467845036382        2.83989089995992
H            4.24918062982171        0.27651015162162        4.65328111862203
H            5.87870700158876        2.05690179221246        4.20828589566991
H            6.08837731922040        3.03601065169596        1.95097610283941
H            5.83487069707509        3.77242128152372       -0.55132289386953
H            5.14315994802451        4.15447426526451       -2.89042529639240
H            3.36765172781655        2.80066521337510       -3.90773731774635
H            2.26433855301489        0.99761862906263       -2.61864975289482
H            2.67623431360988        3.23092094846352        0.94465102461566
H            3.35447292840213        5.34916601430801        1.86313116947382
H            2.93822917430124        6.31152593080007        0.44543662262027
H            2.20445080049561        6.69050594152967        2.00303362059736
H           -0.08548711423080        6.46658931304777        1.18955570794750
H           -1.95926921172220        4.97458815134102        0.70952516517800
H           -2.92466223352452        4.26725670705652       -0.90531123913346
H           -5.23912870558590        4.24750231445815       -1.57761980057559
H           -8.89087603098154        1.50085734589718       -0.62797495617172
H           -7.51678707123274        0.54514800794706       -0.07803564698989
H           -7.72314536108262        2.19641058318035        0.50043991269327
H           -7.51567865070415        4.15458273746526       -1.12960081181012
H           -7.08042891126992        3.84218335583102       -2.82018843858651
H           -8.64489108001082        3.33080939854654       -2.19998614296754
H           -8.18915923097838        1.07201821061183       -3.06431620279281
H           -6.55037425912492        1.48601609938584       -3.57885632828839
H           -6.81650839100235        0.12497279951764       -2.49258497945039
H           -5.43998028536677        0.07870400738794       -0.70044706706741
H           -2.81087913769390        0.60363982722001        2.83903407363200
H           -4.25009576778239       -0.26301511003127        4.65460304895933
H           -5.87923814800282       -2.04491703981649        4.21418763630794
H           -6.08850468650669       -3.03007663785753        1.95947268674528
H           -5.83453730980561       -3.77318925986644       -0.54078312874594
H           -5.14273674082009       -4.16116119913081       -2.87887547330592
H           -3.36758812335568       -2.80950450691220       -3.89975948672585
H           -2.26473053016455       -1.00282902267951       -2.61534849199288

          :  Hamiltonian                  GFN2-xTB          :
         :: gradient norm              0.000107225478 Eh/a0 ::
         :: HOMO-LUMO gap              0.119483229749 eV    ::
         :: SCC energy              -177.052417014142 Eh    ::
         :: -> dispersion             -0.193903877031 Eh    ::
         :: -> Gsolv                  -0.062067708581 Eh    ::
         :: repulsion energy           3.177072612002 Eh    ::

    * Orbital Energies and Occupations

         #    Occupation            Energy/Eh            Energy/eV
      -------------------------------------------------------------
         1        2.0000           -0.6782254             -18.4555
       ...           ...                  ...                  ...
       152        2.0000           -0.3979870             -10.8298
       153        2.0000           -0.3973535             -10.8125
       154        2.0000           -0.3970913             -10.8054
       155        2.0000           -0.3957787             -10.7697
       156        2.0000           -0.3918890             -10.6638
       157        2.0000           -0.3890509             -10.5866
       158        2.0000           -0.3879080             -10.5555
       159        2.0000           -0.3774683             -10.2714
       160        2.0000           -0.3770494             -10.2600
       161        2.0000           -0.3632048              -9.8833
       162        1.9997           -0.3571191              -9.7177
       163        1.0003           -0.3418732              -9.3028
       164        0.8800           -0.2556673              -6.9571 (HOMO)
       165        0.0672           -0.2512750              -6.8375 (LUMO)
       166        0.0529           -0.2510335              -6.8310
       167                         -0.2339792              -6.3669
       168                         -0.2309912              -6.2856
       169                         -0.2269778              -6.1764
       170                         -0.2268475              -6.1728
       171                         -0.2223129              -6.0494
       172                         -0.2219959              -6.0408
       173                         -0.2151771              -5.8553
       174                         -0.2148593              -5.8466
       175                         -0.2138420              -5.8189
       ...                                ...                  ...
       324                          0.7507052              20.4277
      -------------------------------------------------------------
                  HL-Gap            0.0043923 Eh            0.1195 eV

     #   Z          covCN         q      C6AA      α(0)
     1   6 C        3.759    -0.106    22.579     6.774
     2   6 C        2.963     0.012    27.738     8.639
     3   6 C        2.925    -0.061    29.512     8.909
     4   6 C        2.907    -0.053    29.316     8.878
     5   6 C        3.056     0.034    27.193     8.552
     6   6 C        3.064    -0.015    28.328     8.728
     7   6 C        2.917    -0.062    29.537     8.912
     8   6 C        3.053    -0.048    29.149     8.854
     9   6 C        2.962    -0.016    28.401     8.741
    10   6 C        3.097     0.035    27.096     8.531
    11   6 C        3.053    -0.048    29.149     8.854
    12   6 C        2.962    -0.016    28.401     8.741
    13   6 C        3.097     0.035    27.096     8.531
    14   7 N        2.803    -0.009    21.430     6.875
    15   6 C        2.923     0.054    26.797     8.489
    16   6 C        2.920    -0.053    29.318     8.879
    17   6 C        2.924    -0.041    29.018     8.834
    18   6 C        2.972     0.007    27.864     8.659
    19   6 C        3.903     0.027    20.072     6.368
    20   6 C        3.761    -0.109    22.634     6.782
    21   6 C        3.761    -0.105    22.550     6.769
    22   6 C        3.761    -0.105    22.554     6.770
    23   6 C        2.933    -0.042    29.055     8.840
    24   6 C        2.988    -0.001    28.049     8.688
    25   6 C        3.947     0.020    20.177     6.383
    26   6 C        3.058     0.005    27.866     8.657
    27   6 C        2.913    -0.034    28.855     8.808
    28   6 C        2.923    -0.035    28.871     8.811
    29   6 C        2.920    -0.034    28.846     8.808
    30   6 C        2.914    -0.037    28.924     8.819
    31   6 C        3.033    -0.000    28.006     8.680
    32   6 C        3.032     0.001    27.977     8.676
    33   6 C        2.914    -0.037    28.916     8.818
    34   6 C        2.920    -0.033    28.835     8.806
    35   6 C        2.923    -0.035    28.869     8.811
    36   6 C        2.913    -0.033    28.812     8.802
    37   6 C        3.056     0.005    27.858     8.656
    38   6 C        3.064    -0.015    28.328     8.728
    39   6 C        2.917    -0.062    29.537     8.912
    40   6 C        2.963     0.012    27.738     8.639
    41   6 C        3.759    -0.106    22.579     6.774
    42   6 C        2.925    -0.061    29.512     8.909
    43   6 C        2.907    -0.053    29.316     8.878
    44   6 C        3.056     0.034    27.193     8.552
    45   7 N        2.803    -0.009    21.430     6.875
    46   6 C        2.923     0.054    26.797     8.489
    47   6 C        2.920    -0.053    29.318     8.879
    48   6 C        2.924    -0.041    29.018     8.834
    49   6 C        2.972     0.007    27.864     8.659
    50   6 C        3.903     0.027    20.072     6.368
    51   6 C        3.761    -0.105    22.553     6.770
    52   6 C        3.761    -0.109    22.634     6.782
    53   6 C        3.761    -0.105    22.550     6.769
    54   6 C        2.933    -0.042    29.054     8.840
    55   6 C        2.988    -0.001    28.049     8.688
    56   6 C        3.947     0.020    20.177     6.383
    57   6 C        3.058     0.005    27.866     8.657
    58   6 C        2.913    -0.034    28.855     8.808
    59   6 C        2.923    -0.035    28.871     8.811
    60   6 C        2.920    -0.034    28.846     8.808
    61   6 C        2.914    -0.037    28.925     8.819
    62   6 C        3.033    -0.000    28.006     8.680
    63   6 C        3.032     0.001    27.977     8.676
    64   6 C        2.914    -0.037    28.916     8.818
    65   6 C        2.920    -0.034    28.835     8.806
    66   6 C        2.923    -0.035    28.869     8.811
    67   6 C        2.913    -0.033    28.812     8.802
    68   6 C        3.056     0.005    27.858     8.656
    69   1 H        0.925     0.042     2.416     2.431
    70   1 H        0.925     0.041     2.436     2.441
    71   1 H        0.924     0.047     2.352     2.398
    72   1 H        0.926     0.023     2.691     2.565
    73   1 H        0.926     0.030     2.586     2.515
    74   1 H        0.926     0.028     2.617     2.530
    75   1 H        0.926     0.046     2.365     2.405
    76   1 H        0.926     0.048     2.343     2.394
    77   1 H        0.925     0.038     2.473     2.459
    78   1 H        0.925     0.038     2.476     2.461
    79   1 H        0.925     0.040     2.444     2.445
    80   1 H        0.925     0.042     2.419     2.432
    81   1 H        0.925     0.036     2.503     2.474
    82   1 H        0.925     0.034     2.530     2.487
    83   1 H        0.925     0.042     2.425     2.435
    84   1 H        0.925     0.034     2.533     2.489
    85   1 H        0.925     0.036     2.498     2.472
    86   1 H        0.926     0.039     2.465     2.455
    87   1 H        0.926     0.022     2.702     2.570
    88   1 H        0.926     0.029     2.602     2.523
    89   1 H        0.926     0.030     2.584     2.514
    90   1 H        0.926     0.031     2.577     2.511
    91   1 H        0.926     0.030     2.581     2.512
    92   1 H        0.926     0.030     2.590     2.517
    93   1 H        0.926     0.029     2.607     2.525
    94   1 H        0.926     0.022     2.708     2.573
    95   1 H        0.926     0.028     2.617     2.530
    96   1 H        0.925     0.041     2.436     2.441
    97   1 H        0.924     0.047     2.352     2.398
    98   1 H        0.925     0.042     2.416     2.431
    99   1 H        0.926     0.023     2.691     2.565
   100   1 H        0.926     0.030     2.586     2.515
   101   1 H        0.926     0.046     2.365     2.405
   102   1 H        0.926     0.048     2.343     2.394
   103   1 H        0.925     0.042     2.425     2.435
   104   1 H        0.925     0.036     2.498     2.472
   105   1 H        0.925     0.034     2.533     2.489
   106   1 H        0.925     0.038     2.476     2.461
   107   1 H        0.925     0.038     2.473     2.459
   108   1 H        0.925     0.040     2.444     2.445
   109   1 H        0.925     0.042     2.419     2.432
   110   1 H        0.925     0.034     2.530     2.487
   111   1 H        0.925     0.036     2.503     2.474
   112   1 H        0.926     0.039     2.465     2.455
   113   1 H        0.926     0.022     2.702     2.570
   114   1 H        0.926     0.029     2.602     2.523
   115   1 H        0.926     0.030     2.584     2.514
   116   1 H        0.926     0.031     2.578     2.511
   117   1 H        0.926     0.030     2.581     2.512
   118   1 H        0.926     0.030     2.590     2.517
   119   1 H        0.926     0.029     2.607     2.525
   120   1 H        0.926     0.022     2.708     2.573

molecular dipole:
                 x           y           z       tot (Debye)
 q only:        0.001      -0.000      -0.686
   full:        0.001      -0.000      -0.650       1.653

 projected vibrational frequencies (cm⁻¹)
eigval :       -0.00    -0.00    -0.00    -0.00     0.00     0.00
eigval :       11.65    14.64    16.30    28.23    31.80    35.30
eigval :       36.48    36.99    39.23    52.99    59.28    63.58
eigval :       64.46    68.74    76.17    78.62    83.85    90.36
eigval :       98.08    98.28    99.32   110.59   115.87   128.18
eigval :      128.81   137.93   140.23   149.75   150.42   155.37
eigval :      160.00   172.91   176.28   180.33   184.21   202.21
eigval :      205.93   216.31   219.93   220.53   239.34   239.53
eigval :      250.27   259.51   262.04   263.74   269.43   285.99
eigval :      292.41   294.65   308.86   311.35   314.37   319.04
eigval :      320.71   333.72   335.87   345.93   346.16   361.78
eigval :      365.25   370.42   386.38   389.41   396.34   397.69
eigval :      401.16   410.71   411.98   412.98   416.73   425.72
eigval :      427.04   430.68   439.96   441.73   457.23   462.93
eigval :      467.85   469.33   475.44   481.43   483.63   496.26
eigval :      503.28   516.62   516.86   523.48   534.07   534.30
eigval :      555.89   556.10   560.64   574.59   576.86   587.67
eigval :      588.56   589.77   592.61   601.45   603.55   610.82
eigval :      617.73   626.56   631.11   639.97   650.06   661.13
eigval :      666.75   670.22   673.77   676.66   683.39   686.45
eigval :      693.73   702.68   712.06   723.25   723.33   731.04
eigval :      742.02   748.72   755.08   755.53   773.27   773.99
eigval :      779.81   780.08   780.85   781.92   813.39   817.41
eigval :      817.79   826.41   827.46   833.81   867.45   870.73
eigval :      871.05   872.33   873.29   873.73   874.96   877.60
eigval :      881.70   885.65   888.67   896.28   898.00   904.23
eigval :      904.38   904.58   904.98   911.85   913.05   919.65
eigval :      921.00   921.07   922.85   923.13   927.25   947.59
eigval :      955.34   958.74   959.37   960.78   962.06   962.68
eigval :      964.40   966.79   995.88   999.46   999.72  1018.51
eigval :     1022.72  1027.77  1029.68  1032.06  1034.15  1034.68
eigval :     1035.37  1039.20  1071.51  1071.56  1072.11  1074.81
eigval :     1077.72  1091.88  1098.26  1113.24  1127.33  1139.03
eigval :     1139.14  1146.90  1148.92  1152.41  1161.41  1163.12
eigval :     1168.36  1170.54  1171.58  1173.76  1178.62  1188.31
eigval :     1193.14  1196.42  1199.72  1200.03  1202.65  1215.28
eigval :     1221.66  1221.78  1223.47  1223.75  1228.61  1232.00
eigval :     1232.88  1233.56  1245.13  1250.15  1251.00  1257.20
eigval :     1257.34  1270.20  1275.52  1276.56  1278.26  1279.76
eigval :     1286.61  1290.72  1297.91  1315.07  1327.04  1327.20
eigval :     1328.06  1329.11  1338.98  1362.71  1363.75  1371.83
eigval :     1375.39  1381.17  1386.36  1389.41  1397.34  1398.03
eigval :     1400.76  1401.05  1401.54  1403.11  1405.99  1413.91
eigval :     1414.20  1414.93  1421.28  1422.57  1422.80  1426.37
eigval :     1427.77  1434.05  1444.53  1453.71  1457.59  1458.25
eigval :     1458.97  1459.27  1471.87  1477.73  1480.68  1481.94
eigval :     1485.42  1486.92  1487.64  1489.30  1490.71  1491.35
eigval :     1496.29  1497.46  1498.58  1500.35  1501.12  1504.91
eigval :     1509.80  1509.96  1515.77  1516.14  1530.84  1534.63
eigval :     1541.66  1542.94  1545.46  1548.88  1555.86  1567.05
eigval :     1567.23  1578.63  1580.74  1582.65  1584.58  1592.00
eigval :     1596.37  1596.60  2984.43  2984.50  3022.19  3022.34
eigval :     3022.48  3022.59  3025.58  3025.67  3026.51  3026.89
eigval :     3028.23  3028.29  3029.41  3029.58  3032.45  3032.48
eigval :     3034.62  3034.77  3038.03  3038.08  3045.86  3046.15
eigval :     3049.40  3049.57  3066.39  3066.58  3066.61  3066.73
eigval :     3068.66  3068.87  3069.40  3069.58  3076.42  3076.51
eigval :     3077.58  3077.67  3078.30  3078.52  3085.95  3086.04
eigval :     3086.20  3088.20  3100.19  3100.43  3107.87  3107.98
eigval :     3115.10  3115.12  3128.85  3128.97  3170.35  3170.65

   temp. (K)  partition function   enthalpy   heat capacity  entropy
                                   cal/mol     cal/K/mol   cal/K/mol   J/K/mol
 298.15  VIB  0.715E+25            34268.745    218.199    210.894
         ROT  0.725E+08              888.752      2.981     38.948
         INT  0.519E+33            35157.498    221.180    249.842
         TR   0.250E+29             1481.254      4.968     46.156
         TOT                       36638.7515   226.1482   295.9980  1238.4558

       T/K    H(0)-H(T)+PV         H(T)/Eh          T*S/Eh         G(T)/Eh
   ------------------------------------------------------------------------
    298.15    0.583876E-01    0.101620E+01    0.140638E+00    0.875559E+00
   ------------------------------------------------------------------------

         :::::::::::::::::::::::::::::::::::::::::::::::::::::
         ::                  THERMODYNAMIC                  ::
         :::::::::::::::::::::::::::::::::::::::::::::::::::::
         :: total free energy        -172.999785038588 Eh   ::
         ::.................................................::
         :: total energy             -173.875344398468 Eh   ::
         :: zero point energy           0.957810014206 Eh   ::
         :: G(RRHO) w/o ZPVE           -0.082250654326 Eh   ::
         :: G(RRHO) contrib.            0.875559359880 Eh   ::
         :::::::::::::::::::::::::::::::::::::::::::::::::::::

           -------------------------------------------------
          | TOTAL ENERGY             -173.875344398468 Eh   |
          | TOTAL ENTHALPY           -172.859146817277 Eh   |
          | TOTAL FREE ENERGY        -172.999785038588 Eh   |
          | GRADIENT NORM               0.000110622018 Eh/α |
          | HOMO-LUMO GAP               0.119520130232 eV   |
           -------------------------------------------------

 * finished run on 2025/09/08 at 17:06:47.078
