   * xtb version 6.7.1 (edcfbbe) compiled by 'albert@albert-system' on 2024-07-22

   ID    Z sym.   atoms
    1    6 C      1-13, 15-44, 46-68
    2    7 N      14, 45
    3    1 H      69-120

          program call               : xtb data2507/toluene/pSFIAc2/pSFIAc2.xyz --gfn 2 --gbsa toluene --ohess vtight --parallel 40 --molden --ceasefiles --namespace data2507/toluene/pSFIAc2/pSFIAc2_toluene_S0_preOpt
      * Solvation model:               GBSA
        Solvent                        toluene
        Solvent mass                       9.2140E+01 g/mol
          :  Hamiltonian                  GFN2-xTB          :
 * total energy  :  -173.9193586 Eh     change       -0.3893945E-08 Eh
 * total energy  :  -173.9417854 Eh     change       -0.2242683E-01 Eh
 * total energy  :  -173.9505156 Eh     change       -0.8730231E-02 Eh
 * total energy  :  -173.9540047 Eh     change       -0.3489047E-02 Eh
 * total energy  :  -173.9560397 Eh     change       -0.2034994E-02 Eh
 * total energy  :  -173.9569759 Eh     change       -0.9362088E-03 Eh
 * total energy  :  -173.9574378 Eh     change       -0.4618836E-03 Eh
 * total energy  :  -173.9577322 Eh     change       -0.2944109E-03 Eh
 * total energy  :  -173.9579633 Eh     change       -0.2310710E-03 Eh
 * total energy  :  -173.9581459 Eh     change       -0.1826315E-03 Eh
 * total energy  :  -173.9596113 Eh     change       -0.3827839E-06 Eh
 * total energy  :  -173.9596116 Eh     change       -0.3564952E-06 Eh
 * total energy  :  -173.9596119 Eh     change       -0.2600867E-06 Eh
 * total energy  :  -173.9596121 Eh     change       -0.2219828E-06 Eh
 * total energy  :  -173.9596123 Eh     change       -0.2275017E-06 Eh
 * total energy  :  -173.9596126 Eh     change       -0.2655060E-06 Eh
 * total energy  :  -173.9596130 Eh     change       -0.3583667E-06 Eh
 * total energy  :  -173.9596133 Eh     change       -0.3286800E-06 Eh
 * total energy  :  -173.9596133 Eh     change       -0.2620965E-08 Eh
   *** GEOMETRY OPTIMIZATION CONVERGED AFTER 122 ITERATIONS ***

 final structure:
================
120
 xtb: 6.7.1 (edcfbbe)
C           -2.11189742212168       -6.03547966537849       -1.35802194677094
C           -1.04170665247547       -5.03385489392249       -1.03747126914860
C            0.30026037328799       -5.40506206689337       -1.00992013680481
C            1.30115333521915       -4.49025345228255       -0.74219733450744
C            0.94654773751392       -3.17872215047208       -0.46093736488031
C           -0.41088298093854       -2.76987213672296       -0.51694555600431
C           -1.38618184853547       -3.71008982758731       -0.81403253350544
C           -0.43278221199227       -1.33699431146771       -0.33559695087953
C           -1.41736818358777       -0.34810063963728       -0.24758393613472
C           -0.93469254955481        0.95157844527275       -0.23599453795416
C            0.42741480023049        1.34003472797053       -0.33982437288345
C            1.41320763182543        0.35069073723944       -0.26832823086564
C            0.93070647575904       -0.94892220651095       -0.25221506217285
N            1.73926831627407       -2.07227425614137       -0.23110729060674
C            3.06359776413406       -1.95961149305233        0.16587766588206
C            3.79624692384355       -3.04701056570176        0.63878511079584
C            5.12020748199899       -2.91083128073896        0.99506545815996
C            5.76811300151933       -1.68215144863931        0.90785905593542
C            7.24231486507796       -1.57089976212978        1.26251005959184
C            7.78880897833557       -0.15221786398769        1.07612697729085
C            7.43711542080493       -1.97189929203617        2.73227094849337
C            8.04425627633342       -2.51565372754918        0.35487706264217
C            5.00471736191169       -0.59425770913400        0.51248140411643
C            3.66412587493677       -0.69923146961602        0.16478139339526
C            2.90469464943635        0.57343523237217       -0.21977709915905
C            3.33208575312342        1.66033260266333        0.74347683579564
C            2.97750941171220        1.82574654581859        2.06279833790068
C            3.55901675927150        2.86385742034606        2.78060191864273
C            4.48925013373517        3.70353414633288        2.18796852831625
C            4.85201934247795        3.54003111120549        0.85957172807283
C            4.26450645638604        2.51669975139058        0.13530746442704
C            4.39079667039610        2.13585609146525       -1.26711550637330
C            5.14192840735040        2.68148652051827       -2.29459626247034
C            5.01647933822461        2.14351158473893       -3.56635593769157
C            4.15592900207110        1.08376318200942       -3.80867319689961
C            3.41001017752073        0.52248657789023       -2.77955421713790
C            3.53216903002585        1.05275869748382       -1.51471493547038
C            0.40260512500708        2.77324822340845       -0.51846414333823
C            1.37297414607926        3.71345772400217       -0.83577585838002
C            1.02366107533163        5.03608103217465       -1.05458670875134
C            2.08059061145656        6.05422074791112       -1.36526292729429
C           -0.31846147690780        5.40745723739332       -0.99912216712090
C           -1.31373331547173        4.49343499162145       -0.71292567210984
C           -0.95351198282638        3.18150433245660       -0.43882425764353
N           -1.74274640856341        2.07467674958997       -0.19976312526395
C           -3.06242469833966        1.96083109782614        0.21243912749715
C           -3.78962814799787        3.04637780177158        0.69790454254745
C           -5.10904264313132        2.90854758133699        1.07020228522037
C           -5.75805133373870        1.68024036262512        0.98601654281955
C           -7.22697462892777        1.56666607473404        1.36120834762706
C           -7.39923168404652        1.95840764843858        2.83631691553944
C           -8.04289285193788        2.51678386412174        0.47190832344028
C           -7.77588538017137        0.14897871017346        1.17430473319958
C           -4.99961359649011        0.59408561035937        0.57666172698551
C           -3.66316623258957        0.70053172652408        0.21378797757796
C           -2.90826518941024       -0.57120296322429       -0.18119003127257
C           -3.32448128724041       -1.65912574486553        0.78600535376550
C           -2.95910245040864       -1.82290817866481        2.10259283111135
C           -3.53127934977259       -2.86281650913419        2.82533317500295
C           -4.46336351716528       -3.70590065737610        2.24050208150573
C           -4.83672331757340       -3.54425443863869        0.91471126890522
C           -4.25866595701762       -2.51902656876897        0.18548822958020
C           -4.39703585332263       -2.14000862109331       -1.21627712982483
C           -5.14968813475828       -2.69324712150705       -2.23851889755691
C           -5.03715266504112       -2.15463556434652       -3.51115765433252
C           -4.18726825703692       -1.08766661391340       -3.75949386149129
C           -3.43773140253083       -0.52090497602077       -2.73602416433943
C           -3.54699714898428       -1.05175099129185       -1.47024186964210
H           -2.50726366634833       -5.85665370160163       -2.35846455399362
H           -1.72131941414840       -7.04944351890773       -1.31888002630005
H           -2.93652637720676       -5.94806933002686       -0.65295002837507
H            0.57156292583074       -6.42858610740351       -1.22689956858734
H            2.33171272001149       -4.80025903985122       -0.80174722340258
H           -2.41630521654183       -3.42213475673359       -0.90325420130821
H            3.31579904204842       -4.00290549622219        0.75912301756349
H            5.64619721889996       -3.78412196943922        1.34941054309117
H            7.28576748244905        0.55161539901594        1.73571086919070
H            7.67311523691604        0.17912996045347        0.04629325098885
H            8.84987049104949       -0.13899415616831        1.31776154386815
H            8.48622616162940       -1.88698197225987        3.00797073776439
H            7.12012286470535       -2.99629162083995        2.90810038203762
H            6.85526182103282       -1.31858633012997        3.37975336173126
H            9.10613917749736       -2.44035410646888        0.57980326214909
H            7.89203463674973       -2.25054554853693       -0.68975005193489
H            7.74002951311864       -3.54966925614730        0.49194107171486
H            5.45770935810683        0.38104029212973        0.47285980344944
H            2.25940007178035        1.16600960770687        2.52881601982828
H            3.28553879454547        3.01529449396547        3.81483073763116
H            4.93498001739789        4.49858923643689        2.76849579396000
H            5.57337331843769        4.20034820206991        0.40101844752067
H            5.80970312971887        3.51063890565967       -2.11157239569797
H            5.59382179977957        2.55787351872496       -4.38041605653207
H            4.06675276056245        0.68606444019966       -4.80927811345597
H            2.74523471308886       -0.30804412518111       -2.97012710721698
H            2.40054862867944        3.42240032410650       -0.94606866893664
H            2.48643294570741        6.46396474047527       -0.43917473535825
H            2.89899685400813        5.60175637208979       -1.92052843246912
H            1.67001274612860        6.87635188871738       -1.94730470052169
H           -0.59273003157197        6.43102004145442       -1.21206714641144
H           -2.34539486413732        4.80248610512260       -0.75550346777358
H           -3.30827169542732        4.00207311609923        0.81590405566140
H           -5.63052232039367        3.78026088024857        1.43492498405619
H           -8.44302765822496        1.86622368933256        3.12924489219611
H           -6.80285781356625        1.30475691968687        3.47015099639540
H           -7.08482076295822        2.98356730614966        3.01236561017271
H           -7.73581750895098        3.54987053424292        0.60957201115572
H           -7.90795974423184        2.25727219027467       -0.57647441473849
H           -9.10101227596543        2.44085271755390        0.71376145679535
H           -8.83365948317539        0.13434182333854        1.42987242207418
H           -7.67380266227890       -0.17679807653605        0.14125579054476
H           -7.26420387662198       -0.55837238087544        1.82339815821330
H           -5.45277287089641       -0.38121059518085        0.53840830281373
H           -2.23979274412702       -1.16052553065812        2.56290705075302
H           -3.24917323582503       -3.01298646748024        3.85739230715119
H           -4.90181222276846       -4.50222987410811        2.82483692836255
H           -5.56091228419207       -4.20590617354463        0.46229131913253
H           -5.80772240948058       -3.52903119832654       -2.05106538717915
H           -5.61610015667003       -2.57424422380497       -4.32138453100458
H           -4.10843547401431       -0.68926488416386       -4.76071381922290
H           -2.77978660818722        0.31391101256945       -2.93170276249794

          :  Hamiltonian                  GFN2-xTB          :
         :: gradient norm              0.000037947831 Eh/a0 ::
         :: HOMO-LUMO gap              2.276255534148 eV    ::
         :: SCC energy              -177.151668016772 Eh    ::
         :: -> dispersion             -0.193829842270 Eh    ::
         :: -> Gsolv                  -0.061504908550 Eh    ::
         :: repulsion energy           3.192054723542 Eh    ::

    * Orbital Energies and Occupations

         #    Occupation            Energy/Eh            Energy/eV
      -------------------------------------------------------------
         1        2.0000           -0.6742011             -18.3459
       ...           ...                  ...                  ...
       151        2.0000           -0.3981058             -10.8330
       152        2.0000           -0.3972551             -10.8099
       153        2.0000           -0.3964599             -10.7882
       154        2.0000           -0.3955037             -10.7622
       155        2.0000           -0.3953911             -10.7591
       156        2.0000           -0.3926349             -10.6841
       157        2.0000           -0.3900143             -10.6128
       158        2.0000           -0.3897800             -10.6065
       159        2.0000           -0.3790646             -10.3149
       160        2.0000           -0.3786460             -10.3035
       161        2.0000           -0.3650391              -9.9332
       162        2.0000           -0.3606208              -9.8130
       163        2.0000           -0.3386830              -9.2160 (HOMO)
       164                         -0.2550321              -6.9398 (LUMO)
       165                         -0.2522417              -6.8638
       166                         -0.2519827              -6.8568
       167                         -0.2312636              -6.2930
       168                         -0.2283708              -6.2143
       169                         -0.2249295              -6.1206
       170                         -0.2246480              -6.1130
       171                         -0.2205682              -6.0020
       172                         -0.2201345              -5.9902
       173                         -0.2174412              -5.9169
       174                         -0.2155148              -5.8645
       ...                                ...                  ...
       324                          0.7482316              20.3604
      -------------------------------------------------------------
                  HL-Gap            0.0836508 Eh            2.2763 eV

     #   Z          covCN         q      C6AA      α(0)
     1   6 C        3.758    -0.107    22.591     6.776
     2   6 C        2.965     0.004    27.933     8.669
     3   6 C        2.927    -0.045    29.124     8.850
     4   6 C        2.910    -0.056    29.389     8.889
     5   6 C        3.059     0.044    26.960     8.515
     6   6 C        3.066    -0.017    28.374     8.735
     7   6 C        2.922    -0.051    29.278     8.873
     8   6 C        3.056    -0.028    28.650     8.778
     9   6 C        2.963    -0.016    28.404     8.742
    10   6 C        3.106     0.035    27.089     8.528
    11   6 C        3.056    -0.028    28.648     8.778
    12   6 C        2.963    -0.016    28.406     8.742
    13   6 C        3.106     0.035    27.088     8.528
    14   7 N        2.801    -0.043    22.072     6.978
    15   6 C        2.922     0.055    26.766     8.484
    16   6 C        2.921    -0.058    29.437     8.897
    17   6 C        2.928    -0.039    28.978     8.828
    18   6 C        2.971    -0.000    28.032     8.685
    19   6 C        3.902     0.025    20.092     6.371
    20   6 C        3.761    -0.106    22.565     6.772
    21   6 C        3.761    -0.105    22.555     6.770
    22   6 C        3.762    -0.105    22.558     6.771
    23   6 C        2.933    -0.049    29.218     8.865
    24   6 C        2.990    -0.007    28.195     8.710
    25   6 C        3.948     0.018    20.208     6.388
    26   6 C        3.057     0.005    27.848     8.654
    27   6 C        2.914    -0.032    28.798     8.800
    28   6 C        2.923    -0.032    28.803     8.801
    29   6 C        2.921    -0.033    28.825     8.804
    30   6 C        2.914    -0.035    28.865     8.810
    31   6 C        3.033     0.003    27.919     8.667
    32   6 C        3.034     0.002    27.957     8.673
    33   6 C        2.914    -0.036    28.885     8.813
    34   6 C        2.921    -0.034    28.842     8.807
    35   6 C        2.923    -0.032    28.806     8.802
    36   6 C        2.913    -0.034    28.841     8.806
    37   6 C        3.058     0.005    27.863     8.656
    38   6 C        3.066    -0.018    28.378     8.735
    39   6 C        2.921    -0.051    29.263     8.871
    40   6 C        2.965     0.004    27.931     8.669
    41   6 C        3.758    -0.107    22.590     6.776
    42   6 C        2.927    -0.045    29.126     8.851
    43   6 C        2.909    -0.056    29.386     8.889
    44   6 C        3.059     0.044    26.961     8.515
    45   7 N        2.801    -0.043    22.067     6.977
    46   6 C        2.922     0.055    26.767     8.484
    47   6 C        2.921    -0.058    29.435     8.897
    48   6 C        2.928    -0.039    28.977     8.828
    49   6 C        2.971    -0.000    28.031     8.684
    50   6 C        3.902     0.025    20.092     6.371
    51   6 C        3.761    -0.105    22.555     6.770
    52   6 C        3.761    -0.105    22.559     6.771
    53   6 C        3.761    -0.106    22.565     6.772
    54   6 C        2.933    -0.049    29.217     8.865
    55   6 C        2.990    -0.007    28.194     8.710
    56   6 C        3.948     0.018    20.209     6.388
    57   6 C        3.057     0.005    27.848     8.654
    58   6 C        2.914    -0.032    28.797     8.800
    59   6 C        2.923    -0.032    28.802     8.801
    60   6 C        2.921    -0.033    28.830     8.805
    61   6 C        2.914    -0.035    28.880     8.812
    62   6 C        3.033     0.003    27.917     8.667
    63   6 C        3.034     0.002    27.952     8.672
    64   6 C        2.914    -0.035    28.871     8.811
    65   6 C        2.921    -0.034    28.838     8.806
    66   6 C        2.923    -0.032    28.806     8.801
    67   6 C        2.913    -0.034    28.841     8.806
    68   6 C        3.058     0.005    27.863     8.656
    69   1 H        0.924     0.044     2.390     2.418
    70   1 H        0.925     0.041     2.435     2.440
    71   1 H        0.925     0.043     2.407     2.426
    72   1 H        0.926     0.029     2.601     2.522
    73   1 H        0.926     0.032     2.552     2.498
    74   1 H        0.926     0.036     2.500     2.473
    75   1 H        0.926     0.040     2.454     2.450
    76   1 H        0.926     0.034     2.525     2.485
    77   1 H        0.925     0.034     2.525     2.485
    78   1 H        0.925     0.035     2.522     2.483
    79   1 H        0.925     0.039     2.464     2.455
    80   1 H        0.925     0.040     2.452     2.449
    81   1 H        0.925     0.037     2.488     2.467
    82   1 H        0.925     0.033     2.551     2.498
    83   1 H        0.925     0.039     2.456     2.451
    84   1 H        0.925     0.033     2.551     2.498
    85   1 H        0.925     0.037     2.485     2.465
    86   1 H        0.926     0.041     2.438     2.442
    87   1 H        0.926     0.023     2.689     2.564
    88   1 H        0.926     0.030     2.583     2.513
    89   1 H        0.926     0.032     2.563     2.503
    90   1 H        0.926     0.033     2.538     2.491
    91   1 H        0.926     0.033     2.542     2.493
    92   1 H        0.926     0.032     2.561     2.502
    93   1 H        0.926     0.031     2.576     2.510
    94   1 H        0.926     0.024     2.674     2.557
    95   1 H        0.926     0.035     2.514     2.480
    96   1 H        0.924     0.046     2.377     2.411
    97   1 H        0.925     0.041     2.431     2.438
    98   1 H        0.925     0.042     2.425     2.435
    99   1 H        0.926     0.029     2.595     2.519
   100   1 H        0.926     0.033     2.550     2.497
   101   1 H        0.926     0.040     2.454     2.450
   102   1 H        0.926     0.034     2.524     2.484
   103   1 H        0.925     0.040     2.452     2.449
   104   1 H        0.925     0.032     2.552     2.498
   105   1 H        0.925     0.037     2.488     2.467
   106   1 H        0.925     0.037     2.485     2.465
   107   1 H        0.925     0.033     2.550     2.497
   108   1 H        0.925     0.039     2.456     2.451
   109   1 H        0.925     0.039     2.465     2.455
   110   1 H        0.925     0.035     2.521     2.483
   111   1 H        0.925     0.034     2.526     2.485
   112   1 H        0.926     0.041     2.439     2.442
   113   1 H        0.926     0.023     2.687     2.563
   114   1 H        0.926     0.030     2.581     2.512
   115   1 H        0.926     0.032     2.564     2.504
   116   1 H        0.926     0.033     2.549     2.497
   117   1 H        0.926     0.034     2.531     2.488
   118   1 H        0.926     0.032     2.559     2.502
   119   1 H        0.926     0.031     2.577     2.510
   120   1 H        0.926     0.024     2.675     2.558

molecular dipole:
                 x           y           z       tot (Debye)
 q only:       -0.014       0.016       0.223
   full:       -0.015       0.021       0.202       0.517

 projected vibrational frequencies (cm⁻¹)
eigval :       -0.00    -0.00    -0.00     0.00     0.00     0.00
eigval :       11.75    17.20    18.95    27.36    29.11    36.03
eigval :       37.45    37.94    41.16    54.57    59.73    63.00
eigval :       64.61    73.15    77.94    80.95    85.17    87.32
eigval :       91.94    92.77   102.58   113.19   116.60   129.31
eigval :      132.16   140.63   142.24   153.42   157.48   160.48
eigval :      166.71   171.48   189.88   193.31   193.66   207.56
eigval :      210.28   223.49   227.61   232.37   238.69   243.94
eigval :      244.59   252.66   259.10   259.96   264.97   290.11
eigval :      295.75   296.72   309.68   311.60   320.89   325.38
eigval :      326.67   340.34   347.55   353.14   355.86   366.23
eigval :      370.24   373.71   388.75   391.70   398.69   399.36
eigval :      407.31   413.83   413.92   417.14   427.39   429.18
eigval :      431.44   433.05   439.47   440.75   461.51   463.09
eigval :      467.99   469.23   478.02   484.90   485.48   498.72
eigval :      504.04   517.66   523.95   527.00   538.98   539.43
eigval :      556.78   562.48   563.76   580.25   581.64   589.41
eigval :      590.45   591.35   600.77   605.82   609.61   620.00
eigval :      630.10   633.50   637.35   648.27   654.53   674.19
eigval :      674.49   676.42   684.59   685.80   689.97   695.59
eigval :      708.03   710.21   724.16   729.13   729.41   733.57
eigval :      746.01   751.09   757.63   759.06   776.95   778.40
eigval :      785.50   785.66   803.41   804.07   817.18   826.94
eigval :      827.55   838.07   862.36   862.84   869.03   872.06
eigval :      875.24   876.27   876.99   880.48   881.78   886.68
eigval :      892.03   895.23   898.32   905.29   905.46   905.88
eigval :      907.17   911.08   911.65   918.83   920.15   925.89
eigval :      926.06   928.72   929.22   929.87   936.46   951.69
eigval :      959.03   960.29   960.65   963.57   964.24   965.32
eigval :      965.78   970.97  1001.83  1004.92  1005.22  1020.20
eigval :     1026.78  1033.94  1035.36  1035.67  1036.05  1036.29
eigval :     1036.66  1041.76  1073.70  1073.73  1076.82  1078.39
eigval :     1081.05  1095.32  1108.34  1118.44  1138.07  1141.32
eigval :     1141.45  1152.06  1154.37  1156.82  1164.53  1170.60
eigval :     1175.65  1175.82  1178.60  1180.01  1181.87  1194.68
eigval :     1200.52  1201.09  1204.21  1205.47  1206.51  1217.63
eigval :     1226.31  1226.44  1227.18  1229.41  1231.39  1233.34
eigval :     1242.24  1245.20  1259.77  1259.90  1260.45  1261.97
eigval :     1277.37  1279.92  1280.75  1284.96  1288.09  1292.63
eigval :     1299.39  1300.71  1325.23  1325.96  1326.70  1327.64
eigval :     1328.62  1333.45  1364.36  1364.81  1366.39  1370.15
eigval :     1379.84  1394.38  1395.64  1399.43  1399.76  1401.54
eigval :     1401.92  1403.32  1403.65  1410.81  1411.81  1425.82
eigval :     1426.17  1426.37  1426.56  1426.65  1429.49  1430.93
eigval :     1433.62  1460.13  1460.27  1467.73  1467.79  1471.83
eigval :     1473.07  1480.76  1482.63  1487.90  1488.18  1488.30
eigval :     1490.14  1492.55  1492.57  1493.81  1494.58  1500.67
eigval :     1500.94  1505.49  1506.52  1511.43  1511.51  1519.49
eigval :     1519.71  1526.39  1555.95  1562.61  1566.44  1580.86
eigval :     1582.41  1584.20  1584.28  1589.19  1595.74  1595.84
eigval :     1599.49  1600.77  1601.28  1601.63  1604.32  1604.38
eigval :     1610.68  1611.02  2988.02  2993.92  3019.17  3019.40
eigval :     3020.67  3020.85  3023.01  3023.15  3023.59  3025.29
eigval :     3025.31  3027.50  3027.56  3029.55  3029.61  3031.79
eigval :     3034.56  3034.86  3034.93  3039.34  3043.67  3044.03
eigval :     3047.20  3047.35  3067.65  3067.69  3068.24  3068.26
eigval :     3070.57  3070.82  3071.13  3071.42  3071.93  3071.99
eigval :     3077.95  3078.35  3079.32  3079.35  3086.31  3086.37
eigval :     3086.61  3086.64  3088.83  3088.88  3104.17  3104.41
eigval :     3128.33  3128.42  3136.20  3136.48  3179.81  3184.89

   temp. (K)  partition function   enthalpy   heat capacity  entropy
                                   cal/mol     cal/K/mol   cal/K/mol   J/K/mol
 298.15  VIB  0.290E+25            33928.316    216.464    208.451
         ROT  0.146E+09              888.752      2.981     40.336
         INT  0.422E+33            34817.069    219.445    248.787
         TR   0.250E+29             1481.254      4.968     46.156
         TOT                       36298.3226   224.4129   294.9433  1234.0428

       T/K    H(0)-H(T)+PV         H(T)/Eh          T*S/Eh         G(T)/Eh
   ------------------------------------------------------------------------
    298.15    0.578451E-01    0.102066E+01    0.140137E+00    0.880519E+00
   ------------------------------------------------------------------------

         :::::::::::::::::::::::::::::::::::::::::::::::::::::
         ::                  THERMODYNAMIC                  ::
         :::::::::::::::::::::::::::::::::::::::::::::::::::::
         :: total free energy        -173.079094334824 Eh   ::
         ::.................................................::
         :: total energy             -173.959613289594 Eh   ::
         :: zero point energy           0.962810983899 Eh   ::
         :: G(RRHO) w/o ZPVE           -0.082292029129 Eh   ::
         :: G(RRHO) contrib.            0.880518954770 Eh   ::
         :::::::::::::::::::::::::::::::::::::::::::::::::::::

           -------------------------------------------------
          | TOTAL ENERGY             -173.959613289594 Eh   |
          | TOTAL ENTHALPY           -172.938957246603 Eh   |
          | TOTAL FREE ENERGY        -173.079094334824 Eh   |
          | GRADIENT NORM               0.000037950948 Eh/α |
          | HOMO-LUMO GAP               2.276255164214 eV   |
           -------------------------------------------------

 * finished run on 2025/09/08 at 16:48:17.575
