   * xtb version 6.7.1 (edcfbbe) compiled by 'albert@albert-system' on 2024-07-22

   ID    Z sym.   atoms
    1    6 C      1-13, 15-44, 46-68
    2    7 N      14, 45
    3    1 H      69-120

          program call               : xtb data2507/toluene/pSFIAc2/pSFIAc2_toluene_S0_crest.xyz --gfn 2 --gbsa toluene --ohess vtight --parallel 40 --molden --ceasefiles --namespace data2507/toluene/pSFIAc2/pSFIAc2_toluene_S0_finalOpt
      * Solvation model:               GBSA
        Solvent                        toluene
        Solvent mass                       9.2140E+01 g/mol
          :  Hamiltonian                  GFN2-xTB          :
 * total energy  :  -173.9599042 Eh     change       -0.1078678E-07 Eh
 * total energy  :  -173.9599861 Eh     change       -0.8189332E-04 Eh
 * total energy  :  -173.9600400 Eh     change       -0.5384031E-04 Eh
 * total energy  :  -173.9600675 Eh     change       -0.2753575E-04 Eh
 * total energy  :  -173.9600940 Eh     change       -0.2650153E-04 Eh
 * total energy  :  -173.9601155 Eh     change       -0.2153591E-04 Eh
 * total energy  :  -173.9601267 Eh     change       -0.1115122E-04 Eh
 * total energy  :  -173.9601319 Eh     change       -0.5205281E-05 Eh
 * total energy  :  -173.9601366 Eh     change       -0.4723422E-05 Eh
 * total energy  :  -173.9601412 Eh     change       -0.4569682E-05 Eh
 * total energy  :  -173.9602025 Eh     change       -0.2121472E-06 Eh
 * total energy  :  -173.9602028 Eh     change       -0.2330468E-06 Eh
 * total energy  :  -173.9602030 Eh     change       -0.2286821E-06 Eh
 * total energy  :  -173.9602032 Eh     change       -0.2300672E-06 Eh
 * total energy  :  -173.9602034 Eh     change       -0.2234925E-06 Eh
 * total energy  :  -173.9602037 Eh     change       -0.2142135E-06 Eh
 * total energy  :  -173.9602039 Eh     change       -0.2040148E-06 Eh
 * total energy  :  -173.9602040 Eh     change       -0.1862731E-06 Eh
 * total energy  :  -173.9602040 Eh     change       -0.2501253E-08 Eh
   *** GEOMETRY OPTIMIZATION CONVERGED AFTER 44 ITERATIONS ***

 final structure:
================
120
 xtb: 6.7.1 (edcfbbe)
C           -2.57472605495920       -5.85130507534879        1.32290165121901
C           -1.43919809732521       -4.92543918315739        1.00127931131377
C           -0.13289131252187       -5.40815477086981        0.94333059977409
C            0.93464933355468       -4.58214714286587        0.65041648599480
C            0.68469229791540       -3.24589180884289        0.37103274729221
C           -0.63294551685056       -2.72642746340215        0.44783627152417
C           -1.67758967268706       -3.57980800580071        0.77498582686378
C           -0.53919061547989       -1.29736523978290        0.26001271905010
C           -1.43904312311619       -0.23070850435264        0.17224383347029
C           -0.85115530777870        1.02466003528571        0.15757521135269
C            0.53855766937505        1.29939221862642        0.25597753197594
C            1.43839280956157        0.23248028473906        0.17133672986318
C            0.85051724117619       -1.02292413028134        0.16060676618393
N            1.56352709501259       -2.20900842970527        0.12940182356660
C            2.88312654046180       -2.20567757258181       -0.29899581893591
C            3.51330380016584       -3.34670975127631       -0.78684425687292
C            4.83489288909178       -3.32120233472756       -1.18695151828049
C            5.57589051661299       -2.14878467633596       -1.12914595851377
C            7.04031476849265       -2.06022058466759       -1.52795026652280
C            7.62181675939118       -3.42039582656877       -1.92550875188537
C            7.17534260135071       -1.10944928003665       -2.72671311058740
C            7.85333647304090       -1.51996268790659       -0.34223581512691
C            4.91217696021892       -1.00179605940872       -0.70849455102474
C            3.58338291481066       -0.99543670228792       -0.31598777244929
C            2.94223977166700        0.33034350163168        0.10096999577164
C            3.62644582481674        0.72904583864562        1.39461179674716
C            3.48122194481235        0.18185495162740        2.64977915461525
C            4.28389620907424        0.65991449560019        3.67812168415308
C            5.22127977587523        1.65432849280549        3.44412147322729
C            5.37025299234790        2.20893137954118        2.18217105815064
C            4.56434241386857        1.74610593838149        1.15545708168151
C            4.44870124068129        2.16540973914629       -0.23686568540798
C            5.10344316013234        3.15570483650814       -0.94950165375912
C            4.73253468553936        3.37865806675276       -2.26700165595337
C            3.73067058385987        2.62746463373749       -2.86160811584328
C            3.08268972764383        1.62021277027791       -2.15691748661753
C            3.44306310885587        1.39822706175366       -0.84748270583114
C            0.63240314207636        2.72904900625769        0.43917659601360
C            1.67713479289411        3.58341397191303        0.76347843671718
C            1.43885336057447        4.92979416522352        0.98536277789373
C            2.57441724501505        5.85667830140941        1.30387771211031
C            0.13256060856225        5.41238261255742        0.92597223964549
C           -0.93506858191450        4.58547943753917        0.63593958525470
C           -0.68522632427067        3.24829940817433        0.36089201211732
N           -1.56411996855810        2.21066564826355        0.12272934954161
C           -2.88383245388385        2.20603422342676       -0.30528588482117
C           -3.51402466105093        3.34552544276992       -0.79669788822534
C           -4.83571051971270        3.31883933588994       -1.19638713067108
C           -5.57681458055620        2.14669573692016       -1.13451215978229
C           -7.04131654603141        2.05699348698555       -1.53276971227539
C           -7.85429529545433        1.52141420821193       -0.34490664297918
C           -7.62252456944511        3.41581289288202       -1.93537199677486
C           -7.17676158973212        1.10178328402864       -2.72795488993619
C           -4.91312531339846        1.00103655172600       -0.71019845052700
C           -3.58419999686817        0.99580561518596       -0.31809643083961
C           -2.94292519029555       -0.32874089431927        0.10260372799661
C           -3.62652666706567       -0.72376196774789        1.39768741202862
C           -3.48061536234253       -0.17308229865392        2.65124880835750
C           -4.28257036353695       -0.64843393169492        3.68140534041177
C           -5.21994211413126       -1.64363538515961        3.45072796012263
C           -5.36966798402625       -2.20168127934537        2.19038588922474
C           -4.56444839649284       -1.74158205391132        1.16190419098118
C           -4.44955472436457       -2.16474405670138       -0.22931174969262
C           -5.10484745256466       -3.15686943968310       -0.93888463819059
C           -4.73479200402608       -3.38338623329634       -2.25601582217374
C           -3.73315718507956       -2.63395416065251       -2.85323173405919
C           -3.08460681309971       -1.62490726254894       -2.15163653937917
C           -3.44418554204690       -1.39932995719926       -0.84258682806395
H           -2.23920951574778       -6.67580733148586        1.94828267279020
H           -3.37166440932773       -5.31904993983752        1.83686673294029
H           -2.98562111085361       -6.26990386769452        0.40296598408033
H            0.05508577293675       -6.45015708176406        1.16050925242896
H            1.93707791800553       -4.97608371270996        0.69257040479667
H           -2.67646467690198       -3.20202169957317        0.88767050980793
H            2.95668288057352       -4.26279484924993       -0.88647310232446
H            5.27032636947461       -4.23727258856219       -1.55054117129963
H            7.11269499268021       -3.82408012156917       -2.79769944305096
H            7.54588168782514       -4.13163947814738       -1.10607191088611
H            8.67461867469631       -3.30546881512442       -2.17572268166672
H            8.21459698654393       -1.05069199013758       -3.04360948015821
H            6.83727366827028       -0.10744426955326       -2.47658894334442
H            6.57827050413489       -1.47041081437068       -3.56202409747938
H            8.90872894757683       -1.47286930255480       -0.60274747913139
H            7.73885769499369       -2.17240055757245        0.52138983136222
H            7.52812196339377       -0.52253348898419       -0.05927994204030
H            5.45070842310125       -0.06789881627690       -0.68944570031287
H            2.75618623218386       -0.59835348364390        2.83342105800623
H            4.17882845614860        0.24799171416075        4.67137547698823
H            5.84080212416550        2.00444226333873        4.25727703573475
H            6.09802404172472        2.98773945247643        2.00635080437336
H            5.88183420953722        3.74710036271920       -0.48994438787391
H            5.22929412594918        4.15054898702133       -2.83716508551251
H            3.45337304771918        2.82363684539579       -3.88718922497895
H            2.30894526684259        1.02812277660123       -2.62459362183341
H            2.67597778831639        3.20591463974498        0.87739413585956
H            3.37157700580215        5.32602019916673        1.81913352511003
H            2.98496251884992        6.27263362369820        0.38259693860671
H            2.23903421263020        6.68295744629960        1.92696769867521
H           -0.05533199284349        6.45510187681446        1.13975131472460
H           -1.93745638080154        4.97963087570183        0.67697622408403
H           -2.95731698121292        4.26120401056761       -0.89953218744975
H           -5.27110902046271        4.23374255626345       -1.56294253303253
H           -8.90966022646602        1.47302249212528       -0.60529020186480
H           -7.52884833024615        0.52523994117315       -0.05780591680662
H           -7.74001713283498        2.17745115529959        0.51601290315961
H           -7.54647581457772        4.13009227235879       -1.11858834126478
H           -7.11327915508494        3.81614631940304       -2.80903511478289
H           -8.67533997189467        3.30017212828408       -2.18519211690678
H           -8.21606148525280        1.04220926190731       -3.04454624376516
H           -6.57963871080987        1.45940773136578       -3.56466759717537
H           -6.83903866805787        0.10059829375185       -2.47412214480062
H           -5.45177567430489        0.06727766228096       -0.68788554902648
H           -2.75556004123435        0.60771380153098        2.83229886892620
H           -4.17691065948417       -0.23380371023310        4.67346975175659
H           -5.83886881146587       -1.99164742207544        4.26523752764434
H           -6.09743321945364       -2.98107900592016        2.01716704516529
H           -5.88303666016308       -3.74691647415350       -0.47725771652361
H           -5.23206415827978       -4.15668949880152       -2.82381371970583
H           -3.45655039504903       -2.83287770711982       -3.87847233094580
H           -2.31109113433192       -1.03414986174352       -2.62136757262507

          :  Hamiltonian                  GFN2-xTB          :
         :: gradient norm              0.000029923450 Eh/a0 ::
         :: HOMO-LUMO gap              2.277873778859 eV    ::
         :: SCC energy              -177.152229486621 Eh    ::
         :: -> dispersion             -0.194284791583 Eh    ::
         :: -> Gsolv                  -0.061393839319 Eh    ::
         :: repulsion energy           3.192025439552 Eh    ::

    * Orbital Energies and Occupations

         #    Occupation            Energy/Eh            Energy/eV
      -------------------------------------------------------------
         1        2.0000           -0.6743405             -18.3497
       ...           ...                  ...                  ...
       151        2.0000           -0.3985576             -10.8453
       152        2.0000           -0.3977479             -10.8233
       153        2.0000           -0.3964852             -10.7889
       154        2.0000           -0.3948858             -10.7454
       155        2.0000           -0.3948331             -10.7440
       156        2.0000           -0.3926935             -10.6857
       157        2.0000           -0.3903217             -10.6212
       158        2.0000           -0.3902693             -10.6198
       159        2.0000           -0.3791484             -10.3172
       160        2.0000           -0.3788165             -10.3081
       161        2.0000           -0.3650908              -9.9346
       162        2.0000           -0.3610040              -9.8234
       163        2.0000           -0.3389926              -9.2245 (HOMO)
       164                         -0.2552823              -6.9466 (LUMO)
       165                         -0.2524527              -6.8696
       166                         -0.2522042              -6.8628
       167                         -0.2309058              -6.2833
       168                         -0.2281043              -6.2070
       169                         -0.2251224              -6.1259
       170                         -0.2250216              -6.1231
       171                         -0.2214096              -6.0249
       172                         -0.2208514              -6.0097
       173                         -0.2173806              -5.9152
       174                         -0.2153134              -5.8590
       ...                                ...                  ...
       324                          0.7476899              20.3457
      -------------------------------------------------------------
                  HL-Gap            0.0837103 Eh            2.2779 eV

     #   Z          covCN         q      C6AA      α(0)
     1   6 C        3.758    -0.107    22.588     6.776
     2   6 C        2.965     0.004    27.930     8.669
     3   6 C        2.927    -0.045    29.126     8.850
     4   6 C        2.909    -0.056    29.382     8.888
     5   6 C        3.059     0.044    26.960     8.515
     6   6 C        3.066    -0.017    28.377     8.735
     7   6 C        2.921    -0.051    29.256     8.870
     8   6 C        3.056    -0.028    28.647     8.777
     9   6 C        2.963    -0.016    28.407     8.742
    10   6 C        3.107     0.035    27.084     8.527
    11   6 C        3.056    -0.028    28.647     8.777
    12   6 C        2.963    -0.016    28.407     8.742
    13   6 C        3.107     0.035    27.084     8.527
    14   7 N        2.800    -0.043    22.075     6.978
    15   6 C        2.922     0.055    26.765     8.484
    16   6 C        2.922    -0.058    29.450     8.899
    17   6 C        2.926    -0.043    29.079     8.843
    18   6 C        2.972    -0.000    28.031     8.684
    19   6 C        3.903     0.025    20.090     6.371
    20   6 C        3.761    -0.108    22.606     6.778
    21   6 C        3.761    -0.104    22.531     6.767
    22   6 C        3.761    -0.104    22.535     6.767
    23   6 C        2.935    -0.044    29.100     8.847
    24   6 C        2.989    -0.007    28.185     8.709
    25   6 C        3.948     0.018    20.204     6.387
    26   6 C        3.058     0.005    27.863     8.656
    27   6 C        2.913    -0.034    28.838     8.806
    28   6 C        2.923    -0.032    28.800     8.801
    29   6 C        2.921    -0.034    28.836     8.806
    30   6 C        2.914    -0.036    28.884     8.813
    31   6 C        3.034     0.001    27.970     8.675
    32   6 C        3.033     0.003    27.935     8.669
    33   6 C        2.914    -0.035    28.876     8.812
    34   6 C        2.921    -0.033    28.823     8.804
    35   6 C        2.923    -0.032    28.796     8.800
    36   6 C        2.914    -0.032    28.791     8.799
    37   6 C        3.057     0.005    27.849     8.654
    38   6 C        3.066    -0.017    28.377     8.735
    39   6 C        2.921    -0.051    29.256     8.870
    40   6 C        2.965     0.004    27.929     8.669
    41   6 C        3.758    -0.107    22.589     6.776
    42   6 C        2.927    -0.045    29.126     8.851
    43   6 C        2.909    -0.056    29.382     8.888
    44   6 C        3.059     0.044    26.960     8.515
    45   7 N        2.800    -0.043    22.074     6.978
    46   6 C        2.922     0.055    26.765     8.484
    47   6 C        2.922    -0.058    29.450     8.899
    48   6 C        2.926    -0.043    29.079     8.843
    49   6 C        2.972    -0.000    28.031     8.684
    50   6 C        3.903     0.025    20.090     6.371
    51   6 C        3.761    -0.104    22.535     6.767
    52   6 C        3.761    -0.108    22.606     6.778
    53   6 C        3.761    -0.104    22.531     6.767
    54   6 C        2.935    -0.044    29.100     8.847
    55   6 C        2.989    -0.007    28.185     8.709
    56   6 C        3.948     0.018    20.204     6.387
    57   6 C        3.058     0.005    27.863     8.656
    58   6 C        2.913    -0.034    28.838     8.806
    59   6 C        2.923    -0.032    28.800     8.801
    60   6 C        2.921    -0.034    28.836     8.806
    61   6 C        2.914    -0.036    28.884     8.813
    62   6 C        3.034     0.001    27.970     8.675
    63   6 C        3.033     0.003    27.935     8.669
    64   6 C        2.914    -0.035    28.876     8.812
    65   6 C        2.921    -0.033    28.823     8.804
    66   6 C        2.923    -0.032    28.796     8.800
    67   6 C        2.914    -0.032    28.791     8.799
    68   6 C        3.057     0.005    27.849     8.654
    69   1 H        0.925     0.042     2.421     2.433
    70   1 H        0.925     0.041     2.435     2.440
    71   1 H        0.924     0.046     2.376     2.411
    72   1 H        0.926     0.030     2.591     2.517
    73   1 H        0.926     0.033     2.548     2.496
    74   1 H        0.926     0.035     2.522     2.483
    75   1 H        0.926     0.040     2.453     2.449
    76   1 H        0.926     0.041     2.430     2.438
    77   1 H        0.925     0.037     2.494     2.470
    78   1 H        0.925     0.037     2.495     2.470
    79   1 H        0.925     0.038     2.470     2.458
    80   1 H        0.925     0.040     2.450     2.448
    81   1 H        0.925     0.034     2.524     2.484
    82   1 H        0.925     0.033     2.550     2.497
    83   1 H        0.925     0.040     2.455     2.450
    84   1 H        0.925     0.032     2.552     2.498
    85   1 H        0.925     0.035     2.518     2.482
    86   1 H        0.926     0.033     2.542     2.493
    87   1 H        0.926     0.024     2.671     2.556
    88   1 H        0.926     0.031     2.571     2.508
    89   1 H        0.926     0.032     2.556     2.500
    90   1 H        0.926     0.033     2.549     2.496
    91   1 H        0.926     0.033     2.549     2.497
    92   1 H        0.926     0.032     2.561     2.503
    93   1 H        0.926     0.031     2.576     2.510
    94   1 H        0.926     0.023     2.685     2.562
    95   1 H        0.926     0.035     2.522     2.483
    96   1 H        0.925     0.041     2.435     2.440
    97   1 H        0.924     0.046     2.376     2.411
    98   1 H        0.925     0.042     2.421     2.433
    99   1 H        0.926     0.030     2.591     2.517
   100   1 H        0.926     0.033     2.548     2.496
   101   1 H        0.926     0.040     2.453     2.449
   102   1 H        0.926     0.041     2.430     2.438
   103   1 H        0.925     0.040     2.455     2.450
   104   1 H        0.925     0.035     2.518     2.482
   105   1 H        0.925     0.032     2.552     2.498
   106   1 H        0.925     0.037     2.495     2.470
   107   1 H        0.925     0.037     2.494     2.470
   108   1 H        0.925     0.038     2.470     2.458
   109   1 H        0.925     0.040     2.450     2.448
   110   1 H        0.925     0.033     2.550     2.497
   111   1 H        0.925     0.034     2.524     2.484
   112   1 H        0.926     0.033     2.542     2.493
   113   1 H        0.926     0.024     2.671     2.556
   114   1 H        0.926     0.031     2.571     2.508
   115   1 H        0.926     0.032     2.556     2.500
   116   1 H        0.926     0.033     2.549     2.496
   117   1 H        0.926     0.033     2.549     2.497
   118   1 H        0.926     0.032     2.561     2.503
   119   1 H        0.926     0.031     2.576     2.510
   120   1 H        0.926     0.023     2.685     2.562

molecular dipole:
                 x           y           z       tot (Debye)
 q only:       -0.000      -0.000      -0.265
   full:       -0.000      -0.000      -0.247       0.627

 projected vibrational frequencies (cm⁻¹)
eigval :       -0.00    -0.00     0.00     0.00     0.00     0.00
eigval :       11.21    14.77    15.67    27.61    30.00    36.26
eigval :       36.79    37.88    40.58    54.26    60.63    63.16
eigval :       64.41    73.87    78.05    80.48    84.80    92.46
eigval :       99.90   104.67   105.57   111.45   115.83   129.40
eigval :      130.39   140.38   141.69   151.72   152.04   155.49
eigval :      160.75   174.26   176.06   178.88   184.85   205.53
eigval :      206.12   216.82   218.26   223.23   241.94   246.79
eigval :      253.33   261.07   262.82   265.12   269.34   290.26
eigval :      296.88   297.09   311.69   312.05   315.14   320.16
eigval :      320.80   337.18   346.46   347.66   354.00   362.05
eigval :      367.86   373.05   388.71   392.36   399.85   400.05
eigval :      408.31   413.59   413.85   417.77   427.21   428.54
eigval :      431.85   433.54   440.90   441.36   461.57   462.58
eigval :      468.99   470.45   476.29   483.15   484.78   498.72
eigval :      503.78   517.42   524.15   526.49   537.72   537.97
eigval :      557.28   561.45   564.80   579.53   580.96   589.71
eigval :      590.33   591.16   599.94   605.19   609.35   619.58
eigval :      630.05   632.93   637.67   648.01   654.64   673.43
eigval :      673.69   675.97   684.53   685.93   690.09   695.54
eigval :      708.56   710.22   724.17   728.88   729.26   733.71
eigval :      746.06   751.02   757.48   759.03   777.04   778.09
eigval :      784.88   784.97   803.87   804.18   817.20   823.23
eigval :      824.08   837.56   861.57   861.98   869.37   875.08
eigval :      875.59   878.60   879.30   882.00   885.24   888.42
eigval :      892.27   895.78   898.20   905.91   906.12   907.87
eigval :      908.13   909.09   909.32   915.62   917.43   924.20
eigval :      924.25   927.79   927.89   929.22   936.02   950.87
eigval :      958.07   958.82   958.87   960.25   961.26   962.62
eigval :      963.36   970.85  1002.71  1005.14  1005.43  1020.88
eigval :     1026.54  1032.75  1033.95  1034.92  1035.18  1036.70
eigval :     1037.65  1040.52  1072.83  1072.84  1076.63  1077.88
eigval :     1080.57  1096.04  1108.32  1118.73  1137.94  1140.77
eigval :     1140.87  1153.40  1156.71  1157.05  1167.62  1171.29
eigval :     1174.66  1174.76  1177.44  1179.15  1181.33  1194.41
eigval :     1201.90  1203.23  1205.97  1207.04  1207.99  1219.43
eigval :     1225.41  1225.48  1227.92  1229.20  1233.41  1235.36
eigval :     1243.19  1245.62  1257.55  1258.33  1260.03  1260.17
eigval :     1277.18  1279.79  1280.50  1284.05  1287.40  1292.63
eigval :     1301.15  1302.22  1319.95  1321.36  1326.43  1326.46
eigval :     1329.99  1335.02  1364.04  1364.74  1365.72  1368.66
eigval :     1379.57  1393.54  1395.21  1398.13  1398.15  1401.67
eigval :     1401.74  1404.53  1404.67  1410.76  1411.70  1425.88
eigval :     1425.93  1426.08  1426.36  1426.98  1429.51  1431.30
eigval :     1434.45  1460.14  1460.20  1467.63  1467.67  1471.97
eigval :     1472.20  1482.82  1482.88  1487.55  1487.85  1487.86
eigval :     1490.36  1491.41  1491.69  1494.82  1495.92  1500.23
eigval :     1500.31  1504.22  1504.86  1510.11  1510.24  1516.94
eigval :     1517.02  1527.32  1556.07  1564.44  1567.22  1580.26
eigval :     1581.35  1584.10  1584.10  1589.06  1595.63  1595.74
eigval :     1598.44  1600.00  1600.84  1601.13  1604.54  1604.58
eigval :     1610.78  1610.79  2986.95  2987.02  3020.35  3020.36
eigval :     3020.73  3020.78  3023.89  3023.95  3025.35  3025.45
eigval :     3027.69  3027.73  3031.06  3031.20  3031.40  3031.41
eigval :     3035.60  3035.73  3036.55  3036.59  3044.43  3044.86
eigval :     3048.26  3048.49  3067.77  3067.81  3068.38  3068.41
eigval :     3070.79  3070.83  3071.09  3071.15  3071.97  3072.05
eigval :     3077.59  3077.65  3078.80  3078.86  3086.83  3086.86
eigval :     3088.97  3089.03  3104.40  3104.50  3105.80  3105.95
eigval :     3111.94  3111.98  3130.02  3130.11  3176.45  3176.55

   temp. (K)  partition function   enthalpy   heat capacity  entropy
                                   cal/mol     cal/K/mol   cal/K/mol   J/K/mol
 298.15  VIB  0.428E+25            33986.094    216.654    209.078
         ROT  0.725E+08              888.752      2.981     38.948
         INT  0.310E+33            34874.846    219.635    248.026
         TR   0.250E+29             1481.254      4.968     46.156
         TOT                       36356.1002   224.6032   294.1821  1230.8580

       T/K    H(0)-H(T)+PV         H(T)/Eh          T*S/Eh         G(T)/Eh
   ------------------------------------------------------------------------
    298.15    0.579371E-01    0.102048E+01    0.139775E+00    0.880709E+00
   ------------------------------------------------------------------------

         :::::::::::::::::::::::::::::::::::::::::::::::::::::
         ::                  THERMODYNAMIC                  ::
         :::::::::::::::::::::::::::::::::::::::::::::::::::::
         :: total free energy        -173.079495470407 Eh   ::
         ::.................................................::
         :: total energy             -173.960204043117 Eh   ::
         :: zero point energy           0.962546862694 Eh   ::
         :: G(RRHO) w/o ZPVE           -0.081838289984 Eh   ::
         :: G(RRHO) contrib.            0.880708572710 Eh   ::
         :::::::::::::::::::::::::::::::::::::::::::::::::::::

           -------------------------------------------------
          | TOTAL ENERGY             -173.960204043117 Eh   |
          | TOTAL ENTHALPY           -172.939720046899 Eh   |
          | TOTAL FREE ENERGY        -173.079495470407 Eh   |
          | GRADIENT NORM               0.000029922055 Eh/α |
          | HOMO-LUMO GAP               2.277873421732 eV   |
           -------------------------------------------------

 * finished run on 2025/09/08 at 17:06:27.826
