   * xtb version 6.7.1 (edcfbbe) compiled by 'albert@albert-system' on 2024-07-22

   ID    Z sym.   atoms
    1    6 C      1-13, 15-44, 46-68
    2    7 N      14, 45
    3    1 H      69-120

          program call               : xtb data2507/toluene/pSFIAc2/pSFIAc2_toluene_T1_crest.xyz --gfn 2 --uhf 2 --gbsa toluene --ohess vtight --parallel 40 --molden --ceasefiles --namespace data2507/toluene/pSFIAc2/pSFIAc2_toluene_T1_finalOpt
      * Solvation model:               GBSA
        Solvent                        toluene
        Solvent mass                       9.2140E+01 g/mol
          :  Hamiltonian                  GFN2-xTB          :
 * total energy  :  -173.8749685 Eh     change       -0.1952841E-07 Eh
 * total energy  :  -173.8750571 Eh     change       -0.8861231E-04 Eh
 * total energy  :  -173.8751078 Eh     change       -0.5068258E-04 Eh
 * total energy  :  -173.8751306 Eh     change       -0.2278976E-04 Eh
 * total energy  :  -173.8751530 Eh     change       -0.2245819E-04 Eh
 * total energy  :  -173.8751736 Eh     change       -0.2051923E-04 Eh
 * total energy  :  -173.8751862 Eh     change       -0.1263126E-04 Eh
 * total energy  :  -173.8751939 Eh     change       -0.7688264E-05 Eh
 * total energy  :  -173.8752021 Eh     change       -0.8189386E-05 Eh
 * total energy  :  -173.8752107 Eh     change       -0.8659317E-05 Eh
 * total energy  :  -173.8753381 Eh     change       -0.2774734E-06 Eh
 * total energy  :  -173.8753384 Eh     change       -0.2959015E-06 Eh
 * total energy  :  -173.8753387 Eh     change       -0.3101105E-06 Eh
 * total energy  :  -173.8753390 Eh     change       -0.3582796E-06 Eh
 * total energy  :  -173.8753394 Eh     change       -0.3245868E-06 Eh
 * total energy  :  -173.8753397 Eh     change       -0.2999183E-06 Eh
 * total energy  :  -173.8753400 Eh     change       -0.2935600E-06 Eh
 * total energy  :  -173.8753403 Eh     change       -0.3053235E-06 Eh
 * total energy  :  -173.8753403 Eh     change       -0.5326172E-08 Eh
   *** GEOMETRY OPTIMIZATION CONVERGED AFTER 44 ITERATIONS ***

 final structure:
================
120
 xtb: 6.7.1 (edcfbbe)
C           -2.51580574533846       -5.88583489700585        1.37617608726435
C           -1.39547011019362       -4.94569979694104        1.04855170495777
C           -0.08333257322930       -5.42442260963635        0.97860540018241
C            0.97463367489531       -4.58021800246929        0.67358973884568
C            0.70433875914223       -3.25275573471980        0.39737522646755
C           -0.62383502535915       -2.72681623318158        0.49516165566319
C           -1.65814005017246       -3.60459462733210        0.82950561314823
C           -0.53692007530168       -1.31854975896007        0.31130245278461
C           -1.44529289154681       -0.23120022971678        0.20208744459411
C           -0.85455271319624        1.02268289294777        0.19302559158215
C            0.53447663835157        1.31792051509081        0.31434310847678
C            1.44288061427947        0.23081684194161        0.20285306250704
C            0.85210589655970       -1.02303115754663        0.19080236443711
N            1.56510950063478       -2.20321307188929        0.12922085800273
C            2.87281497879748       -2.19802830638076       -0.30852063675110
C            3.50059073833347       -3.34060396941233       -0.80994430134013
C            4.81545176349750       -3.31026265384209       -1.22123366795013
C            5.55893690655843       -2.13487640211963       -1.16140484096965
C            7.01870876848754       -2.04602702992802       -1.57158270684465
C            7.59545011019360       -3.40331044901386       -1.98538923407031
C            7.14486077254385       -1.08426024545632       -2.76294677537153
C            7.84064101016526       -1.51617120382539       -0.38690161770441
C            4.89952295444766       -0.98794170212464       -0.73098884587621
C            3.57481204243775       -0.98246950538953       -0.32830085132055
C            2.93641154773888        0.33280866948580        0.10231899286971
C            3.63655046114230        0.73156771360037        1.39338317753731
C            3.51094369117824        0.17186479992760        2.64337154421550
C            4.31790215996188        0.65265628575617        3.66896284121408
C            5.23640512374008        1.66510515734154        3.43320615410426
C            5.36335570617506        2.23343161745110        2.17609795756763
C            4.55520929899020        1.76648686266913        1.14999116427741
C            4.41937234006352        2.19312663198989       -0.23393041881866
C            5.05449704529059        3.19698673002372       -0.94959196296641
C            4.66683546321788        3.42347370681475       -2.26052626237257
C            3.66836806815193        2.66341672505686       -2.85113123671599
C            3.04149903717179        1.64153648322858       -2.14582669956184
C            3.41809324478797        1.41701864467659       -0.84275736831197
C            0.62133965883612        2.72574364076285        0.50153540733369
C            1.65567008870612        3.60278384712139        0.83774019396748
C            1.39303267759151        4.94342629121587        1.05960719013119
C            2.51340038876982        5.88296713196107        1.38880105577952
C            0.08087270400667        5.42227867744412        0.99089358770189
C           -0.97711535958940        4.57873324198293        0.68415062917693
C           -0.70683695883637        3.25190097127171        0.40490095789391
N           -1.56759555609521        2.20299133649219        0.13421495578748
C           -2.87535753448685        2.19879901308093       -0.30341335453000
C           -3.50338032303949        3.34259845083877       -0.80175033316514
C           -4.81815740367795        3.31307483149201       -1.21339113331653
C           -5.56135671581841        2.13733752598791       -1.15707780091663
C           -7.02066581129737        2.04894761002013       -1.56899401933782
C           -7.84372060512581        1.51427643670283       -0.38727333904987
C           -7.59791944720937        3.40724340134535       -1.97873508182369
C           -7.14454446563025        1.09125620490385       -2.76389066784983
C           -4.90183161769477        0.98946581882623       -0.72937224848296
C           -3.57721057233784        0.98320999427168       -0.32641142962715
C           -2.93874792405746       -0.33317305449096        0.10061301660088
C           -3.63934178501374       -0.73632417736029        1.39004141226513
C           -3.51444366268299       -0.18066434110291        2.64189803292166
C           -4.32139978701093       -0.66532543613291        3.66566993057345
C           -5.23920628773196       -1.67756140046639        3.42632413248035
C           -5.36547977300972       -2.24180147320225        2.16730532267284
C           -4.55733817218713       -1.77097064001500        1.14297362816076
C           -4.42071400131512       -2.19311605768313       -0.24225382764940
C           -5.05507182196397       -3.19496393581308       -0.96140695372653
C           -4.66681911682860       -3.41698311601388       -2.27293023393727
C           -3.66854336367656       -2.65447762957365       -2.86069826232822
C           -3.04242024021926       -1.63461569280030       -2.15182435844721
C           -3.41957255562490       -1.41457170816510       -0.84815430828893
H           -2.91376324748911       -6.32003962816231        0.45752881202180
H           -2.16943994716661       -6.69946016820675        2.01007153375681
H           -3.32509226877260       -5.36209133578998        1.87954852223549
H            0.11602089312060       -6.46356880284008        1.19422915200834
H            1.98184102789221       -4.96332700325798        0.70683878471065
H           -2.66169554354538       -3.24123066039188        0.95012175022171
H            2.93772506183417       -4.25214275891111       -0.91637630688391
H            5.24933891310890       -4.22097431273973       -1.59915573223094
H            7.08010478212562       -3.79859526111685       -2.85772022902271
H            7.52560003187368       -4.12180021889733       -1.17181877149819
H            8.64633707429909       -3.28666853931199       -2.24217706738734
H            8.18168652269816       -1.02521461577867       -3.08708552637593
H            6.81125321084398       -0.08368531257196       -2.50156726008790
H            6.54081527527059       -1.43676138646768       -3.59677061830665
H            7.73607868567611       -2.17840206159110        0.47043062912207
H            7.51582875735233       -0.52271879776292       -0.09000398514618
H            8.89318871239205       -1.46389095987661       -0.65709642602678
H            5.43647088344824       -0.05321481304559       -0.71346386946706
H            2.79856798709595       -0.61967798789738        2.82891297825427
H            4.22985000427975        0.22962238595396        4.65906075697045
H            5.85821973026902        2.01823619802846        4.24350220218574
H            6.07462542860936        3.02740470149513        2.00026931110565
H            5.83020610318935        3.79497442243889       -0.49394286661520
H            5.14720642278349        4.20595086331298       -2.83063315786340
H            3.37703623395450        2.86325273357894       -3.87200072873353
H            2.27135291554851        1.04224533176998       -2.61039231089361
H            2.65924177157130        3.23914425809608        0.95744832499043
H            2.16751872450296        6.69454264284395        2.02558655987606
H            3.32349794549254        5.35801007866379        1.88958030367273
H            2.91005661133632        6.32014827627953        0.47100037535995
H           -0.11845947664378        6.46095291758303        1.20879706656084
H           -1.98431637995561        4.96176860776360        0.71837542573047
H           -2.94073784005583        4.25456033921309       -0.90564933428333
H           -5.25220626245580        4.22473901168132       -1.58882819725786
H           -8.89594144245289        1.46270953245413       -0.65887843113783
H           -7.51898833930252        0.51976237391200       -0.09387891463814
H           -7.74036475559362        2.17318766935252        0.47276061551638
H           -7.52991334492916        4.12279770568993       -1.16242236221365
H           -7.08161094739034        3.80616341523661       -2.84883405899598
H           -8.64830651949698        3.29063978136182       -2.23758104217224
H           -8.18087518408496        1.03258236706558       -3.08966058273775
H           -6.53960219243636        1.44706982749068       -3.59565704664345
H           -6.81055008729493        0.09003141119242       -2.50550510491713
H           -5.43855281888700        0.05456336616038       -0.71444758310375
H           -2.80258204717276        0.61067134054986        2.83025768386854
H           -4.23385390750174       -0.24551733342283        4.65718379076700
H           -5.86095349040892       -2.03381052304170        4.23530603911254
H           -6.07615706338938       -3.03567499269523        1.98866388421697
H           -5.83067120333058       -3.79480177951834       -0.50800558112473
H           -5.14659813072654       -4.19780907067917       -2.84579410603114
H           -3.37678320428982       -2.85081434583765       -3.88212147444676
H           -2.27241988373380       -1.03342136765587       -2.61417104956218

          :  Hamiltonian                  GFN2-xTB          :
         :: gradient norm              0.000042778835 Eh/a0 ::
         :: HOMO-LUMO gap              0.119281486921 eV    ::
         :: SCC energy              -177.052326957678 Eh    ::
         :: -> dispersion             -0.193886676610 Eh    ::
         :: -> Gsolv                  -0.062058775926 Eh    ::
         :: repulsion energy           3.176986690111 Eh    ::

    * Orbital Energies and Occupations

         #    Occupation            Energy/Eh            Energy/eV
      -------------------------------------------------------------
         1        2.0000           -0.6782571             -18.4563
       ...           ...                  ...                  ...
       152        2.0000           -0.3980135             -10.8305
       153        2.0000           -0.3973715             -10.8130
       154        2.0000           -0.3971281             -10.8064
       155        2.0000           -0.3957651             -10.7693
       156        2.0000           -0.3918724             -10.6634
       157        2.0000           -0.3890634             -10.5870
       158        2.0000           -0.3879231             -10.5559
       159        2.0000           -0.3774348             -10.2705
       160        2.0000           -0.3770255             -10.2594
       161        2.0000           -0.3632250              -9.8839
       162        1.9997           -0.3571370              -9.7182
       163        1.0003           -0.3418896              -9.3033
       164        0.8795           -0.2556727              -6.9572 (HOMO)
       165        0.0674           -0.2512879              -6.8379 (LUMO)
       166        0.0532           -0.2510494              -6.8314
       167                         -0.2339709              -6.3667
       168                         -0.2310054              -6.2860
       169                         -0.2270079              -6.1772
       170                         -0.2268784              -6.1737
       171                         -0.2222741              -6.0484
       172                         -0.2219637              -6.0399
       173                         -0.2151575              -5.8547
       174                         -0.2148782              -5.8471
       175                         -0.2138315              -5.8187
       ...                                ...                  ...
       324                          0.7507030              20.4277
      -------------------------------------------------------------
                  HL-Gap            0.0043847 Eh            0.1193 eV

     #   Z          covCN         q      C6AA      α(0)
     1   6 C        3.759    -0.106    22.579     6.774
     2   6 C        2.963     0.012    27.738     8.639
     3   6 C        2.925    -0.061    29.512     8.909
     4   6 C        2.907    -0.053    29.316     8.878
     5   6 C        3.056     0.034    27.193     8.552
     6   6 C        3.064    -0.015    28.328     8.728
     7   6 C        2.917    -0.062    29.534     8.912
     8   6 C        3.053    -0.048    29.148     8.854
     9   6 C        2.962    -0.016    28.401     8.741
    10   6 C        3.097     0.035    27.095     8.531
    11   6 C        3.053    -0.048    29.148     8.854
    12   6 C        2.962    -0.016    28.401     8.741
    13   6 C        3.097     0.035    27.095     8.531
    14   7 N        2.803    -0.009    21.431     6.876
    15   6 C        2.924     0.054    26.797     8.489
    16   6 C        2.919    -0.053    29.317     8.879
    17   6 C        2.924    -0.041    29.018     8.834
    18   6 C        2.972     0.007    27.864     8.659
    19   6 C        3.903     0.027    20.072     6.368
    20   6 C        3.761    -0.109    22.634     6.782
    21   6 C        3.761    -0.105    22.551     6.770
    22   6 C        3.761    -0.105    22.553     6.770
    23   6 C        2.933    -0.042    29.055     8.840
    24   6 C        2.988    -0.001    28.049     8.688
    25   6 C        3.947     0.020    20.177     6.383
    26   6 C        3.058     0.004    27.867     8.657
    27   6 C        2.913    -0.034    28.855     8.808
    28   6 C        2.923    -0.035    28.871     8.812
    29   6 C        2.920    -0.034    28.847     8.808
    30   6 C        2.914    -0.037    28.924     8.819
    31   6 C        3.033    -0.000    28.008     8.681
    32   6 C        3.032     0.001    27.978     8.676
    33   6 C        2.914    -0.037    28.916     8.818
    34   6 C        2.920    -0.033    28.834     8.806
    35   6 C        2.923    -0.035    28.868     8.811
    36   6 C        2.913    -0.033    28.811     8.802
    37   6 C        3.056     0.005    27.858     8.656
    38   6 C        3.064    -0.015    28.328     8.728
    39   6 C        2.917    -0.062    29.534     8.912
    40   6 C        2.963     0.012    27.738     8.639
    41   6 C        3.759    -0.106    22.579     6.774
    42   6 C        2.925    -0.061    29.512     8.909
    43   6 C        2.907    -0.053    29.316     8.878
    44   6 C        3.056     0.034    27.193     8.552
    45   7 N        2.803    -0.009    21.431     6.876
    46   6 C        2.924     0.054    26.797     8.489
    47   6 C        2.919    -0.053    29.317     8.879
    48   6 C        2.924    -0.041    29.018     8.834
    49   6 C        2.972     0.007    27.864     8.659
    50   6 C        3.903     0.027    20.072     6.368
    51   6 C        3.761    -0.105    22.553     6.770
    52   6 C        3.761    -0.109    22.634     6.782
    53   6 C        3.761    -0.105    22.551     6.769
    54   6 C        2.933    -0.042    29.055     8.840
    55   6 C        2.988    -0.001    28.049     8.688
    56   6 C        3.947     0.020    20.177     6.383
    57   6 C        3.058     0.004    27.867     8.657
    58   6 C        2.913    -0.034    28.855     8.808
    59   6 C        2.923    -0.035    28.871     8.812
    60   6 C        2.920    -0.034    28.846     8.808
    61   6 C        2.914    -0.037    28.924     8.819
    62   6 C        3.033    -0.000    28.008     8.681
    63   6 C        3.032     0.001    27.977     8.676
    64   6 C        2.914    -0.037    28.916     8.818
    65   6 C        2.920    -0.033    28.834     8.806
    66   6 C        2.923    -0.035    28.868     8.811
    67   6 C        2.913    -0.033    28.811     8.802
    68   6 C        3.056     0.005    27.858     8.656
    69   1 H        0.924     0.047     2.352     2.398
    70   1 H        0.925     0.042     2.417     2.431
    71   1 H        0.925     0.041     2.436     2.441
    72   1 H        0.926     0.023     2.691     2.565
    73   1 H        0.926     0.030     2.586     2.515
    74   1 H        0.926     0.028     2.619     2.530
    75   1 H        0.926     0.046     2.366     2.405
    76   1 H        0.926     0.048     2.343     2.393
    77   1 H        0.925     0.038     2.473     2.459
    78   1 H        0.925     0.038     2.476     2.461
    79   1 H        0.925     0.040     2.444     2.445
    80   1 H        0.925     0.042     2.420     2.433
    81   1 H        0.925     0.036     2.502     2.474
    82   1 H        0.925     0.034     2.530     2.487
    83   1 H        0.925     0.034     2.533     2.489
    84   1 H        0.925     0.036     2.498     2.472
    85   1 H        0.925     0.042     2.425     2.435
    86   1 H        0.926     0.039     2.465     2.455
    87   1 H        0.926     0.022     2.702     2.571
    88   1 H        0.926     0.029     2.602     2.523
    89   1 H        0.926     0.030     2.583     2.513
    90   1 H        0.926     0.031     2.577     2.510
    91   1 H        0.926     0.030     2.582     2.513
    92   1 H        0.926     0.030     2.591     2.517
    93   1 H        0.926     0.029     2.607     2.525
    94   1 H        0.926     0.022     2.707     2.573
    95   1 H        0.926     0.028     2.619     2.531
    96   1 H        0.925     0.042     2.416     2.431
    97   1 H        0.925     0.041     2.436     2.441
    98   1 H        0.924     0.047     2.352     2.398
    99   1 H        0.926     0.023     2.691     2.565
   100   1 H        0.926     0.030     2.586     2.515
   101   1 H        0.926     0.046     2.366     2.405
   102   1 H        0.926     0.048     2.343     2.393
   103   1 H        0.925     0.042     2.425     2.435
   104   1 H        0.925     0.036     2.498     2.472
   105   1 H        0.925     0.034     2.533     2.489
   106   1 H        0.925     0.038     2.476     2.461
   107   1 H        0.925     0.038     2.473     2.459
   108   1 H        0.925     0.040     2.444     2.445
   109   1 H        0.925     0.042     2.420     2.433
   110   1 H        0.925     0.034     2.530     2.487
   111   1 H        0.925     0.036     2.502     2.474
   112   1 H        0.926     0.039     2.465     2.455
   113   1 H        0.926     0.022     2.702     2.571
   114   1 H        0.926     0.029     2.602     2.523
   115   1 H        0.926     0.030     2.583     2.514
   116   1 H        0.926     0.031     2.577     2.510
   117   1 H        0.926     0.030     2.581     2.513
   118   1 H        0.926     0.030     2.591     2.517
   119   1 H        0.926     0.029     2.607     2.525
   120   1 H        0.926     0.022     2.707     2.573

molecular dipole:
                 x           y           z       tot (Debye)
 q only:       -0.000       0.001      -0.696
   full:       -0.000       0.001      -0.658       1.673

 projected vibrational frequencies (cm⁻¹)
eigval :       -0.00    -0.00    -0.00    -0.00    -0.00     0.00
eigval :       10.28    12.67    14.14    27.95    29.21    34.78
eigval :       35.34    36.97    38.72    52.47    59.17    63.50
eigval :       64.29    68.55    75.51    77.61    83.05    90.05
eigval :       95.87    97.49    98.01   110.26   115.70   127.83
eigval :      128.46   137.51   139.85   149.47   150.04   154.73
eigval :      159.66   173.24   175.32   177.32   183.41   201.26
eigval :      205.33   218.07   219.93   222.20   239.12   239.48
eigval :      250.87   259.59   261.69   263.58   268.94   285.90
eigval :      292.09   294.27   308.69   311.61   314.51   318.71
eigval :      320.35   333.53   335.73   345.84   345.90   361.37
eigval :      365.20   369.89   386.18   389.26   396.30   397.62
eigval :      400.90   410.35   411.84   412.92   416.65   425.49
eigval :      426.75   430.62   439.74   441.29   456.93   462.53
eigval :      467.75   468.98   475.34   481.20   483.84   496.12
eigval :      503.10   516.58   516.76   523.65   533.96   534.24
eigval :      555.77   555.87   560.52   574.22   576.69   587.55
eigval :      588.42   589.59   592.39   601.49   603.51   610.49
eigval :      617.57   626.43   631.03   639.92   649.82   661.17
eigval :      666.82   670.02   673.73   676.51   683.32   686.45
eigval :      693.82   702.81   712.08   723.08   723.20   731.11
eigval :      742.09   748.84   755.04   755.50   773.27   774.03
eigval :      779.90   780.14   780.71   781.72   813.33   817.37
eigval :      818.46   826.24   827.32   833.86   867.24   870.05
eigval :      870.63   873.23   873.98   874.28   874.69   877.40
eigval :      881.57   884.86   888.56   895.85   897.38   904.28
eigval :      904.44   904.52   904.89   911.74   913.15   919.42
eigval :      920.75   921.39   923.02   923.16   927.14   947.90
eigval :      955.34   958.76   959.29   960.02   960.71   963.24
eigval :      964.11   966.13   995.78   999.43   999.69  1018.32
eigval :     1022.47  1027.47  1029.26  1032.37  1034.12  1034.75
eigval :     1035.29  1038.59  1070.81  1071.00  1072.01  1074.81
eigval :     1076.75  1091.75  1098.61  1113.25  1127.24  1138.69
eigval :     1138.84  1147.88  1149.69  1152.37  1159.94  1162.82
eigval :     1167.83  1170.08  1171.53  1172.92  1178.40  1188.07
eigval :     1193.26  1195.90  1199.60  1199.70  1202.57  1215.05
eigval :     1220.31  1221.32  1223.47  1223.62  1228.06  1232.08
eigval :     1232.63  1233.19  1245.26  1249.94  1250.76  1256.89
eigval :     1257.06  1269.66  1274.65  1277.79  1278.29  1279.86
eigval :     1286.47  1290.75  1297.85  1315.01  1326.98  1327.18
eigval :     1327.71  1328.98  1338.84  1363.06  1364.24  1372.29
eigval :     1375.32  1381.13  1386.83  1389.35  1397.78  1399.60
eigval :     1400.16  1400.71  1401.65  1403.23  1404.87  1412.67
eigval :     1414.89  1415.59  1420.51  1422.52  1422.79  1425.42
eigval :     1426.57  1433.93  1444.47  1453.16  1457.58  1458.16
eigval :     1458.95  1459.41  1472.65  1477.81  1480.46  1481.92
eigval :     1485.03  1487.02  1487.62  1487.76  1490.55  1490.76
eigval :     1495.95  1497.35  1498.32  1499.88  1501.21  1505.95
eigval :     1509.58  1509.81  1515.26  1515.88  1530.18  1534.81
eigval :     1540.44  1542.87  1545.39  1548.50  1556.10  1567.08
eigval :     1567.13  1578.38  1580.66  1582.61  1584.49  1591.96
eigval :     1596.36  1596.62  2984.51  2984.54  3022.32  3022.39
eigval :     3022.43  3022.56  3025.63  3025.71  3026.65  3026.87
eigval :     3028.32  3028.34  3029.43  3029.58  3032.50  3032.53
eigval :     3034.67  3034.80  3037.58  3037.67  3045.39  3045.45
eigval :     3049.41  3049.45  3065.62  3065.63  3066.43  3066.47
eigval :     3068.34  3068.39  3069.27  3069.43  3076.24  3076.31
eigval :     3077.47  3077.56  3078.34  3078.55  3085.69  3085.77
eigval :     3085.85  3088.16  3098.45  3098.69  3108.03  3108.05
eigval :     3114.74  3114.80  3128.23  3128.35  3168.96  3169.32

   temp. (K)  partition function   enthalpy   heat capacity  entropy
                                   cal/mol     cal/K/mol   cal/K/mol   J/K/mol
 298.15  VIB  0.138E+26            34307.417    218.116    211.586
         ROT  0.725E+08              888.752      2.981     38.949
         INT  0.100E+34            35196.169    221.097    250.535
         TR   0.250E+29             1481.254      4.968     46.156
         TOT                       36677.4233   226.0653   296.6908  1241.3542

       T/K    H(0)-H(T)+PV         H(T)/Eh          T*S/Eh         G(T)/Eh
   ------------------------------------------------------------------------
    298.15    0.584492E-01    0.101609E+01    0.140967E+00    0.875123E+00
   ------------------------------------------------------------------------

         :::::::::::::::::::::::::::::::::::::::::::::::::::::
         ::                  THERMODYNAMIC                  ::
         :::::::::::::::::::::::::::::::::::::::::::::::::::::
         :: total free energy        -173.000217358611 Eh   ::
         ::.................................................::
         :: total energy             -173.875340264145 Eh   ::
         :: zero point energy           0.957641075185 Eh   ::
         :: G(RRHO) w/o ZPVE           -0.082518169651 Eh   ::
         :: G(RRHO) contrib.            0.875122905534 Eh   ::
         :::::::::::::::::::::::::::::::::::::::::::::::::::::

           -------------------------------------------------
          | TOTAL ENERGY             -173.875340264145 Eh   |
          | TOTAL ENTHALPY           -172.859249994478 Eh   |
          | TOTAL FREE ENERGY        -173.000217358611 Eh   |
          | GRADIENT NORM               0.000045815730 Eh/α |
          | HOMO-LUMO GAP               0.119314985674 eV   |
           -------------------------------------------------

 * finished run on 2025/09/08 at 17:29:02.795
