   * xtb version 6.7.1 (edcfbbe) compiled by 'albert@albert-system' on 2024-07-22

   ID    Z sym.   atoms
    1    6 C      1-26, 28-39, 41-46
    2   16 S      27, 40
    3    1 H      47-72

          program call               : xtb data2507/toluene/[2,1-b]IF/[2,1-b]IF_toluene_T1_crest.xyz --gfn 2 --uhf 2 --gbsa toluene --ohess vtight --parallel 40 --molden --ceasefiles --namespace data2507/toluene/[2,1-b]IF/[2,1-b]IF_toluene_T1_finalOpt
      * Solvation model:               GBSA
        Solvent                        toluene
        Solvent mass                       9.2140E+01 g/mol
          :  Hamiltonian                  GFN2-xTB          :
 * total energy  :  -113.9317520 Eh     change       -0.3262073E-08 Eh
 * total energy  :  -113.9318106 Eh     change       -0.5859982E-04 Eh
 * total energy  :  -113.9318825 Eh     change       -0.7191787E-04 Eh
 * total energy  :  -113.9319179 Eh     change       -0.3534447E-04 Eh
 * total energy  :  -113.9319837 Eh     change       -0.6583571E-04 Eh
 * total energy  :  -113.9320674 Eh     change       -0.8374262E-04 Eh
 * total energy  :  -113.9321124 Eh     change       -0.4495502E-04 Eh
 * total energy  :  -113.9321561 Eh     change       -0.4371108E-04 Eh
 * total energy  :  -113.9321954 Eh     change       -0.3929002E-04 Eh
 * total energy  :  -113.9322154 Eh     change       -0.2005088E-04 Eh
 * total energy  :  -113.9322340 Eh     change       -0.3306613E-05 Eh
 * total energy  :  -113.9322379 Eh     change       -0.3924617E-05 Eh
 * total energy  :  -113.9322418 Eh     change       -0.3904994E-05 Eh
 * total energy  :  -113.9322445 Eh     change       -0.2645702E-05 Eh
 * total energy  :  -113.9322456 Eh     change       -0.1142238E-05 Eh
 * total energy  :  -113.9322462 Eh     change       -0.5538583E-06 Eh
 * total energy  :  -113.9322466 Eh     change       -0.3740983E-06 Eh
 * total energy  :  -113.9322469 Eh     change       -0.3021403E-06 Eh
 * total energy  :  -113.9322469 Eh     change       -0.5335934E-08 Eh
   *** GEOMETRY OPTIMIZATION CONVERGED AFTER 22 ITERATIONS ***

 final structure:
================
72
 xtb: 6.7.1 (edcfbbe)
C           -2.28100071916418       -0.02827031168313       -3.18187151347283
C           -3.18524439703824       -0.01202502825945       -2.19760354593952
C           -2.83498994099451        0.00123357337842       -0.72731928704532
C           -1.36038167934237        0.00274125409301       -0.47313726212193
C           -0.45793727308894       -0.01297394695737       -1.47882385198797
C           -0.88171994266873       -0.03121012269938       -2.88640352615481
C            0.22257597601478       -0.04825710120278       -3.67346631333309
C            1.39701693809356       -0.04123949303641       -2.82393041773494
C            0.96386569325150       -0.01861927483763       -1.48287670915313
C            1.88367578368966       -0.00480266565545       -0.29338003818219
C            3.30337738323628       -0.01724872130198       -0.77186502719917
C            4.48693837312788       -0.00980839081531        0.02305269845721
C            4.69586575874675        0.01405664577326        1.39158870921221
C            6.00568523010278        0.01455898148993        1.86859400886940
C            7.08571765326338       -0.00857677119437        0.99957699231446
C            6.89707663802571       -0.03234432311777       -0.38124227099749
C            5.60315753414993       -0.03264399221488       -0.87661803983229
C            5.09271275614408       -0.05224369162826       -2.20424053935940
C            3.68839266790266       -0.04257315943834       -2.14019989002028
C            2.73575910528197       -0.05428817499362       -3.18111777965166
C            1.65065953671676       -1.28574394254718        0.49468107419160
C            1.95886642403294       -2.47859029840910       -0.15649523530737
C            1.77594574920839       -3.70550252087390        0.44961507225436
C            1.27056268422679       -3.76619776669604        1.73939068381424
C            0.95380810771286       -2.59816393353427        2.39967876089575
C            1.14261998756535       -1.36262451753791        1.78321725106100
S            0.68285650006130        0.04155984483339        2.75103883094768
C            1.15219911600711        1.41509521643509        1.74456003830213
C            0.97225872416466        2.66852557280943        2.32660785795864
C            1.29682316407305        3.81560212726636        1.63413474220026
C            1.80141189340107        3.71569094148419        0.34648130653073
C            1.97570646772671        2.47118061569741       -0.22535876361474
C            1.65945234329770        1.29898784427349        0.45864182287770
C           -3.44994527446882       -1.25402180163737       -0.11736380465877
C           -2.65944086527350       -2.37313966962683        0.11950705604169
C           -3.20369601731762       -3.54785524198194        0.60566332961290
C           -4.56244358441360       -3.62829672529399        0.86341799373580
C           -5.36462674974682       -2.52755313543878        0.63777233170204
C           -4.81103148034340       -1.34995679986264        0.14952111393341
S           -5.91664269350050        0.00460835534772       -0.12431026402512
C           -4.81119933167934        1.36257601017238        0.13307678444690
C           -5.36464972761440        2.54542282350375        0.60861639342913
C           -4.56248146385407        3.64873967413762        0.82138461184441
C           -3.20405256097491        3.56594148932611        0.56263649056296
C           -2.66002682845455        2.38603412341353        0.08895747015284
C           -3.45035302342878        1.26388213410870       -0.13408244006508
H           -2.59256858370184       -0.03880203432816       -4.21755423060374
H           -4.24279819802428       -0.00985181200369       -2.41938208801154
H           -1.06408329842349        0.01451472484544        0.56541298413778
H            0.25495317325819       -0.06436179466835       -4.74808882501515
H            3.86561909577198        0.03212734476874        2.08177612682047
H            6.18012933101298        0.03302457133348        2.93444581154618
H            8.08962409985057       -0.00799640257284        1.39822890078031
H            7.74496053810896       -0.05007039030010       -1.05065166642281
H            5.68090512321806       -0.07114772510136       -3.10354672398756
H            3.04720755445893       -0.07242803274253       -4.21414023822955
H            2.34690685403255       -2.42922017925319       -1.16346618849916
H            2.02543174904700       -4.61091558839805       -0.08258596115229
H            1.12156344221071       -4.71761234791602        2.22709146699091
H            0.55374402554869       -2.62055634118713        3.40279016346854
H            0.57273544987566        2.72143338187218        3.32878673673801
H            1.15460822137544        4.78114154485910        2.09541589366468
H            2.05704946245819        4.60424669155483       -0.21063413960805
H            2.36325873277309        2.39122244013733       -1.23053982149169
H           -1.60216814792480       -2.32338271645708       -0.09676546505729
H           -2.56544139339426       -4.40178750252276        0.77449684534744
H           -4.99649608034265       -4.54240830420984        1.23924865671073
H           -6.42621491767286       -2.56518651341380        0.83159685952177
H           -6.42602268186229        2.58487912755139        0.80325780484614
H           -4.99632605916184        4.56674562004870        1.18786951919635
H           -2.56590724682982        4.42192210441520        0.72123325066665
H           -1.60307275571146        2.33421569342359       -0.12842985565271

          :  Hamiltonian                  GFN2-xTB          :
         :: gradient norm              0.000050720525 Eh/a0 ::
         :: HOMO-LUMO gap              1.033214836392 eV    ::
         :: SCC energy              -116.019786334765 Eh    ::
         :: -> dispersion             -0.124093773171 Eh    ::
         :: -> Gsolv                  -0.043096407929 Eh    ::
         :: repulsion energy           2.087539463359 Eh    ::

    * Orbital Energies and Occupations

         #    Occupation            Energy/Eh            Energy/eV
      -------------------------------------------------------------
         1        2.0000           -0.7249744             -19.7276
       ...           ...                  ...                  ...
        96        2.0000           -0.4169852             -11.3467
        97        2.0000           -0.4137273             -11.2581
        98        2.0000           -0.4124456             -11.2232
        99        2.0000           -0.4121381             -11.2148
       100        2.0000           -0.4076698             -11.0933
       101        2.0000           -0.4050277             -11.0214
       102        2.0000           -0.4004975             -10.8981
       103        2.0000           -0.3881103             -10.5610
       104        1.9997           -0.3632736              -9.8852
       105        1.9997           -0.3631290              -9.8812
       106        1.9985           -0.3616524              -9.8411
       107        1.0020           -0.3495552              -9.5119
       108        1.0000           -0.3172723              -8.6334 (HOMO)
       109                         -0.2793024              -7.6002 (LUMO)
       110                         -0.2432472              -6.6191
       111                         -0.2417129              -6.5773
       112                         -0.2348655              -6.3910
       113                         -0.2344472              -6.3796
       114                         -0.2336515              -6.3580
       115                         -0.2336310              -6.3574
       116                         -0.2302655              -6.2658
       117                         -0.2274691              -6.1898
       118                         -0.2241971              -6.1007
       119                         -0.2044629              -5.5637
       ...                                ...                  ...
       220                          0.7364291              20.0393
      -------------------------------------------------------------
                  HL-Gap            0.0379699 Eh            1.0332 eV

     #   Z          covCN         q      C6AA      α(0)
     1   6 C        2.895    -0.037    28.910     8.816
     2   6 C        2.921    -0.032    28.802     8.801
     3   6 C        3.920     0.029    20.018     6.359
     4   6 C        2.910    -0.030    28.751     8.792
     5   6 C        3.064    -0.004    28.061     8.687
     6   6 C        3.074    -0.002    28.007     8.677
     7   6 C        2.992    -0.058    29.420     8.897
     8   6 C        3.087     0.003    27.866     8.653
     9   6 C        3.065    -0.029    28.657     8.778
    10   6 C        3.920     0.030    20.013     6.358
    11   6 C        3.085     0.003    27.860     8.653
    12   6 C        3.069    -0.008    28.137     8.698
    13   6 C        2.909    -0.024    28.603     8.770
    14   6 C        2.918    -0.029    28.734     8.790
    15   6 C        2.917    -0.030    28.760     8.794
    16   6 C        2.909    -0.026    28.654     8.777
    17   6 C        3.079    -0.001    27.973     8.671
    18   6 C        2.998    -0.038    28.922     8.822
    19   6 C        3.069    -0.002    28.014     8.679
    20   6 C        2.903    -0.045    29.106     8.846
    21   6 C        3.007     0.007    27.857     8.658
    22   6 C        2.931    -0.033    28.834     8.806
    23   6 C        2.918    -0.035    28.865     8.810
    24   6 C        2.920    -0.030    28.741     8.791
    25   6 C        2.994    -0.039    28.952     8.826
    26   6 C        2.970     0.047    26.941     8.514
    27  16 S        2.148    -0.155   147.586    20.447
    28   6 C        2.970     0.047    26.941     8.514
    29   6 C        2.994    -0.039    28.952     8.826
    30   6 C        2.920    -0.030    28.741     8.791
    31   6 C        2.918    -0.035    28.865     8.810
    32   6 C        2.931    -0.033    28.833     8.806
    33   6 C        3.007     0.007    27.858     8.658
    34   6 C        3.013     0.006    27.872     8.660
    35   6 C        2.927    -0.034    28.852     8.809
    36   6 C        2.918    -0.033    28.834     8.806
    37   6 C        2.920    -0.030    28.758     8.794
    38   6 C        2.979    -0.039    28.952     8.826
    39   6 C        2.972     0.047    26.949     8.515
    40  16 S        2.132    -0.163   147.958    20.473
    41   6 C        2.972     0.047    26.949     8.515
    42   6 C        2.979    -0.039    28.952     8.826
    43   6 C        2.920    -0.030    28.758     8.794
    44   6 C        2.918    -0.033    28.833     8.805
    45   6 C        2.927    -0.034    28.851     8.809
    46   6 C        3.013     0.006    27.875     8.661
    47   1 H        0.925     0.032     2.559     2.501
    48   1 H        0.926     0.031     2.572     2.508
    49   1 H        0.926     0.031     2.572     2.508
    50   1 H        0.926     0.024     2.677     2.559
    51   1 H        0.926     0.029     2.600     2.522
    52   1 H        0.926     0.036     2.504     2.474
    53   1 H        0.926     0.037     2.483     2.464
    54   1 H        0.926     0.039     2.462     2.454
    55   1 H        0.926     0.039     2.458     2.452
    56   1 H        0.926     0.031     2.576     2.510
    57   1 H        0.926     0.037     2.486     2.466
    58   1 H        0.926     0.040     2.452     2.449
    59   1 H        0.926     0.043     2.415     2.430
    60   1 H        0.926     0.043     2.414     2.430
    61   1 H        0.926     0.043     2.414     2.430
    62   1 H        0.926     0.043     2.415     2.430
    63   1 H        0.926     0.040     2.452     2.449
    64   1 H        0.926     0.037     2.486     2.466
    65   1 H        0.926     0.036     2.508     2.476
    66   1 H        0.926     0.041     2.440     2.443
    67   1 H        0.926     0.044     2.400     2.422
    68   1 H        0.926     0.045     2.388     2.417
    69   1 H        0.926     0.045     2.388     2.417
    70   1 H        0.926     0.044     2.400     2.423
    71   1 H        0.926     0.041     2.439     2.442
    72   1 H        0.926     0.036     2.507     2.476

molecular dipole:
                 x           y           z       tot (Debye)
 q only:        0.895      -0.000       0.204
   full:        1.236      -0.005       0.035       3.143

 projected vibrational frequencies (cm⁻¹)
eigval :       -0.00    -0.00     0.00     0.00     0.00     0.00
eigval :        4.24    19.46    27.08    33.38    36.53    37.48
eigval :       46.04    55.43    57.93    74.61    93.31   105.05
eigval :      111.81   112.01   134.84   143.61   148.52   166.60
eigval :      186.54   193.71   208.01   232.32   243.56   246.11
eigval :      269.98   273.61   276.74   297.41   306.76   325.33
eigval :      331.36   346.63   348.64   349.69   361.67   363.73
eigval :      397.40   414.66   416.52   417.62   422.22   423.19
eigval :      434.19   443.53   450.31   469.81   471.00   485.89
eigval :      488.72   494.16   498.52   501.94   509.52   519.50
eigval :      531.92   564.03   580.90   588.64   590.56   612.04
eigval :      620.44   635.90   637.46   643.93   657.16   657.60
eigval :      670.00   676.09   681.00   682.83   689.50   699.40
eigval :      699.81   708.01   712.34   735.44   735.89   760.79
eigval :      771.48   773.12   775.99   778.66   784.39   791.48
eigval :      806.23   818.98   819.60   836.11   847.63   850.35
eigval :      878.69   879.39   880.04   880.29   880.51   891.75
eigval :      895.03   898.86   908.58   913.58   913.96   914.17
eigval :      915.70   918.88   922.74   924.23   925.33   925.49
eigval :      952.29   957.02  1010.43  1032.75  1033.44  1039.21
eigval :     1046.59  1063.67  1093.77  1095.97  1096.70  1097.85
eigval :     1098.58  1101.42  1120.59  1129.38  1145.55  1146.39
eigval :     1147.18  1154.50  1159.68  1162.07  1175.03  1175.24
eigval :     1176.22  1177.82  1179.24  1191.18  1194.14  1195.35
eigval :     1208.00  1209.67  1220.67  1220.93  1243.45  1245.89
eigval :     1249.38  1252.79  1253.70  1262.79  1279.87  1298.89
eigval :     1315.95  1319.25  1320.56  1324.22  1327.94  1352.84
eigval :     1360.55  1381.08  1387.81  1398.27  1405.75  1410.07
eigval :     1415.50  1434.12  1445.40  1447.85  1454.64  1456.34
eigval :     1461.09  1469.74  1497.38  1538.99  1562.86  1565.58
eigval :     1573.35  1574.28  1575.62  1578.84  1580.07  1586.11
eigval :     1586.78  1592.30  1606.45  1634.48  3056.75  3071.21
eigval :     3075.95  3076.70  3077.43  3077.81  3079.21  3079.37
eigval :     3081.21  3081.98  3082.16  3082.32  3083.11  3083.73
eigval :     3088.44  3088.59  3089.28  3089.72  3090.16  3091.76
eigval :     3097.58  3098.19  3098.32  3098.82  3127.86  3133.59

   temp. (K)  partition function   enthalpy   heat capacity  entropy
                                   cal/mol     cal/K/mol   cal/K/mol   J/K/mol
 298.15  VIB  0.237E+16            20630.403    134.866    126.201
         ROT  0.472E+08              888.752      2.981     38.096
         INT  0.112E+24            21519.155    137.847    164.297
         TR   0.149E+29             1481.254      4.968     45.130
         TOT                       23000.4092   142.8150   209.4275   876.2446

       T/K    H(0)-H(T)+PV         H(T)/Eh          T*S/Eh         G(T)/Eh
   ------------------------------------------------------------------------
    298.15    0.366535E-01    0.572114E+00    0.995058E-01    0.472608E+00
   ------------------------------------------------------------------------

         :::::::::::::::::::::::::::::::::::::::::::::::::::::
         ::                  THERMODYNAMIC                  ::
         :::::::::::::::::::::::::::::::::::::::::::::::::::::
         :: total free energy        -113.459638769701 Eh   ::
         ::.................................................::
         :: total energy             -113.932246873011 Eh   ::
         :: zero point energy           0.535460373567 Eh   ::
         :: G(RRHO) w/o ZPVE           -0.062852270257 Eh   ::
         :: G(RRHO) contrib.            0.472608103310 Eh   ::
         :::::::::::::::::::::::::::::::::::::::::::::::::::::

           -------------------------------------------------
          | TOTAL ENERGY             -113.932246873011 Eh   |
          | TOTAL ENTHALPY           -113.360133014263 Eh   |
          | TOTAL FREE ENERGY        -113.459638769701 Eh   |
          | GRADIENT NORM               0.000050746247 Eh/α |
          | HOMO-LUMO GAP               1.033214703023 eV   |
           -------------------------------------------------

 * finished run on 2025/09/08 at 20:33:44.583
