   * xtb version 6.7.1 (edcfbbe) compiled by 'albert@albert-system' on 2024-07-22

   ID    Z sym.   atoms
    1    6 C      1-26, 28-39, 41-46
    2   16 S      27, 40
    3    1 H      47-72

          program call               : xtb data2507/toluene/[2,1-b]IF/[2,1-b]IF_toluene_S0_finalOpt.xtbopt.xyz --gfn 2 --uhf 2 --gbsa toluene --ohess vtight --parallel 40 --molden --ceasefiles --namespace data2507/toluene/[2,1-b]IF/[2,1-b]IF_toluene_T1_preOpt
      * Solvation model:               GBSA
        Solvent                        toluene
        Solvent mass                       9.2140E+01 g/mol
          :  Hamiltonian                  GFN2-xTB          :
 * total energy  :  -113.9221247 Eh     change       -0.4892613E-07 Eh
 * total energy  :  -113.9293848 Eh     change       -0.7260180E-02 Eh
 * total energy  :  -113.9320884 Eh     change       -0.2703589E-02 Eh
 * total energy  :  -113.9321954 Eh     change       -0.1069541E-03 Eh
 * total energy  :  -113.9322305 Eh     change       -0.3511012E-04 Eh
 * total energy  :  -113.9322364 Eh     change       -0.5866861E-05 Eh
 * total energy  :  -113.9322398 Eh     change       -0.3481458E-05 Eh
 * total energy  :  -113.9322419 Eh     change       -0.2085305E-05 Eh
 * total energy  :  -113.9322434 Eh     change       -0.1429187E-05 Eh
 * total energy  :  -113.9322445 Eh     change       -0.1149537E-05 Eh
 * total energy  :  -113.9322466 Eh     change       -0.1489553E-06 Eh
 * total energy  :  -113.9322467 Eh     change       -0.1425941E-06 Eh
 * total energy  :  -113.9322469 Eh     change       -0.1919094E-06 Eh
 * total energy  :  -113.9322471 Eh     change       -0.1623284E-06 Eh
 * total energy  :  -113.9322472 Eh     change       -0.1508953E-06 Eh
 * total energy  :  -113.9322474 Eh     change       -0.1628960E-06 Eh
 * total energy  :  -113.9322476 Eh     change       -0.1867459E-06 Eh
 * total energy  :  -113.9322477 Eh     change       -0.1423705E-06 Eh
 * total energy  :  -113.9322477 Eh     change       -0.4835869E-08 Eh
   *** GEOMETRY OPTIMIZATION CONVERGED AFTER 22 ITERATIONS ***

 final structure:
================
72
 xtb: 6.7.1 (edcfbbe)
C           -2.25361929278773        0.03231689903150       -3.19149948534408
C           -3.16321291852393        0.01996855917147       -2.21207679433488
C           -2.82096605390113        0.00528615808986       -0.73992506437183
C           -1.34776095711714        0.00274723839458       -0.47784617245594
C           -0.43989297778367        0.01463931173861       -1.47867772645149
C           -0.85590505510320        0.03095479711406       -2.88856949148474
C            0.25278639359173        0.04263685128941       -3.66957112057526
C            1.42258723777247        0.03405071264044       -2.81357738893595
C            0.98187637492555        0.01626766645256       -1.47492631623802
C            1.89487694419492        0.00394278314138       -0.28028052809880
C            3.31719128624938        0.00886526964864       -0.75083657394958
C            4.49590087524656       -0.00213523595121        0.05108434470915
C            4.69621752577176       -0.02369385570571        1.42093351589251
C            6.00306202189022       -0.02976362211851        1.90590849287490
C            7.08842543919221       -0.01440847134382        1.04337892028429
C            6.90837096562248        0.00710176871918       -0.33865146981050
C            5.61752645459751        0.01281868139460       -0.84198286921958
C            5.11495933076075        0.03144938179702       -2.17269884198678
C            3.71020286262238        0.02867801094322       -2.11696281927803
C            2.76340767954342        0.04145873529246       -3.16324110387609
C            1.66207593058349       -1.29547545299396        0.47655847604968
C            1.97950801120144       -2.47182521253922       -0.19973055442306
C            1.79863172352270       -3.71302358404814        0.37725465317148
C            1.28626669304369       -3.80514971604733        1.66241192355814
C            0.96029371017464       -2.65384106391270        2.34719656828134
C            1.14674538897416       -1.40379833525015        1.75994138402871
S            0.67459047015803       -0.02378117722410        2.75634782564161
C            1.14632125970309        1.37426237525662        1.78530421219385
C            0.95866658394091        2.61340757775809        2.39486940093623
C            1.28422903485841        3.77710249053498        1.73117158153064
C            1.79750799434968        3.70849732657328        0.44490520292780
C            1.97946529061396        2.47805021195545       -0.15429625551800
C            1.66228830398985        1.28949274182312        0.50043235099884
C           -3.43931534139471       -1.25846051230874       -0.15176156782411
C           -2.65009627434783       -2.38107666663260        0.07298159079970
C           -3.19637764331834       -3.56178955608002        0.54202848813106
C           -4.55596533670789       -3.64493443370955        0.79450215779360
C           -5.35705205034677       -2.54115458332470        0.58007095707933
C           -4.80135511241762       -1.35750792873710        0.10912967065306
S           -5.90546658990178        0.00111603773780       -0.15056550885713
C           -4.80082148892849        1.35492735352893        0.13098792524179
C           -5.35617324132791        2.53140598840797        0.61996287934409
C           -4.55479693609400        3.63161251501896        0.85105457000709
C           -3.19517203473761        3.55186147584651        0.59772585360346
C           -2.64915621679796        2.37819615279790        0.11102027581204
C           -3.43873569751489        1.25948465951192       -0.13088355133962
H           -2.55961072536677        0.04332883347807       -4.22884705083978
H           -4.21956507863094        0.02147840151061       -2.43950580924089
H           -1.05721273182525       -0.00823312966148        0.56232088024137
H            0.29103386546296        0.05599009210085       -4.74404482214951
H            3.86161518259872       -0.03589294534040        2.10599992511103
H            6.17095842860707       -0.04661460718178        2.97283007167421
H            8.08983454336489       -0.01928555623001        1.44825812367269
H            7.76051246157854        0.01877392156165       -1.00276916624435
H            5.70854488011197        0.04508216522643       -3.06858241125882
H            3.08057838900535        0.05562148096081       -4.19459456990818
H            2.37340511040542       -2.39770280927549       -1.20291816035504
H            2.05542249186745       -4.60501462821039       -0.17382715325433
H            1.13905880554696       -4.76800331031296        2.12772835074289
H            0.55479146632338       -2.70090871313978        3.34726554287290
H            0.55237607484143        2.64218279704451        3.39531298184886
H            1.13592925946988        4.73135009241353        2.21353245156794
H            2.05393801763570        4.61045189469803       -0.08987844168416
H            2.37379779686266        2.42236990807966       -1.15849452528796
H           -1.59209703393226       -2.32897566494018       -0.13918116695318
H           -2.55897797072652       -4.41805810180273        0.70207098284514
H           -4.99152628355989       -4.56356124855658        1.15737879398390
H           -6.41929272178906       -2.58080009335879        0.76989678275353
H           -6.41844400885881        2.56858682536586        0.81011682735355
H           -4.99014913098786        4.54479247876329        1.22764987532726
H           -2.55757417287610        4.40547231457296        0.77065276292190
H           -1.59111724349573        2.32888657578136       -0.10161448667922

          :  Hamiltonian                  GFN2-xTB          :
         :: gradient norm              0.000033898068 Eh/a0 ::
         :: HOMO-LUMO gap              1.033072530252 eV    ::
         :: SCC energy              -116.019710282911 Eh    ::
         :: -> dispersion             -0.124106906715 Eh    ::
         :: -> Gsolv                  -0.043095738087 Eh    ::
         :: repulsion energy           2.087462539594 Eh    ::

    * Orbital Energies and Occupations

         #    Occupation            Energy/Eh            Energy/eV
      -------------------------------------------------------------
         1        2.0000           -0.7249689             -19.7274
       ...           ...                  ...                  ...
        96        2.0000           -0.4169854             -11.3467
        97        2.0000           -0.4137200             -11.2579
        98        2.0000           -0.4124377             -11.2230
        99        2.0000           -0.4121345             -11.2148
       100        2.0000           -0.4076728             -11.0933
       101        2.0000           -0.4050273             -11.0214
       102        2.0000           -0.4004879             -10.8978
       103        2.0000           -0.3881091             -10.5610
       104        1.9997           -0.3632784              -9.8853
       105        1.9997           -0.3631323              -9.8813
       106        1.9986           -0.3616548              -9.8411
       107        1.0020           -0.3495521              -9.5118
       108        1.0000           -0.3172696              -8.6333 (HOMO)
       109                         -0.2793049              -7.6003 (LUMO)
       110                         -0.2432477              -6.6191
       111                         -0.2417158              -6.5774
       112                         -0.2348692              -6.3911
       113                         -0.2344433              -6.3795
       114                         -0.2336514              -6.3580
       115                         -0.2336419              -6.3577
       116                         -0.2302722              -6.2660
       117                         -0.2274768              -6.1900
       118                         -0.2242053              -6.1009
       119                         -0.2044720              -5.5640
       ...                                ...                  ...
       220                          0.7363959              20.0384
      -------------------------------------------------------------
                  HL-Gap            0.0379648 Eh            1.0331 eV

     #   Z          covCN         q      C6AA      α(0)
     1   6 C        2.895    -0.037    28.910     8.816
     2   6 C        2.921    -0.032    28.801     8.801
     3   6 C        3.920     0.029    20.018     6.359
     4   6 C        2.910    -0.030    28.751     8.792
     5   6 C        3.064    -0.004    28.061     8.687
     6   6 C        3.074    -0.002    28.008     8.677
     7   6 C        2.993    -0.058    29.420     8.897
     8   6 C        3.087     0.003    27.866     8.653
     9   6 C        3.065    -0.029    28.657     8.778
    10   6 C        3.920     0.030    20.013     6.358
    11   6 C        3.085     0.003    27.860     8.653
    12   6 C        3.069    -0.008    28.137     8.698
    13   6 C        2.909    -0.024    28.603     8.770
    14   6 C        2.918    -0.029    28.734     8.790
    15   6 C        2.917    -0.030    28.760     8.794
    16   6 C        2.909    -0.026    28.654     8.777
    17   6 C        3.079    -0.001    27.973     8.671
    18   6 C        2.998    -0.038    28.922     8.822
    19   6 C        3.069    -0.002    28.015     8.679
    20   6 C        2.903    -0.045    29.106     8.846
    21   6 C        3.007     0.007    27.858     8.658
    22   6 C        2.931    -0.033    28.832     8.806
    23   6 C        2.918    -0.035    28.864     8.810
    24   6 C        2.920    -0.030    28.741     8.791
    25   6 C        2.994    -0.039    28.952     8.826
    26   6 C        2.970     0.047    26.941     8.514
    27  16 S        2.148    -0.155   147.588    20.447
    28   6 C        2.970     0.047    26.941     8.514
    29   6 C        2.994    -0.039    28.952     8.826
    30   6 C        2.920    -0.030    28.741     8.791
    31   6 C        2.918    -0.035    28.865     8.810
    32   6 C        2.931    -0.033    28.834     8.806
    33   6 C        3.007     0.007    27.857     8.658
    34   6 C        3.013     0.006    27.874     8.660
    35   6 C        2.927    -0.034    28.851     8.809
    36   6 C        2.918    -0.033    28.834     8.805
    37   6 C        2.920    -0.030    28.758     8.794
    38   6 C        2.979    -0.039    28.952     8.826
    39   6 C        2.972     0.047    26.949     8.515
    40  16 S        2.132    -0.163   147.959    20.473
    41   6 C        2.972     0.047    26.949     8.515
    42   6 C        2.979    -0.039    28.952     8.826
    43   6 C        2.920    -0.030    28.758     8.794
    44   6 C        2.918    -0.033    28.834     8.806
    45   6 C        2.927    -0.034    28.852     8.809
    46   6 C        3.013     0.006    27.872     8.660
    47   1 H        0.925     0.032     2.559     2.501
    48   1 H        0.926     0.031     2.572     2.508
    49   1 H        0.926     0.031     2.571     2.507
    50   1 H        0.926     0.024     2.677     2.559
    51   1 H        0.926     0.029     2.600     2.522
    52   1 H        0.926     0.036     2.504     2.475
    53   1 H        0.926     0.037     2.483     2.464
    54   1 H        0.926     0.039     2.462     2.454
    55   1 H        0.926     0.039     2.458     2.452
    56   1 H        0.926     0.031     2.576     2.510
    57   1 H        0.926     0.037     2.486     2.466
    58   1 H        0.926     0.040     2.452     2.449
    59   1 H        0.926     0.043     2.415     2.430
    60   1 H        0.926     0.043     2.414     2.430
    61   1 H        0.926     0.043     2.414     2.430
    62   1 H        0.926     0.043     2.415     2.430
    63   1 H        0.926     0.040     2.452     2.449
    64   1 H        0.926     0.037     2.485     2.465
    65   1 H        0.926     0.036     2.507     2.476
    66   1 H        0.926     0.041     2.440     2.442
    67   1 H        0.926     0.044     2.400     2.423
    68   1 H        0.926     0.045     2.388     2.417
    69   1 H        0.926     0.045     2.388     2.417
    70   1 H        0.926     0.044     2.400     2.423
    71   1 H        0.926     0.041     2.440     2.443
    72   1 H        0.926     0.036     2.508     2.476

molecular dipole:
                 x           y           z       tot (Debye)
 q only:        0.894      -0.003       0.210
   full:        1.237      -0.000       0.043       3.146

 projected vibrational frequencies (cm⁻¹)
eigval :       -0.00    -0.00    -0.00    -0.00    -0.00     0.00
eigval :        5.57    19.58    27.68    32.84    36.47    37.09
eigval :       45.86    55.28    57.83    74.09    93.24   105.10
eigval :      111.71   112.08   134.90   143.63   149.14   166.53
eigval :      186.55   193.97   207.84   232.22   243.67   246.12
eigval :      270.07   273.59   276.78   297.53   306.77   325.36
eigval :      331.31   346.63   348.61   349.80   361.74   363.72
eigval :      397.35   414.70   416.66   417.60   422.13   423.11
eigval :      434.03   443.57   450.41   469.87   470.95   485.96
eigval :      488.81   494.14   498.68   501.94   509.51   519.52
eigval :      531.98   564.04   580.88   588.58   590.70   612.06
eigval :      620.43   635.92   637.47   643.92   657.16   657.58
eigval :      670.03   676.10   681.04   682.86   689.79   699.39
eigval :      699.80   707.93   712.29   735.38   735.90   760.62
eigval :      770.82   773.05   775.97   777.48   784.44   791.88
eigval :      806.16   818.81   819.61   836.12   847.60   850.44
eigval :      878.52   878.72   879.30   879.92   880.34   891.38
eigval :      894.96   898.81   908.08   913.45   913.81   914.02
eigval :      914.67   918.66   922.65   923.64   924.09   925.25
eigval :      952.40   957.05  1010.47  1032.72  1033.41  1039.19
eigval :     1046.58  1063.54  1093.84  1095.87  1096.43  1097.59
eigval :     1098.27  1101.47  1120.62  1129.38  1145.62  1146.19
eigval :     1147.04  1154.36  1159.56  1162.03  1174.90  1175.13
eigval :     1176.00  1177.70  1179.30  1191.06  1194.11  1195.28
eigval :     1207.95  1209.61  1220.44  1220.93  1243.30  1245.54
eigval :     1248.97  1252.62  1253.08  1262.97  1279.82  1298.94
eigval :     1315.92  1319.27  1320.54  1324.23  1327.96  1352.90
eigval :     1360.59  1381.15  1387.90  1398.37  1405.70  1410.16
eigval :     1415.45  1434.16  1445.32  1448.04  1454.55  1456.27
eigval :     1461.00  1469.65  1497.28  1538.99  1562.87  1565.55
eigval :     1573.37  1574.28  1575.63  1578.83  1580.09  1586.09
eigval :     1586.78  1592.20  1606.47  1634.37  3056.64  3071.32
eigval :     3075.79  3076.80  3077.33  3077.66  3078.97  3079.42
eigval :     3081.44  3081.89  3082.12  3082.28  3083.30  3083.79
eigval :     3088.35  3088.61  3089.25  3089.66  3090.10  3091.88
eigval :     3097.44  3098.06  3098.29  3098.78  3127.81  3133.23

   temp. (K)  partition function   enthalpy   heat capacity  entropy
                                   cal/mol     cal/K/mol   cal/K/mol   J/K/mol
 298.15  VIB  0.183E+16            20630.257    134.857    125.926
         ROT  0.472E+08              888.752      2.981     38.096
         INT  0.865E+23            21519.010    137.838    164.022
         TR   0.149E+29             1481.254      4.968     45.130
         TOT                       23000.2637   142.8058   209.1525   875.0942

       T/K    H(0)-H(T)+PV         H(T)/Eh          T*S/Eh         G(T)/Eh
   ------------------------------------------------------------------------
    298.15    0.366533E-01    0.572086E+00    0.993751E-01    0.472711E+00
   ------------------------------------------------------------------------

         :::::::::::::::::::::::::::::::::::::::::::::::::::::
         ::                  THERMODYNAMIC                  ::
         :::::::::::::::::::::::::::::::::::::::::::::::::::::
         :: total free energy        -113.459537068509 Eh   ::
         ::.................................................::
         :: total energy             -113.932247741369 Eh   ::
         :: zero point energy           0.535432537015 Eh   ::
         :: G(RRHO) w/o ZPVE           -0.062721864155 Eh   ::
         :: G(RRHO) contrib.            0.472710672859 Eh   ::
         :::::::::::::::::::::::::::::::::::::::::::::::::::::

           -------------------------------------------------
          | TOTAL ENERGY             -113.932247741369 Eh   |
          | TOTAL ENTHALPY           -113.360161951098 Eh   |
          | TOTAL FREE ENERGY        -113.459537068509 Eh   |
          | GRADIENT NORM               0.000033955754 Eh/α |
          | HOMO-LUMO GAP               1.033073539717 eV   |
           -------------------------------------------------

 * finished run on 2025/09/08 at 20:29:27.842
