   * xtb version 6.7.1 (edcfbbe) compiled by 'albert@albert-system' on 2024-07-22

   ID    Z sym.   atoms
    1    6 C      1-26, 28-39, 41-46
    2   16 S      27, 40
    3    1 H      47-72

          program call               : xtb data2507/toluene/[2,1-b]IF/[2,1-b]IF_toluene_S0_crest.xyz --gfn 2 --gbsa toluene --ohess vtight --parallel 40 --molden --ceasefiles --namespace data2507/toluene/[2,1-b]IF/[2,1-b]IF_toluene_S0_finalOpt
      * Solvation model:               GBSA
        Solvent                        toluene
        Solvent mass                       9.2140E+01 g/mol
          :  Hamiltonian                  GFN2-xTB          :
 * total energy  :  -113.9562753 Eh     change       -0.2889720E-08 Eh
 * total energy  :  -113.9563406 Eh     change       -0.6522675E-04 Eh
 * total energy  :  -113.9564081 Eh     change       -0.6753963E-04 Eh
 * total energy  :  -113.9564406 Eh     change       -0.3253619E-04 Eh
 * total energy  :  -113.9564984 Eh     change       -0.5771826E-04 Eh
 * total energy  :  -113.9565622 Eh     change       -0.6382036E-04 Eh
 * total energy  :  -113.9565976 Eh     change       -0.3544120E-04 Eh
 * total energy  :  -113.9566299 Eh     change       -0.3228945E-04 Eh
 * total energy  :  -113.9566591 Eh     change       -0.2916039E-04 Eh
 * total energy  :  -113.9566784 Eh     change       -0.1931964E-04 Eh
 * total energy  :  -113.9567019 Eh     change       -0.4537053E-05 Eh
 * total energy  :  -113.9567069 Eh     change       -0.5033402E-05 Eh
 * total energy  :  -113.9567112 Eh     change       -0.4231308E-05 Eh
 * total energy  :  -113.9567132 Eh     change       -0.2074736E-05 Eh
 * total energy  :  -113.9567140 Eh     change       -0.7787883E-06 Eh
 * total energy  :  -113.9567145 Eh     change       -0.5013559E-06 Eh
 * total energy  :  -113.9567150 Eh     change       -0.5201044E-06 Eh
 * total energy  :  -113.9567155 Eh     change       -0.4511355E-06 Eh
 * total energy  :  -113.9567155 Eh     change       -0.7578919E-08 Eh
   *** GEOMETRY OPTIMIZATION CONVERGED AFTER 22 ITERATIONS ***

 final structure:
================
72
 xtb: 6.7.1 (edcfbbe)
C           -2.25151838137221        0.02980906910610       -3.19543418986336
C           -3.16332475857923        0.01727025753219       -2.21693817178174
C           -2.82088511527990        0.00444680045231       -0.74601717607780
C           -1.35083426579745        0.00111577656156       -0.47959544300352
C           -0.44925810668248        0.01254544880512       -1.47358230810375
C           -0.85603649910770        0.02948829377188       -2.88700910415843
C            0.26299959792545        0.04271407099018       -3.65424376866618
C            1.41996033563938        0.03430240001183       -2.77996055658297
C            0.99007901435072        0.01489591347521       -1.46260800168674
C            1.89700358099440        0.00216043138933       -0.27124698542681
C            3.33048439338661        0.00949938593929       -0.71934528622197
C            4.47979286415373       -0.00068901674541        0.02778367441268
C            4.71516874361687       -0.02465439034184        1.42722830722456
C            5.99284185107620       -0.02959656197054        1.88361343422760
C            7.10319063171128       -0.01068793492467        0.98835701903094
C            6.93293033607389        0.01223356335894       -0.35890028210467
C            5.61961116365088        0.01751840722724       -0.89275846820569
C            5.15070104332023        0.03746185169202       -2.18506007275674
C            3.72384843876275        0.03270139768956       -2.12656153578890
C            2.79195211051519        0.04423678146922       -3.12764514936946
C            1.64541825643345       -1.29964066258106        0.47495845196117
C            1.98171703726874       -2.47610945422087       -0.19204890847126
C            1.80078724477026       -3.71623990452084        0.38625965503444
C            1.27510001419331       -3.80812152228934        1.66643503223357
C            0.93108940682136       -2.65727212344002        2.34186515318576
C            1.10963611754426       -1.40805084009612        1.74947138249355
S            0.59497588871473       -0.03005082255203        2.72751208927419
C            1.10505110141279        1.36904668982774        1.77747625808589
C            0.92134699488714        2.60559323361048        2.39440634929346
C            1.26124724709796        3.77094604857965        1.74218905633813
C            1.78799268217531        3.70651923623606        0.46076461343402
C            1.97399321856499        2.47884547907059       -0.14194026611698
C            1.64175443371386        1.28809507296512        0.50134241935638
C           -3.43552628963089       -1.25776184596679       -0.14965821040823
C           -2.64505522610703       -2.37774897444329        0.08401646489711
C           -3.19363052558823       -3.55584397118356        0.55735692505950
C           -4.55448198886992       -3.63824103976176        0.80329921040818
C           -5.35540961171129       -2.53611083021286        0.58019162510086
C           -4.79863614040936       -1.35397812273932        0.10636099860452
S           -5.90043837594315        0.00425429429954       -0.16221180320795
C           -4.79567051392022        1.35664826017789        0.12296700568716
C           -5.35015494258519        2.53446746836848        0.61006481052441
C           -4.54707947047386        3.63239540821701        0.84577989405393
C           -3.18625068027505        3.54981928409679        0.59985486525029
C           -2.63983083772747        2.37593947634682        0.11370069137209
C           -3.43260082235273        1.26051386653781       -0.13330296909632
H           -2.55396573186000        0.03996040785516       -4.23307765582643
H           -4.21895277590762        0.01770215259578       -2.44453729954725
H           -1.06374751640859       -0.00947089403382        0.56210610711671
H            0.31718639899769        0.05710030308841       -4.72739499452572
H            3.87761943155463       -0.03890599659052        2.11050541475519
H            6.19360154305571       -0.04781358508772        2.94579022417975
H            8.09820654993153       -0.01515668691817        1.41177220006326
H            7.77927109563948        0.02613175464994       -1.03190814932180
H            5.73265277724571        0.05348292897280       -3.08766921555635
H            3.08418630397732        0.06014889387516       -4.16884653981068
H            2.39790020241496       -2.40307551135426       -1.18615578047182
H            2.07113083468201       -4.60797347464033       -0.15860360210671
H            1.13269004284275       -4.77034613141566        2.13441719306140
H            0.51607857037164       -2.70278518773749        3.33804647005218
H            0.50545011805850        2.62974724903349        3.39096131397465
H            1.11457207068604        4.72319542485966        2.22886231024743
H            2.05495066718065        4.60993445889845       -0.06622567909348
H            2.39073734810132        2.42715672970922       -1.13715560455862
H           -1.58602879378651       -2.32987390731493       -0.12310147333588
H           -2.55666911836495       -4.41067470389546        0.72537917459283
H           -4.99103232072474       -4.55537447480022        1.16837518018215
H           -6.41825267501864       -2.57576700173657        0.76572421837348
H           -6.41304000644886        2.57435350782830        0.79531068208977
H           -4.98193099653661        4.54635102555690        1.22070534179264
H           -2.54759030118095        4.40135973015726        0.77779754038585
H           -1.58069391905935        2.32809446742479       -0.09284919746215

          :  Hamiltonian                  GFN2-xTB          :
         :: gradient norm              0.000056409363 Eh/a0 ::
         :: HOMO-LUMO gap              0.583143338328 eV    ::
         :: SCC energy              -116.054304653649 Eh    ::
         :: -> dispersion             -0.124195727077 Eh    ::
         :: -> Gsolv                  -0.043909468461 Eh    ::
         :: repulsion energy           2.097589165131 Eh    ::

    * Orbital Energies and Occupations

         #    Occupation            Energy/Eh            Energy/eV
      -------------------------------------------------------------
         1        2.0000           -0.7259760             -19.7548
       ...           ...                  ...                  ...
        95        2.0000           -0.4173044             -11.3554
        96        2.0000           -0.4165897             -11.3360
        97        2.0000           -0.4137887             -11.2598
        98        2.0000           -0.4119230             -11.2090
        99        2.0000           -0.4107321             -11.1766
       100        2.0000           -0.4088740             -11.1260
       101        2.0000           -0.4072661             -11.0823
       102        2.0000           -0.4009759             -10.9111
       103        2.0000           -0.3886845             -10.5766
       104        2.0000           -0.3663353              -9.9685
       105        2.0000           -0.3660639              -9.9611
       106        2.0000           -0.3641931              -9.9102
       107        2.0000           -0.3400087              -9.2521 (HOMO)
       108        0.0000           -0.3185784              -8.6690 (LUMO)
       109                         -0.2856711              -7.7735
       110                         -0.2456460              -6.6844
       111                         -0.2437010              -6.6314
       112                         -0.2374739              -6.4620
       113                         -0.2371276              -6.4526
       114                         -0.2352118              -6.4004
       115                         -0.2342663              -6.3747
       116                         -0.2337253              -6.3600
       117                         -0.2249656              -6.1216
       118                         -0.2208987              -6.0110
       ...                                ...                  ...
       220                          0.7378851              20.0789
      -------------------------------------------------------------
                  HL-Gap            0.0214303 Eh            0.5831 eV

     #   Z          covCN         q      C6AA      α(0)
     1   6 C        2.895    -0.035    28.862     8.808
     2   6 C        2.920    -0.032    28.792     8.799
     3   6 C        3.921     0.030    20.002     6.356
     4   6 C        2.911    -0.004    28.134     8.698
     5   6 C        3.074     0.002    27.893     8.659
     6   6 C        3.069    -0.001    27.979     8.673
     7   6 C        2.996    -0.055    29.363     8.889
     8   6 C        3.094     0.005    27.792     8.640
     9   6 C        3.065    -0.003    28.027     8.681
    10   6 C        3.920     0.029    20.023     6.360
    11   6 C        3.063    -0.030    28.694     8.784
    12   6 C        3.075    -0.014    28.271     8.718
    13   6 C        2.903    -0.035    28.869     8.810
    14   6 C        2.914    -0.037    28.932     8.820
    15   6 C        2.915    -0.033    28.820     8.803
    16   6 C        2.903    -0.040    28.990     8.828
    17   6 C        3.099     0.000    27.901     8.656
    18   6 C        2.974    -0.083    30.067     8.994
    19   6 C        3.103     0.006    27.760     8.633
    20   6 C        2.903    -0.011    28.297     8.722
    21   6 C        3.008     0.008    27.822     8.652
    22   6 C        2.931    -0.034    28.835     8.806
    23   6 C        2.918    -0.035    28.864     8.810
    24   6 C        2.920    -0.030    28.750     8.793
    25   6 C        2.995    -0.039    28.959     8.827
    26   6 C        2.970     0.046    26.970     8.518
    27  16 S        2.148    -0.155   147.599    20.448
    28   6 C        2.970     0.046    26.970     8.518
    29   6 C        2.995    -0.039    28.958     8.827
    30   6 C        2.920    -0.030    28.750     8.793
    31   6 C        2.918    -0.035    28.865     8.810
    32   6 C        2.931    -0.034    28.837     8.807
    33   6 C        3.008     0.008    27.821     8.652
    34   6 C        3.013     0.007    27.848     8.656
    35   6 C        2.926    -0.034    28.843     8.807
    36   6 C        2.919    -0.032    28.802     8.801
    37   6 C        2.920    -0.029    28.719     8.788
    38   6 C        2.979    -0.037    28.922     8.822
    39   6 C        2.972     0.047    26.935     8.513
    40  16 S        2.131    -0.154   147.533    20.443
    41   6 C        2.972     0.047    26.935     8.513
    42   6 C        2.979    -0.037    28.922     8.822
    43   6 C        2.920    -0.029    28.719     8.788
    44   6 C        2.919    -0.032    28.802     8.801
    45   6 C        2.926    -0.034    28.844     8.807
    46   6 C        3.014     0.007    27.845     8.656
    47   1 H        0.926     0.040     2.445     2.445
    48   1 H        0.926     0.040     2.454     2.449
    49   1 H        0.926     0.053     2.288     2.366
    50   1 H        0.926     0.034     2.533     2.489
    51   1 H        0.926     0.012     2.861     2.645
    52   1 H        0.926     0.019     2.754     2.595
    53   1 H        0.925     0.021     2.718     2.578
    54   1 H        0.925     0.021     2.717     2.578
    55   1 H        0.926     0.015     2.816     2.624
    56   1 H        0.925     0.046     2.366     2.406
    57   1 H        0.926     0.037     2.493     2.469
    58   1 H        0.926     0.040     2.450     2.448
    59   1 H        0.926     0.043     2.411     2.428
    60   1 H        0.926     0.043     2.408     2.427
    61   1 H        0.926     0.043     2.408     2.427
    62   1 H        0.926     0.043     2.411     2.428
    63   1 H        0.926     0.040     2.450     2.448
    64   1 H        0.926     0.037     2.492     2.469
    65   1 H        0.926     0.036     2.499     2.472
    66   1 H        0.926     0.043     2.406     2.426
    67   1 H        0.926     0.046     2.368     2.406
    68   1 H        0.926     0.048     2.350     2.397
    69   1 H        0.926     0.048     2.350     2.397
    70   1 H        0.926     0.046     2.367     2.406
    71   1 H        0.926     0.043     2.406     2.426
    72   1 H        0.926     0.036     2.500     2.472

molecular dipole:
                 x           y           z       tot (Debye)
 q only:       -1.498       0.003      -0.292
   full:       -1.012       0.005      -0.398       2.763

 projected vibrational frequencies (cm⁻¹)
eigval :       -0.00    -0.00    -0.00     0.00     0.00     0.00
eigval :        4.36    20.57    32.31    34.31    37.54    38.85
eigval :       47.14    58.56    59.52    71.24    93.47   105.60
eigval :      112.70   113.21   137.12   145.50   150.68   166.48
eigval :      187.19   193.89   208.42   232.00   235.61   245.84
eigval :      261.99   269.59   276.90   299.71   307.46   325.84
eigval :      327.85   341.49   350.26   361.26   362.15   363.90
eigval :      402.33   415.36   418.07   420.19   422.06   426.96
eigval :      433.73   443.38   451.85   471.02   472.44   484.93
eigval :      487.94   490.34   495.61   503.49   513.82   517.89
eigval :      530.66   561.83   581.73   588.84   589.37   611.99
eigval :      630.09   637.83   646.87   648.15   658.53   662.48
eigval :      669.79   680.99   682.56   683.13   695.64   699.91
eigval :      701.79   713.19   713.29   733.81   735.23   766.18
eigval :      772.33   772.96   775.74   778.87   791.39   809.04
eigval :      819.14   829.55   848.80   852.08   856.00   866.98
eigval :      877.42   878.80   879.28   879.72   880.02   900.28
eigval :      901.34   904.53   913.62   913.86   914.63   915.25
eigval :      915.69   919.67   923.82   924.25   925.40   926.28
eigval :      942.88   955.34   999.62  1031.48  1032.16  1033.54
eigval :     1041.78  1046.00  1088.26  1096.44  1097.10  1097.70
eigval :     1098.62  1122.11  1124.84  1134.62  1142.13  1146.95
eigval :     1147.84  1154.84  1158.68  1164.93  1175.74  1175.76
eigval :     1176.69  1178.01  1179.13  1192.14  1193.89  1198.34
eigval :     1207.04  1215.05  1221.90  1222.67  1246.69  1247.65
eigval :     1250.58  1253.59  1254.52  1274.30  1308.60  1315.51
eigval :     1319.93  1321.12  1324.32  1325.58  1341.85  1346.73
eigval :     1355.40  1393.68  1398.63  1405.20  1405.35  1410.92
eigval :     1415.20  1429.20  1445.02  1456.11  1457.64  1462.68
eigval :     1497.73  1540.20  1564.93  1565.65  1568.63  1574.49
eigval :     1576.34  1576.78  1577.88  1582.11  1585.00  1588.56
eigval :     1602.78  1611.28  1625.83  1656.12  3055.10  3059.19
eigval :     3066.36  3066.87  3067.25  3077.75  3078.51  3079.81
eigval :     3079.99  3080.24  3080.59  3082.10  3082.88  3084.56
eigval :     3084.78  3086.51  3089.34  3089.86  3092.30  3092.66
eigval :     3098.46  3098.98  3100.72  3101.17  3134.81  3137.64

   temp. (K)  partition function   enthalpy   heat capacity  entropy
                                   cal/mol     cal/K/mol   cal/K/mol   J/K/mol
 298.15  VIB  0.154E+16            20565.402    134.634    125.788
         ROT  0.471E+08              888.752      2.981     38.090
         INT  0.723E+23            21454.154    137.614    163.878
         TR   0.149E+29             1481.254      4.968     45.130
         TOT                       22935.4083   142.5826   209.0087   874.4924

       T/K    H(0)-H(T)+PV         H(T)/Eh          T*S/Eh         G(T)/Eh
   ------------------------------------------------------------------------
    298.15    0.365499E-01    0.573390E+00    0.993068E-01    0.474083E+00
   ------------------------------------------------------------------------

         :::::::::::::::::::::::::::::::::::::::::::::::::::::
         ::                  THERMODYNAMIC                  ::
         :::::::::::::::::::::::::::::::::::::::::::::::::::::
         :: total free energy        -113.482632394069 Eh   ::
         ::.................................................::
         :: total energy             -113.956715487682 Eh   ::
         :: zero point energy           0.536839975790 Eh   ::
         :: G(RRHO) w/o ZPVE           -0.062756882177 Eh   ::
         :: G(RRHO) contrib.            0.474083093613 Eh   ::
         :::::::::::::::::::::::::::::::::::::::::::::::::::::

           -------------------------------------------------
          | TOTAL ENERGY             -113.956715487682 Eh   |
          | TOTAL ENTHALPY           -113.383325612278 Eh   |
          | TOTAL FREE ENERGY        -113.482632394069 Eh   |
          | GRADIENT NORM               0.000056458585 Eh/α |
          | HOMO-LUMO GAP               0.583146788870 eV   |
           -------------------------------------------------

 * finished run on 2025/09/08 at 20:29:22.268
