   * xtb version 6.7.1 (edcfbbe) compiled by 'albert@albert-system' on 2024-07-22

   ID    Z sym.   atoms
    1    6 C      1-26, 28-39, 41-46
    2   16 S      27, 40
    3    1 H      47-72

          program call               : xtb data2507/toluene/[2,1-b]IF/[2,1-b]IF.xyz --gfn 2 --gbsa toluene --ohess vtight --parallel 40 --molden --ceasefiles --namespace data2507/toluene/[2,1-b]IF/[2,1-b]IF_toluene_S0_preOpt
      * Solvation model:               GBSA
        Solvent                        toluene
        Solvent mass                       9.2140E+01 g/mol
          :  Hamiltonian                  GFN2-xTB          :
 * total energy  :  -113.9289780 Eh     change       -0.1723507E-08 Eh
 * total energy  :  -113.9468074 Eh     change       -0.1782943E-01 Eh
 * total energy  :  -113.9523593 Eh     change       -0.5551850E-02 Eh
 * total energy  :  -113.9535160 Eh     change       -0.1156720E-02 Eh
 * total energy  :  -113.9543357 Eh     change       -0.8197060E-03 Eh
 * total energy  :  -113.9547914 Eh     change       -0.4556356E-03 Eh
 * total energy  :  -113.9551759 Eh     change       -0.3845750E-03 Eh
 * total energy  :  -113.9554919 Eh     change       -0.3159653E-03 Eh
 * total energy  :  -113.9556790 Eh     change       -0.1870603E-03 Eh
 * total energy  :  -113.9557475 Eh     change       -0.6852213E-04 Eh
 * total energy  :  -113.9566920 Eh     change       -0.1189960E-04 Eh
 * total energy  :  -113.9567028 Eh     change       -0.1081269E-04 Eh
 * total energy  :  -113.9567092 Eh     change       -0.6351203E-05 Eh
 * total energy  :  -113.9567117 Eh     change       -0.2457568E-05 Eh
 * total energy  :  -113.9567127 Eh     change       -0.9976137E-06 Eh
 * total energy  :  -113.9567131 Eh     change       -0.4903289E-06 Eh
 * total energy  :  -113.9567134 Eh     change       -0.2266896E-06 Eh
 * total energy  :  -113.9567135 Eh     change       -0.1012162E-06 Eh
 * total energy  :  -113.9567135 Eh     change       -0.4385920E-07 Eh
   *** GEOMETRY OPTIMIZATION CONVERGED AFTER 33 ITERATIONS ***

 final structure:
================
72
 xtb: 6.7.1 (edcfbbe)
C           -2.47133767634254        0.00001353108773       -3.15376392558760
C           -3.38374260323693        0.00002353833787       -2.17568280217513
C           -3.04247893062458       -0.00000108615239       -0.70442360654706
C           -1.57258784506944       -0.00020246922065       -0.43713837446952
C           -0.67057999802851       -0.00015932012593       -1.43076821706587
C           -1.07598417587028        0.00002572890078       -2.84463885861579
C            0.04389198368790       -0.00003171928572       -3.61086909942084
C            1.20010185798095       -0.00008426017673       -2.73537149928732
C            0.76860554368807       -0.00001256957437       -1.41847284710681
C            1.67338366677365        0.00001725255765       -0.22569205783768
C            3.10749587519293        0.00000703202728       -0.67136935917261
C            4.25537161841420       -0.00000120160029        0.07790608726843
C            4.48805776088311        0.00000686853104        1.47799874515305
C            5.76484950345977        0.00002814527549        1.93682115169189
C            6.87681971272483       -0.00000205960763        1.04340110274446
C            6.70908683970592       -0.00004809268148       -0.30438349941518
C            5.39678383266173       -0.00003123505612       -0.84081154235026
C            4.93010346299563       -0.00002528902174       -2.13410918406283
C            3.50308347079042       -0.00011747505914       -2.07812848512426
C            2.57277555616472       -0.00018022081789       -3.08085537638487
C            1.41890013277008       -1.29402529754791        0.53298422205506
C            1.74725351726393       -2.47764440197836       -0.12525455059040
C            1.56302369206171       -3.71189231532894        0.46439972952993
C            1.04215142921181       -3.79026216191683        1.74744647258418
C            0.70621283218137       -2.63210310600126        2.41436411662601
C            0.88801838766161       -1.38878285793968        1.81057656059517
S            0.38407608757108        0.00008838869340        2.77872712545256
C            0.88801178131423        1.38891005925141        1.81050205031822
C            0.70622526744839        2.63226016795882        2.41423021566417
C            1.04217628754075        3.79038175977085        1.74725365648713
C            1.56304487809268        3.71194357348725        0.46420844886521
C            1.74725716398166        2.47766659723198       -0.12538517357294
C            1.41888788319872        1.29408994134944        0.53291390555131
C           -3.65592529350924       -1.25901055604881       -0.09971760799165
C           -2.86433418594339       -2.37645274213608        0.14201086413284
C           -3.41181003816977       -3.55166923171766        0.62374621110550
C           -4.77256370261246       -3.63374832780266        0.87025746693339
C           -5.57460615806650       -2.53409670299902        0.63908036627380
C           -5.01900766738475       -1.35497248611412        0.15653343479645
S           -6.12226067443215       -0.00001389669745       -0.12234143142444
C           -5.01902387201732        1.35495278847557        0.15656141993475
C           -5.57463934831933        2.53404738495513        0.63915867419608
C           -4.77261492694650        3.63370294824567        0.87037424447792
C           -3.41186401404216        3.55165916687524        0.62385595881651
C           -2.86437046733038        2.37647095608403        0.14208501340044
C           -3.65593362959317        1.25900650528221       -0.09967869950038
H           -2.77335699606101       -0.00001539711873       -4.19158518465544
H           -4.43920417669532        0.00006876720039       -2.40409220390100
H           -1.28563614840412       -0.00001600554416        0.60468971426054
H            0.09920139986656       -0.00012008887008       -4.68406289001539
H            3.64928639693093        0.00005932174662        2.15989359786790
H            5.96357064579165        0.00010468635000        2.99953631785929
H            7.87104741259909        0.00005460196725        1.46868649814917
H            7.55680104040798       -0.00003431558769       -0.97580513367327
H            5.51365106416051       -0.00004015803985       -3.03583229749252
H            2.86685659629761       -0.00007702068960       -4.12165640635401
H            2.15969342781738       -2.41491849827894       -1.12164160926187
H            1.82688021781777       -4.60954305443737       -0.07389859406357
H            0.89711174464151       -4.74779857051958        2.22414100909729
H            0.29512921802978       -2.66722007561416        3.41258132740154
H            0.29513340837908        2.66742956070529        3.41244162349534
H            0.89712624216896        4.74794393078321        2.22389130779711
H            1.82690778458757        4.60956265356253       -0.07413851776212
H            2.15971356105572        2.41488138730665       -1.12176113653445
H           -1.80524154048561       -2.32898384887314       -0.06492073733492
H           -2.77401109850480       -4.40465380735989        0.79779775112776
H           -5.20815482051016       -4.54858148810041        1.24218577043048
H           -6.63743587843865       -2.57338982038872        0.82478554530801
H           -6.63746732977838        2.57331238421504        0.82487697444204
H           -5.20821998495506        4.54851790927093        1.24232685685035
H           -2.77408138610562        4.40465512483162        0.79791093832460
H           -1.80528661849489        2.32906556971356       -0.06489256830688

          :  Hamiltonian                  GFN2-xTB          :
         :: gradient norm              0.000107384123 Eh/a0 ::
         :: HOMO-LUMO gap              0.582884033376 eV    ::
         :: SCC energy              -116.054354603915 Eh    ::
         :: -> dispersion             -0.124199449816 Eh    ::
         :: -> Gsolv                  -0.043899741759 Eh    ::
         :: repulsion energy           2.097641060215 Eh    ::

    * Orbital Energies and Occupations

         #    Occupation            Energy/Eh            Energy/eV
      -------------------------------------------------------------
         1        2.0000           -0.7259523             -19.7542
       ...           ...                  ...                  ...
        95        2.0000           -0.4173080             -11.3555
        96        2.0000           -0.4165790             -11.3357
        97        2.0000           -0.4137594             -11.2590
        98        2.0000           -0.4119519             -11.2098
        99        2.0000           -0.4107646             -11.1775
       100        2.0000           -0.4088994             -11.1267
       101        2.0000           -0.4072709             -11.0824
       102        2.0000           -0.4009492             -10.9104
       103        2.0000           -0.3886997             -10.5771
       104        2.0000           -0.3663612              -9.9692
       105        2.0000           -0.3660813              -9.9616
       106        2.0000           -0.3641587              -9.9093
       107        2.0000           -0.3400087              -9.2521 (HOMO)
       108        0.0000           -0.3185882              -8.6692 (LUMO)
       109                         -0.2857019              -7.7743
       110                         -0.2456416              -6.6842
       111                         -0.2437023              -6.6315
       112                         -0.2375131              -6.4631
       113                         -0.2371309              -6.4527
       114                         -0.2352061              -6.4003
       115                         -0.2342700              -6.3748
       116                         -0.2337990              -6.3620
       117                         -0.2249178              -6.1203
       118                         -0.2209296              -6.0118
       ...                                ...                  ...
       220                          0.7378898              20.0790
      -------------------------------------------------------------
                  HL-Gap            0.0214204 Eh            0.5829 eV

     #   Z          covCN         q      C6AA      α(0)
     1   6 C        2.895    -0.035    28.862     8.808
     2   6 C        2.920    -0.032    28.792     8.799
     3   6 C        3.921     0.030    20.002     6.356
     4   6 C        2.911    -0.004    28.132     8.697
     5   6 C        3.074     0.002    27.893     8.659
     6   6 C        3.069    -0.001    27.979     8.673
     7   6 C        2.996    -0.055    29.362     8.889
     8   6 C        3.094     0.005    27.793     8.641
     9   6 C        3.065    -0.003    28.026     8.681
    10   6 C        3.920     0.029    20.023     6.360
    11   6 C        3.063    -0.030    28.692     8.784
    12   6 C        3.075    -0.014    28.272     8.718
    13   6 C        2.903    -0.035    28.869     8.810
    14   6 C        2.914    -0.037    28.932     8.820
    15   6 C        2.915    -0.033    28.820     8.803
    16   6 C        2.903    -0.040    28.990     8.828
    17   6 C        3.099     0.000    27.901     8.656
    18   6 C        2.974    -0.083    30.066     8.994
    19   6 C        3.103     0.006    27.761     8.634
    20   6 C        2.903    -0.011    28.298     8.722
    21   6 C        3.008     0.008    27.821     8.652
    22   6 C        2.931    -0.034    28.837     8.807
    23   6 C        2.918    -0.035    28.865     8.810
    24   6 C        2.920    -0.030    28.750     8.793
    25   6 C        2.995    -0.039    28.959     8.827
    26   6 C        2.970     0.046    26.969     8.518
    27  16 S        2.148    -0.155   147.598    20.448
    28   6 C        2.970     0.046    26.969     8.518
    29   6 C        2.995    -0.039    28.959     8.827
    30   6 C        2.920    -0.030    28.750     8.793
    31   6 C        2.918    -0.035    28.865     8.810
    32   6 C        2.931    -0.034    28.837     8.807
    33   6 C        3.008     0.008    27.821     8.652
    34   6 C        3.014     0.007    27.847     8.656
    35   6 C        2.926    -0.034    28.843     8.807
    36   6 C        2.919    -0.032    28.802     8.801
    37   6 C        2.920    -0.029    28.719     8.788
    38   6 C        2.979    -0.037    28.922     8.822
    39   6 C        2.972     0.047    26.935     8.513
    40  16 S        2.131    -0.154   147.538    20.443
    41   6 C        2.972     0.047    26.935     8.513
    42   6 C        2.979    -0.037    28.922     8.822
    43   6 C        2.920    -0.029    28.719     8.788
    44   6 C        2.919    -0.032    28.802     8.801
    45   6 C        2.926    -0.034    28.843     8.807
    46   6 C        3.014     0.007    27.847     8.656
    47   1 H        0.926     0.040     2.444     2.445
    48   1 H        0.926     0.040     2.453     2.449
    49   1 H        0.926     0.052     2.291     2.367
    50   1 H        0.926     0.034     2.533     2.489
    51   1 H        0.926     0.012     2.859     2.644
    52   1 H        0.926     0.019     2.754     2.595
    53   1 H        0.925     0.021     2.718     2.578
    54   1 H        0.925     0.021     2.717     2.578
    55   1 H        0.926     0.015     2.816     2.624
    56   1 H        0.925     0.046     2.366     2.406
    57   1 H        0.926     0.037     2.493     2.469
    58   1 H        0.926     0.040     2.450     2.448
    59   1 H        0.926     0.043     2.411     2.428
    60   1 H        0.926     0.043     2.408     2.427
    61   1 H        0.926     0.043     2.408     2.427
    62   1 H        0.926     0.043     2.411     2.428
    63   1 H        0.926     0.040     2.450     2.448
    64   1 H        0.926     0.037     2.493     2.469
    65   1 H        0.926     0.036     2.499     2.472
    66   1 H        0.926     0.043     2.406     2.426
    67   1 H        0.926     0.046     2.367     2.406
    68   1 H        0.926     0.048     2.350     2.397
    69   1 H        0.926     0.048     2.350     2.397
    70   1 H        0.926     0.046     2.367     2.406
    71   1 H        0.926     0.043     2.406     2.426
    72   1 H        0.926     0.036     2.499     2.472

molecular dipole:
                 x           y           z       tot (Debye)
 q only:       -1.501       0.000      -0.295
   full:       -1.016      -0.000      -0.402       2.777

 projected vibrational frequencies (cm⁻¹)
eigval :       -0.00    -0.00    -0.00    -0.00     0.00     0.00
eigval :       -2.39    18.84    32.00    33.70    37.51    38.81
eigval :       47.18    57.99    59.53    70.03    93.59   105.27
eigval :      112.63   112.85   136.49   145.53   150.94   166.56
eigval :      186.85   193.39   208.43   232.11   235.47   245.63
eigval :      261.87   269.50   277.00   299.44   307.48   325.81
eigval :      327.77   341.33   350.46   360.85   362.15   363.08
eigval :      402.32   415.50   417.91   420.13   422.20   426.69
eigval :      433.28   443.31   451.83   470.58   472.50   484.94
eigval :      487.95   490.30   495.51   503.28   513.58   517.81
eigval :      530.73   561.73   581.78   588.73   589.39   612.01
eigval :      630.14   637.87   646.78   648.10   658.54   662.58
eigval :      669.81   681.04   682.58   683.07   695.42   700.07
eigval :      701.73   713.01   713.21   732.37   735.24   765.30
eigval :      771.97   773.12   775.89   777.93   791.64   809.43
eigval :      819.09   829.54   848.35   852.02   855.76   868.73
eigval :      877.20   878.27   879.29   879.59   879.91   900.11
eigval :      901.17   904.59   913.78   914.16   914.33   914.89
eigval :      915.23   919.98   923.99   924.13   924.35   926.33
eigval :      942.99   955.36   999.47  1031.56  1032.10  1033.62
eigval :     1041.84  1046.05  1088.17  1096.55  1097.16  1097.49
eigval :     1098.38  1122.10  1124.95  1134.62  1142.06  1146.93
eigval :     1147.88  1154.93  1158.68  1165.01  1175.79  1175.83
eigval :     1177.08  1177.64  1179.33  1192.22  1193.98  1198.33
eigval :     1206.98  1215.05  1221.81  1222.79  1246.67  1247.72
eigval :     1250.13  1253.07  1254.59  1274.25  1308.96  1315.51
eigval :     1319.93  1321.28  1324.40  1325.72  1341.81  1346.83
eigval :     1355.35  1393.80  1398.72  1405.28  1405.50  1411.02
eigval :     1415.26  1429.02  1445.02  1456.11  1457.68  1462.71
eigval :     1497.80  1540.12  1565.00  1565.67  1568.45  1574.50
eigval :     1576.48  1576.93  1577.89  1582.19  1585.00  1588.63
eigval :     1602.61  1611.21  1625.46  1656.25  3055.10  3059.29
eigval :     3066.41  3066.87  3067.29  3077.74  3078.13  3079.80
eigval :     3080.03  3080.26  3080.44  3082.27  3082.51  3084.56
eigval :     3084.77  3086.41  3089.45  3089.70  3092.36  3092.72
eigval :     3098.38  3098.89  3100.75  3101.21  3134.56  3137.68

   temp. (K)  partition function   enthalpy   heat capacity  entropy
                                   cal/mol     cal/K/mol   cal/K/mol   J/K/mol
 298.15  VIB  0.322E+16            20579.173    134.607    126.528
         ROT  0.471E+08              888.752      2.981     38.090
         INT  0.152E+24            21467.926    137.588    164.618
         TR   0.149E+29             1481.254      4.968     45.130
         TOT                       22949.1795   142.5557   209.7479   877.5853

       T/K    H(0)-H(T)+PV         H(T)/Eh          T*S/Eh         G(T)/Eh
   ------------------------------------------------------------------------
    298.15    0.365718E-01    0.573374E+00    0.996580E-01    0.473716E+00
   ------------------------------------------------------------------------

         :::::::::::::::::::::::::::::::::::::::::::::::::::::
         ::                  THERMODYNAMIC                  ::
         :::::::::::::::::::::::::::::::::::::::::::::::::::::
         :: total free energy        -113.482997460663 Eh   ::
         ::.................................................::
         :: total energy             -113.956713543888 Eh   ::
         :: zero point energy           0.536802239151 Eh   ::
         :: G(RRHO) w/o ZPVE           -0.063086155925 Eh   ::
         :: G(RRHO) contrib.            0.473716083225 Eh   ::
         :::::::::::::::::::::::::::::::::::::::::::::::::::::

           -------------------------------------------------
          | TOTAL ENERGY             -113.956713543888 Eh   |
          | TOTAL ENTHALPY           -113.383339459348 Eh   |
          | TOTAL FREE ENERGY        -113.482997460663 Eh   |
          | GRADIENT NORM               0.000107451748 Eh/α |
          | HOMO-LUMO GAP               0.582880101722 eV   |
           -------------------------------------------------

 * finished run on 2025/09/08 at 20:25:22.065
