   * xtb version 6.7.1 (edcfbbe) compiled by 'albert@albert-system' on 2024-07-22

   ID    Z sym.   atoms
    1    8 O      1, 10
    2    6 C      2-9, 11-13, 15-18, 20-36
    3   16 S      14
    4    7 N      19
    5    1 H      37-55

          program call               : xtb data2507/toluene/AQ-S-CZ/AQ-S-CZ_toluene_S0_finalOpt.xtbopt.xyz --gfn 2 --uhf 2 --gbsa toluene --ohess vtight --parallel 40 --molden --ceasefiles --namespace data2507/toluene/AQ-S-CZ/AQ-S-CZ_toluene_T1_preOpt
      * Solvation model:               GBSA
        Solvent                        toluene
        Solvent mass                       9.2140E+01 g/mol
          :  Hamiltonian                  GFN2-xTB          :
 * total energy  :   -92.5135411 Eh     change       -0.2150287E-08 Eh
 * total energy  :   -92.5166240 Eh     change       -0.3082860E-02 Eh
 * total energy  :   -92.5173584 Eh     change       -0.7344479E-03 Eh
 * total energy  :   -92.5174520 Eh     change       -0.9353206E-04 Eh
 * total energy  :   -92.5175604 Eh     change       -0.1084230E-03 Eh
 * total energy  :   -92.5176234 Eh     change       -0.6302070E-04 Eh
 * total energy  :   -92.5177071 Eh     change       -0.8371843E-04 Eh
 * total energy  :   -92.5177870 Eh     change       -0.7987762E-04 Eh
 * total energy  :   -92.5178355 Eh     change       -0.4852470E-04 Eh
 * total energy  :   -92.5178718 Eh     change       -0.3627764E-04 Eh
 * total energy  :   -92.5188363 Eh     change       -0.3595348E-06 Eh
 * total energy  :   -92.5188366 Eh     change       -0.2957601E-06 Eh
 * total energy  :   -92.5188368 Eh     change       -0.2434139E-06 Eh
 * total energy  :   -92.5188371 Eh     change       -0.2280096E-06 Eh
 * total energy  :   -92.5188373 Eh     change       -0.1979999E-06 Eh
 * total energy  :   -92.5188374 Eh     change       -0.1495835E-06 Eh
 * total energy  :   -92.5188375 Eh     change       -0.1135238E-06 Eh
 * total energy  :   -92.5188376 Eh     change       -0.1185888E-06 Eh
 * total energy  :   -92.5188376 Eh     change       -0.2267910E-09 Eh
   *** GEOMETRY OPTIMIZATION CONVERGED AFTER 68 ITERATIONS ***

 final structure:
================
55
 xtb: 6.7.1 (edcfbbe)
O            6.67310185232584       -0.85837975791800       -1.19785515901284
C            5.69738100064128       -0.32942950350314       -0.62515500972439
C            5.68473538294173        1.07477673872889       -0.24562809816474
C            6.81466401984009        1.85816496611159       -0.52653718068585
C            6.85002199241465        3.19105157147314       -0.19844257464718
C            5.75035174934827        3.78663863453791        0.42476821769367
C            4.63445809924275        3.03920005082819        0.70859063806829
C            4.57825044459002        1.67395112301763        0.38614572709453
C            3.37574331490558        0.92943040079842        0.71539870078044
O            2.38137495711495        1.45756952175211        1.25522700860473
C            3.40144791082720       -0.47991618080851        0.36177377671493
C            2.28288824992669       -1.26155517616767        0.67084657848276
C            2.23791335669302       -2.59031148198460        0.31638541247848
S            0.83505355732624       -3.58904124475211        0.73876872270279
C           -0.52466143788113       -2.49944011132545        0.46563128624462
C           -1.66140553952609       -2.65841612982546        1.25825783115450
C           -2.74547792191054       -1.82658032659693        1.08832700081523
C           -2.71226940634431       -0.81719082469897        0.12109395358838
N           -3.78789736596328        0.05112166205177       -0.02954481417851
C           -5.12204398797486       -0.31068769798482       -0.08517306641737
C           -5.69645886416792       -1.57558088774157       -0.09005105681404
C           -7.07427808316363       -1.65749753451523       -0.19179052190392
C           -7.86297756458373       -0.51591439606200       -0.30014676288549
C           -7.29213294403505        0.74674224318124       -0.33096357665640
C           -5.91465628363377        0.85211429733592       -0.22902961422908
C           -5.00283964680498        1.96927030004652       -0.25221359945704
C           -5.18150687712938        3.33989089753374       -0.34255745551087
C           -4.06235351161802        4.15658796282838       -0.30189091817272
C           -2.78726659027143        3.61958869206661       -0.15175840499997
C           -2.58536748478102        2.25349032104563       -0.05771964788585
C           -3.70094750350343        1.42861968165355       -0.13232075838973
C           -1.58359643620000       -0.68685928580933       -0.69459903241047
C           -0.50423313776231       -1.52513854942910       -0.53099900516766
C            3.33543682693712       -3.19921819953497       -0.31385416927907
C            4.44730761906902       -2.44978292386437       -0.59343882713303
C            4.50412550672833       -1.07925273100949       -0.28473376320367
H            7.64965460653242        1.37221166817986       -1.01127206657365
H            7.72795353208797        3.77879981238151       -0.42228978687885
H            5.77928468677740        4.83466629621235        0.68386394793425
H            3.76976771792053        3.47307398365952        1.19071343627389
H            1.46571506182283       -0.78018733294380        1.18903880427276
H           -1.67133813565226       -3.41935480418395        2.02251521744653
H           -3.60333356864636       -1.91916238459412        1.73577399823589
H           -5.09381951193357       -2.46826467327779       -0.03322573513427
H           -7.54571995037223       -2.62856854516738       -0.19255307770797
H           -8.93500313360355       -0.61881972625770       -0.37452461677324
H           -7.90457581850087        1.62840377853328       -0.43830811978814
H           -6.17032456904894        3.76140450703979       -0.43499323316295
H           -4.17951932944194        5.22731727020919       -0.37370486977705
H           -1.93472078604846        4.27991952264311       -0.10039976111148
H           -1.59279359941565        1.85569400312245        0.08705089962511
H           -1.57358040006453        0.05292162727034       -1.47989833630026
H            0.35357133395704       -1.42947051241561       -1.17894468456881
H            3.29123903264072       -4.24507079332630       -0.57478044384488
H            5.30924416083330       -2.88531904862713       -1.07813418895076

          :  Hamiltonian                  GFN2-xTB          :
         :: gradient norm              0.000031029128 Eh/a0 ::
         :: HOMO-LUMO gap              1.250953223540 eV    ::
         :: SCC energy               -94.103876319222 Eh    ::
         :: -> dispersion             -0.075629413988 Eh    ::
         :: -> Gsolv                  -0.055710817939 Eh    ::
         :: repulsion energy           1.585038685445 Eh    ::

    * Orbital Energies and Occupations

         #    Occupation            Energy/Eh            Energy/eV
      -------------------------------------------------------------
         1        2.0000           -0.7424919             -20.2042
       ...           ...                  ...                  ...
        74        2.0000           -0.4331105             -11.7855
        75        2.0000           -0.4283488             -11.6560
        76        2.0000           -0.4273925             -11.6299
        77        2.0000           -0.4234244             -11.5220
        78        2.0000           -0.4229768             -11.5098
        79        2.0000           -0.4128933             -11.2354
        80        2.0000           -0.4120781             -11.2132
        81        2.0000           -0.3973759             -10.8131
        82        2.0000           -0.3951700             -10.7531
        83        2.0000           -0.3925390             -10.6815
        84        1.7493           -0.3795749             -10.3288
        85        1.2507           -0.3774943             -10.2721
        86        1.0000           -0.3189727              -8.6797 (HOMO)
        87                         -0.2730011              -7.4287 (LUMO)
        88                         -0.2666731              -7.2565
        89                         -0.2592192              -7.0537
        90                         -0.2543400              -6.9209
        91                         -0.2441548              -6.6438
        92                         -0.2413263              -6.5668
        93                         -0.2348664              -6.3910
        94                         -0.2138628              -5.8195
        95                         -0.2067801              -5.6268
        96                         -0.2036775              -5.5423
        97                         -0.1820733              -4.9545
       ...                                ...                  ...
       168                          0.7252170              19.7342
      -------------------------------------------------------------
                  HL-Gap            0.0459716 Eh            1.2509 eV

     #   Z          covCN         q      C6AA      α(0)
     1   8 O        0.857    -0.474    23.221     6.461
     2   6 C        2.835     0.194    23.876     8.007
     3   6 C        2.977    -0.022    28.556     8.765
     4   6 C        2.923    -0.020    28.496     8.754
     5   6 C        2.916    -0.029    28.733     8.790
     6   6 C        2.916    -0.029    28.737     8.791
     7   6 C        2.923    -0.020    28.506     8.756
     8   6 C        2.977    -0.023    28.572     8.768
     9   6 C        2.836     0.193    23.880     8.008
    10   8 O        0.857    -0.477    23.274     6.468
    11   6 C        2.978    -0.024    28.591     8.771
    12   6 C        2.962    -0.025    28.621     8.775
    13   6 C        2.965     0.038    27.141     8.545
    14  16 S        2.116    -0.035   142.482    20.090
    15   6 C        2.966     0.050    26.866     8.502
    16   6 C        2.970    -0.029    28.712     8.789
    17   6 C        2.921    -0.035    28.861     8.810
    18   6 C        2.913     0.067    26.506     8.442
    19   7 N        2.802     0.002    21.232     6.844
    20   6 C        3.066     0.045    26.919     8.508
    21   6 C        2.909    -0.040    29.005     8.831
    22   6 C        2.922    -0.028    28.700     8.785
    23   6 C        2.920    -0.029    28.719     8.788
    24   6 C        2.912    -0.026    28.650     8.777
    25   6 C        3.063    -0.007    28.125     8.696
    26   6 C        3.063    -0.007    28.134     8.698
    27   6 C        2.912    -0.026    28.657     8.778
    28   6 C        2.920    -0.029    28.715     8.787
    29   6 C        2.923    -0.027    28.685     8.783
    30   6 C        2.909    -0.039    28.965     8.825
    31   6 C        3.066     0.046    26.909     8.506
    32   6 C        2.922    -0.034    28.844     8.807
    33   6 C        2.947    -0.026    28.643     8.778
    34   6 C        2.955    -0.039    28.962     8.827
    35   6 C        2.923    -0.017    28.444     8.746
    36   6 C        2.976    -0.023    28.583     8.770
    37   1 H        0.926     0.047     2.363     2.404
    38   1 H        0.926     0.046     2.367     2.406
    39   1 H        0.926     0.047     2.357     2.401
    40   1 H        0.926     0.049     2.335     2.389
    41   1 H        0.926     0.057     2.235     2.338
    42   1 H        0.926     0.071     2.070     2.250
    43   1 H        0.926     0.072     2.068     2.249
    44   1 H        0.926     0.050     2.318     2.381
    45   1 H        0.926     0.048     2.345     2.395
    46   1 H        0.926     0.047     2.362     2.403
    47   1 H        0.926     0.049     2.334     2.389
    48   1 H        0.926     0.050     2.318     2.381
    49   1 H        0.926     0.046     2.370     2.407
    50   1 H        0.926     0.044     2.397     2.421
    51   1 H        0.926     0.045     2.380     2.413
    52   1 H        0.926     0.065     2.145     2.290
    53   1 H        0.926     0.056     2.248     2.344
    54   1 H        0.926     0.058     2.218     2.329
    55   1 H        0.926     0.056     2.244     2.342

molecular dipole:
                 x           y           z       tot (Debye)
 q only:       -6.837      -0.541       0.033
   full:       -6.476      -0.309      -0.042      16.479

 projected vibrational frequencies (cm⁻¹)
eigval :       -0.00    -0.00    -0.00     0.00     0.00     0.00
eigval :        9.61    18.56    23.34    37.13    44.45    53.76
eigval :       80.34    90.89   106.79   111.84   121.76   144.71
eigval :      145.43   158.68   176.72   184.37   204.04   250.13
eigval :      255.04   270.11   272.38   282.06   301.28   328.49
eigval :      355.95   363.34   370.90   383.65   387.64   396.61
eigval :      405.25   406.39   419.68   421.73   435.24   458.63
eigval :      476.50   478.82   501.77   512.72   512.91   535.71
eigval :      546.60   573.62   578.38   588.10   596.98   611.47
eigval :      619.52   636.09   653.51   656.22   672.09   676.25
eigval :      677.04   681.95   711.50   724.62   737.72   755.44
eigval :      770.21   774.90   778.76   804.49   809.80   816.01
eigval :      857.54   871.00   874.91   877.89   882.48   896.18
eigval :      900.00   904.86   906.86   913.10   916.01   917.65
eigval :      919.24   921.87   923.82   927.83   931.28   960.39
eigval :     1000.97  1009.85  1067.64  1069.80  1077.93  1081.51
eigval :     1089.70  1098.69  1112.98  1122.64  1134.04  1140.19
eigval :     1161.92  1171.11  1171.45  1173.74  1177.42  1198.65
eigval :     1201.79  1208.48  1217.89  1223.84  1227.97  1234.38
eigval :     1253.86  1264.17  1274.11  1285.46  1317.71  1329.24
eigval :     1348.53  1359.19  1362.19  1365.14  1372.42  1397.07
eigval :     1402.95  1406.42  1409.99  1410.05  1435.46  1454.12
eigval :     1455.90  1470.83  1475.46  1506.17  1528.01  1532.52
eigval :     1537.70  1544.47  1560.56  1563.61  1572.32  1572.79
eigval :     1577.81  1598.30  3072.75  3075.84  3081.59  3082.19
eigval :     3082.54  3085.11  3085.63  3089.96  3090.88  3092.14
eigval :     3093.76  3098.09  3099.15  3099.70  3101.46  3103.24
eigval :     3104.73  3105.21  3111.20

   temp. (K)  partition function   enthalpy   heat capacity  entropy
                                   cal/mol     cal/K/mol   cal/K/mol   J/K/mol
 298.15  VIB  0.507E+12            15949.322    103.733     97.209
         ROT  0.431E+08              888.752      2.981     37.917
         INT  0.219E+20            16838.075    106.714    135.126
         TR   0.102E+29             1481.254      4.968     44.383
         TOT                       18319.3287   111.6820   179.5088   751.0649

       T/K    H(0)-H(T)+PV         H(T)/Eh          T*S/Eh         G(T)/Eh
   ------------------------------------------------------------------------
    298.15    0.291937E-01    0.430889E+00    0.852904E-01    0.345598E+00
   ------------------------------------------------------------------------

         :::::::::::::::::::::::::::::::::::::::::::::::::::::
         ::                  THERMODYNAMIC                  ::
         :::::::::::::::::::::::::::::::::::::::::::::::::::::
         :: total free energy         -92.173239158289 Eh   ::
         ::.................................................::
         :: total energy              -92.518837637727 Eh   ::
         :: zero point energy           0.401695207064 Eh   ::
         :: G(RRHO) w/o ZPVE           -0.056096727627 Eh   ::
         :: G(RRHO) contrib.            0.345598479438 Eh   ::
         :::::::::::::::::::::::::::::::::::::::::::::::::::::

           -------------------------------------------------
          | TOTAL ENERGY              -92.518837637727 Eh   |
          | TOTAL ENTHALPY            -92.087948722075 Eh   |
          | TOTAL FREE ENERGY         -92.173239158289 Eh   |
          | GRADIENT NORM               0.000030220748 Eh/α |
          | HOMO-LUMO GAP               1.250949885977 eV   |
           -------------------------------------------------

 * finished run on 2025/07/19 at 19:24:45.569
