   * xtb version 6.7.1 (edcfbbe) compiled by 'albert@albert-system' on 2024-07-22

   ID    Z sym.   atoms
    1    8 O      1, 10
    2    6 C      2-9, 11-13, 15-18, 20-36
    3   16 S      14
    4    7 N      19
    5    1 H      37-55

          program call               : xtb data2507/toluene/AQ-S-CZ/AQ-S-CZ_toluene_T1_crest.xyz --gfn 2 --uhf 2 --gbsa toluene --ohess vtight --parallel 40 --molden --ceasefiles --namespace data2507/toluene/AQ-S-CZ/AQ-S-CZ_toluene_T1_finalOpt
      * Solvation model:               GBSA
        Solvent                        toluene
        Solvent mass                       9.2140E+01 g/mol
          :  Hamiltonian                  GFN2-xTB          :
 * total energy  :   -92.5185035 Eh     change       -0.7218148E-08 Eh
 * total energy  :   -92.5187017 Eh     change       -0.1982806E-03 Eh
 * total energy  :   -92.5187624 Eh     change       -0.6067272E-04 Eh
 * total energy  :   -92.5187706 Eh     change       -0.8166751E-05 Eh
 * total energy  :   -92.5187767 Eh     change       -0.6113209E-05 Eh
 * total energy  :   -92.5187835 Eh     change       -0.6766314E-05 Eh
 * total energy  :   -92.5187905 Eh     change       -0.7028368E-05 Eh
 * total energy  :   -92.5187962 Eh     change       -0.5688047E-05 Eh
 * total energy  :   -92.5188007 Eh     change       -0.4525162E-05 Eh
 * total energy  :   -92.5188047 Eh     change       -0.4032183E-05 Eh
 * total energy  :   -92.5188236 Eh     change       -0.2718048E-06 Eh
 * total energy  :   -92.5188239 Eh     change       -0.2756008E-06 Eh
 * total energy  :   -92.5188241 Eh     change       -0.2630256E-06 Eh
 * total energy  :   -92.5188244 Eh     change       -0.2306989E-06 Eh
 * total energy  :   -92.5188246 Eh     change       -0.1925155E-06 Eh
 * total energy  :   -92.5188247 Eh     change       -0.1526853E-06 Eh
 * total energy  :   -92.5188248 Eh     change       -0.1124280E-06 Eh
 * total energy  :   -92.5188249 Eh     change       -0.1007988E-06 Eh
 * total energy  :   -92.5188250 Eh     change       -0.9055552E-07 Eh
   *** GEOMETRY OPTIMIZATION CONVERGED AFTER 42 ITERATIONS ***

 final structure:
================
55
 xtb: 6.7.1 (edcfbbe)
O            6.62841449944250       -0.84432461630401       -1.34314824520982
C            5.66705037104488       -0.34380059385032       -0.72257278932342
C            5.67052338969644        1.03642580092207       -0.26323128215509
C            6.80148960598259        1.82751716708413       -0.51718040502157
C            6.85279232538633        3.13829215917582       -0.11137365831636
C            5.76785517759608        3.70375182496960        0.56362420787778
C            4.65070792212246        2.94872050701778        0.82122426818657
C            4.57869807974793        1.60530529619063        0.41997094449837
C            3.37598243323988        0.85095549338743        0.72510881077204
O            2.39311692456790        1.35429366095587        1.30782036737295
C            3.38755795006944       -0.53700017169311        0.29446656791085
C            2.26975336887528       -1.32863849758018        0.57930071060507
C            2.21154775061301       -2.63627588037357        0.15499326232770
S            0.80595234444337       -3.64458435057807        0.54584258770437
C           -0.54468269835204       -2.53152356818519        0.32722051534511
C           -1.67783996769462       -2.70777789438746        1.12120522590592
C           -2.75304942351208       -1.85717611913307        0.99139630610180
C           -2.71450264209639       -0.81209039494157        0.06309597116775
N           -3.78130651953823        0.07237538025287       -0.05039286731102
C           -5.11956012834055       -0.27284816025516       -0.11535808292973
C           -5.70857407437520       -1.53036689952039       -0.15528842062600
C           -7.08730304421723       -1.59351140700959       -0.25892960503901
C           -7.86282451144015       -0.44046657853138       -0.33600935601319
C           -7.27744890110245        0.81587360092189       -0.33187392599431
C           -5.89892167288764        0.90240654802019       -0.22677302731345
C           -4.97467562414703        2.00947018997955       -0.21960558305155
C           -5.13806586113158        3.38379435064174       -0.27481122692657
C           -4.00978872876432        4.18661555382472       -0.21455458892927
C           -2.74075788306739        3.63155122126758       -0.07935676039173
C           -2.55425512088527        2.26139063048611       -0.01949648321446
C           -3.67902163381920        1.45117921834116       -0.11506770473492
C           -1.58942524394948       -0.66321830609040       -0.75455031655381
C           -0.51875904137316       -1.51888324227671       -0.63030956563268
C            3.29518441170827       -3.21584909210951       -0.52469228361794
C            4.40627576432840       -2.45742103507493       -0.78290191503261
C            4.47606995815328       -1.10586305886107       -0.40175272827188
H            7.62469703429328        1.36516673405642       -1.04334988137859
H            7.73155089975875        3.73217475385243       -0.31480302668585
H            5.80936412998788        4.73452761876124        0.88323762102082
H            3.79714240967410        3.35936184956578        1.34192777807727
H            1.46328754004226       -0.87179966462400        1.13513172045545
H           -1.69197618212455       -3.49796016110933        1.85514511695656
H           -3.60743143505808       -1.96440214875508        1.64124898882525
H           -5.11663517119630       -2.43137028601962       -0.12364344951205
H           -7.56976766467562       -2.55877446999898       -0.28636657773565
H           -8.93593358070113       -0.52881014904507       -0.41348115573094
H           -7.87947456746126        1.70729040605336       -0.41498735936873
H           -6.12217532360525        3.81842421895225       -0.35580760926860
H           -4.11482329264700        5.26005018118226       -0.25960579102847
H           -1.88074267902869        4.28070175929284       -0.01213105094790
H           -1.56617022851848        1.84905133384326        0.11480020887582
H           -1.57603716124062        0.10589615059857       -1.51107042116233
H            0.33624175986842       -1.40748595515788       -1.27939681998922
H            3.24104278097817       -4.24613609923697       -0.84001633159822
H            5.25743065993163       -2.87017757539419       -1.30508413747227

          :  Hamiltonian                  GFN2-xTB          :
         :: gradient norm              0.000066055455 Eh/a0 ::
         :: HOMO-LUMO gap              1.250887823034 eV    ::
         :: SCC energy               -94.103898922094 Eh    ::
         :: -> dispersion             -0.075643162338 Eh    ::
         :: -> Gsolv                  -0.055685589950 Eh    ::
         :: repulsion energy           1.585073879307 Eh    ::

    * Orbital Energies and Occupations

         #    Occupation            Energy/Eh            Energy/eV
      -------------------------------------------------------------
         1        2.0000           -0.7424358             -20.2027
       ...           ...                  ...                  ...
        74        2.0000           -0.4331330             -11.7861
        75        2.0000           -0.4282892             -11.6543
        76        2.0000           -0.4274190             -11.6307
        77        2.0000           -0.4234496             -11.5226
        78        2.0000           -0.4230099             -11.5107
        79        2.0000           -0.4129136             -11.2360
        80        2.0000           -0.4120848             -11.2134
        81        2.0000           -0.3974063             -10.8140
        82        2.0000           -0.3951977             -10.7539
        83        2.0000           -0.3926197             -10.6837
        84        1.7527           -0.3796004             -10.3295
        85        1.2473           -0.3774859             -10.2719
        86        1.0000           -0.3189959              -8.6803 (HOMO)
        87                         -0.2730263              -7.4294 (LUMO)
        88                         -0.2667319              -7.2581
        89                         -0.2592263              -7.0539
        90                         -0.2543289              -6.9206
        91                         -0.2442506              -6.6464
        92                         -0.2413575              -6.5677
        93                         -0.2348885              -6.3916
        94                         -0.2139455              -5.8218
        95                         -0.2068906              -5.6298
        96                         -0.2036998              -5.5430
        97                         -0.1821542              -4.9567
       ...                                ...                  ...
       168                          0.7252402              19.7348
      -------------------------------------------------------------
                  HL-Gap            0.0459695 Eh            1.2509 eV

     #   Z          covCN         q      C6AA      α(0)
     1   8 O        0.857    -0.474    23.221     6.461
     2   6 C        2.835     0.194    23.876     8.007
     3   6 C        2.977    -0.022    28.556     8.765
     4   6 C        2.923    -0.020    28.496     8.754
     5   6 C        2.916    -0.029    28.733     8.790
     6   6 C        2.916    -0.029    28.737     8.791
     7   6 C        2.923    -0.020    28.505     8.755
     8   6 C        2.977    -0.023    28.571     8.768
     9   6 C        2.836     0.193    23.878     8.008
    10   8 O        0.857    -0.477    23.273     6.468
    11   6 C        2.978    -0.024    28.591     8.771
    12   6 C        2.963    -0.025    28.618     8.775
    13   6 C        2.966     0.038    27.143     8.546
    14  16 S        2.116    -0.035   142.493    20.091
    15   6 C        2.966     0.050    26.866     8.502
    16   6 C        2.969    -0.029    28.712     8.789
    17   6 C        2.921    -0.035    28.862     8.810
    18   6 C        2.913     0.067    26.505     8.442
    19   7 N        2.802     0.002    21.231     6.843
    20   6 C        3.066     0.045    26.919     8.508
    21   6 C        2.909    -0.040    29.006     8.831
    22   6 C        2.922    -0.028    28.700     8.785
    23   6 C        2.920    -0.029    28.719     8.788
    24   6 C        2.912    -0.026    28.650     8.777
    25   6 C        3.063    -0.007    28.124     8.696
    26   6 C        3.063    -0.007    28.133     8.698
    27   6 C        2.912    -0.026    28.657     8.778
    28   6 C        2.920    -0.029    28.714     8.787
    29   6 C        2.923    -0.027    28.685     8.783
    30   6 C        2.909    -0.039    28.965     8.825
    31   6 C        3.066     0.046    26.910     8.506
    32   6 C        2.922    -0.034    28.846     8.808
    33   6 C        2.948    -0.026    28.643     8.778
    34   6 C        2.954    -0.039    28.961     8.827
    35   6 C        2.923    -0.017    28.444     8.746
    36   6 C        2.976    -0.023    28.583     8.770
    37   1 H        0.926     0.047     2.363     2.404
    38   1 H        0.926     0.046     2.367     2.406
    39   1 H        0.926     0.047     2.357     2.401
    40   1 H        0.926     0.049     2.335     2.389
    41   1 H        0.926     0.057     2.236     2.338
    42   1 H        0.926     0.071     2.070     2.250
    43   1 H        0.926     0.072     2.067     2.248
    44   1 H        0.926     0.050     2.316     2.380
    45   1 H        0.926     0.048     2.344     2.394
    46   1 H        0.926     0.047     2.362     2.403
    47   1 H        0.926     0.049     2.334     2.389
    48   1 H        0.926     0.050     2.318     2.381
    49   1 H        0.926     0.046     2.369     2.407
    50   1 H        0.926     0.044     2.397     2.421
    51   1 H        0.926     0.045     2.380     2.413
    52   1 H        0.926     0.065     2.146     2.291
    53   1 H        0.926     0.056     2.250     2.345
    54   1 H        0.926     0.058     2.218     2.329
    55   1 H        0.926     0.056     2.243     2.342

molecular dipole:
                 x           y           z       tot (Debye)
 q only:       -6.820      -0.489       0.035
   full:       -6.457      -0.257      -0.030      16.426

 projected vibrational frequencies (cm⁻¹)
eigval :       -0.00    -0.00    -0.00     0.00     0.00     0.00
eigval :        9.45    14.74    21.76    37.61    44.20    50.65
eigval :       77.81    90.69   105.84   111.82   122.64   142.12
eigval :      144.96   157.93   176.37   184.33   204.26   250.03
eigval :      255.15   269.84   271.37   282.12   300.93   328.92
eigval :      354.73   363.14   370.81   383.03   386.64   397.50
eigval :      404.78   405.41   419.23   421.21   434.97   458.74
eigval :      476.68   480.22   502.13   512.73   512.82   534.32
eigval :      546.68   575.10   578.37   588.05   597.30   611.39
eigval :      619.53   635.93   654.30   656.37   672.08   676.60
eigval :      677.52   682.11   712.41   725.86   737.60   755.36
eigval :      770.22   777.83   778.43   804.90   814.94   818.67
eigval :      857.58   871.34   874.38   879.30   884.40   895.97
eigval :      899.77   904.71   907.20   914.93   916.45   917.19
eigval :      920.16   921.68   923.45   926.52   931.35   960.36
eigval :     1000.41  1009.88  1067.67  1069.64  1078.61  1081.67
eigval :     1089.73  1098.75  1112.97  1123.05  1132.05  1140.99
eigval :     1162.69  1170.34  1172.14  1173.40  1177.56  1198.71
eigval :     1201.57  1208.58  1218.60  1223.83  1228.94  1235.02
eigval :     1252.44  1264.43  1274.85  1285.30  1317.73  1329.22
eigval :     1348.38  1359.12  1362.01  1364.99  1372.43  1397.21
eigval :     1402.98  1406.88  1410.06  1410.21  1435.92  1453.59
eigval :     1456.22  1470.72  1475.74  1506.13  1527.67  1532.44
eigval :     1537.60  1544.30  1560.55  1563.81  1572.45  1572.73
eigval :     1577.79  1598.34  3072.83  3075.80  3081.62  3081.91
eigval :     3082.30  3085.14  3085.49  3090.12  3090.63  3092.13
eigval :     3094.19  3097.54  3099.53  3099.74  3101.10  3102.85
eigval :     3104.82  3105.31  3110.71

   temp. (K)  partition function   enthalpy   heat capacity  entropy
                                   cal/mol     cal/K/mol   cal/K/mol   J/K/mol
 298.15  VIB  0.758E+12            15968.293    103.622     97.607
         ROT  0.430E+08              888.752      2.981     37.912
         INT  0.326E+20            16857.045    106.603    135.520
         TR   0.102E+29             1481.254      4.968     44.383
         TOT                       18338.2992   111.5709   179.9030   752.7140

       T/K    H(0)-H(T)+PV         H(T)/Eh          T*S/Eh         G(T)/Eh
   ------------------------------------------------------------------------
    298.15    0.292239E-01    0.430919E+00    0.854777E-01    0.345441E+00
   ------------------------------------------------------------------------

         :::::::::::::::::::::::::::::::::::::::::::::::::::::
         ::                  THERMODYNAMIC                  ::
         :::::::::::::::::::::::::::::::::::::::::::::::::::::
         :: total free energy         -92.173383731945 Eh   ::
         ::.................................................::
         :: total energy              -92.518825045143 Eh   ::
         :: zero point energy           0.401695072454 Eh   ::
         :: G(RRHO) w/o ZPVE           -0.056253759255 Eh   ::
         :: G(RRHO) contrib.            0.345441313199 Eh   ::
         :::::::::::::::::::::::::::::::::::::::::::::::::::::

           -------------------------------------------------
          | TOTAL ENERGY              -92.518825045143 Eh   |
          | TOTAL ENTHALPY            -92.087906032776 Eh   |
          | TOTAL FREE ENERGY         -92.173383731945 Eh   |
          | GRADIENT NORM               0.000074476966 Eh/α |
          | HOMO-LUMO GAP               1.250894877730 eV   |
           -------------------------------------------------

 * finished run on 2025/07/19 at 19:29:01.728
