   * xtb version 6.7.1 (edcfbbe) compiled by 'albert@albert-system' on 2024-07-22

   ID    Z sym.   atoms
    1    8 O      1, 10
    2    6 C      2-9, 11-13, 15-18, 20-36
    3   16 S      14
    4    7 N      19
    5    1 H      37-55

          program call               : xtb data2507/toluene/AQ-S-CZ/AQ-S-CZ.xyz --gfn 2 --gbsa toluene --ohess vtight --parallel 40 --molden --ceasefiles --namespace data2507/toluene/AQ-S-CZ/AQ-S-CZ_toluene_S0_preOpt
      * Solvation model:               GBSA
        Solvent                        toluene
        Solvent mass                       9.2140E+01 g/mol
          :  Hamiltonian                  GFN2-xTB          :
 * total energy  :   -92.5546515 Eh     change       -0.8332108E-09 Eh
 * total energy  :   -92.5633825 Eh     change       -0.8731022E-02 Eh
 * total energy  :   -92.5650945 Eh     change       -0.1712003E-02 Eh
 * total energy  :   -92.5654235 Eh     change       -0.3289732E-03 Eh
 * total energy  :   -92.5657075 Eh     change       -0.2839899E-03 Eh
 * total energy  :   -92.5658572 Eh     change       -0.1496924E-03 Eh
 * total energy  :   -92.5660255 Eh     change       -0.1683072E-03 Eh
 * total energy  :   -92.5662187 Eh     change       -0.1932033E-03 Eh
 * total energy  :   -92.5664353 Eh     change       -0.2166680E-03 Eh
 * total energy  :   -92.5666763 Eh     change       -0.2409848E-03 Eh
 * total energy  :   -92.5710377 Eh     change       -0.8048112E-06 Eh
 * total energy  :   -92.5710384 Eh     change       -0.6755457E-06 Eh
 * total energy  :   -92.5710389 Eh     change       -0.5584575E-06 Eh
 * total energy  :   -92.5710394 Eh     change       -0.4520371E-06 Eh
 * total energy  :   -92.5710398 Eh     change       -0.3695656E-06 Eh
 * total energy  :   -92.5710401 Eh     change       -0.3306936E-06 Eh
 * total energy  :   -92.5710404 Eh     change       -0.3312716E-06 Eh
 * total energy  :   -92.5710408 Eh     change       -0.3774337E-06 Eh
 * total energy  :   -92.5710408 Eh     change       -0.2088143E-08 Eh
   *** GEOMETRY OPTIMIZATION CONVERGED AFTER 94 ITERATIONS ***

 final structure:
================
55
 xtb: 6.7.1 (edcfbbe)
O            7.13309538078714       -1.49433315418979       -0.41717292826760
C            6.07177366530131       -0.93955894793894       -0.16149838708358
C            6.01136738043914        0.49568216203545        0.19018117740573
C            7.19709145907294        1.22405452993429        0.24525888273147
C            7.18767653202477        2.56862799454517        0.57229025687967
C            5.98699097267577        3.20544926813301        0.84999412643675
C            4.80145861662444        2.49463445549385        0.79761729695079
C            4.79717425443224        1.14003344263644        0.46991786778630
C            3.50930257194588        0.42284233072419        0.42405204938591
O            2.44451101473039        0.98520436756004        0.63327799186426
C            3.57613645272103       -1.01929700636413        0.10345747365019
C            2.39030109019617       -1.74082179220377        0.08426650816073
C            2.39042911253479       -3.09473501042711       -0.22637045694104
S            0.92830370176215       -4.07156510171107       -0.24658613279494
C           -0.37039884320509       -2.84528445594062       -0.21304035324843
C           -1.27737738638516       -2.84628126644103        0.83599169912367
C           -2.29666542455051       -1.91395566751369        0.86087055770543
C           -2.41649687538201       -0.97880292607030       -0.16574441003015
N           -3.43934589072834       -0.02624653902208       -0.13623960705056
C           -4.78201716634317       -0.28342750676140        0.07381431551217
C           -5.43452910061572       -1.49637606812916        0.24246442326526
C           -6.80683357922783       -1.47394016813812        0.40716080382609
C           -7.52156848152365       -0.27802658196700        0.39521647638330
C           -6.88072949472633        0.92972962244310        0.20083832284870
C           -5.50177514761572        0.93255058318783        0.03361334457035
C           -4.53771428775371        1.97151468326813       -0.20417151814399
C           -4.63189878253132        3.35270542035037       -0.31905955751983
C           -3.47592700736384        4.07993717802309       -0.52368085660117
C           -2.23613577379911        3.44827198360092       -0.59580944084968
C           -2.11704968563144        2.07550316260697       -0.48484442464688
C           -3.27842537819059        1.33740014107676       -0.30607488122532
C           -1.50947802029667       -0.99893001251032       -1.22515330570597
C           -0.49341703750446       -1.93267995823451       -1.25226763729174
C            3.59995219965029       -3.73696336957246       -0.50387563414093
C            4.77828107280354       -3.02562288060766       -0.47771742272467
C            4.79161429434233       -1.66046653081477       -0.17934147012979
H            8.12095016230310        0.70895649523888        0.02553022899681
H            8.11552330236762        3.11894778147176        0.61092236947611
H            5.97527358183431        4.25406510886127        1.10590592620847
H            3.85481913926700        2.97026112844377        1.00938527867504
H            1.47582780360722       -1.21748440302587        0.32146779534195
H           -1.17422305862587       -3.56549647046698        1.63381009794650
H           -2.99032517536691       -1.89177630860836        1.68725620401410
H           -4.89392347218150       -2.43074192925858        0.23484035907941
H           -7.33692213149574       -2.40517422831018        0.54430093406356
H           -8.59301839654812       -0.30147647421247        0.53011794832485
H           -7.43678407814802        1.85491208714791        0.17431747036692
H           -5.59060320012019        3.84377022550405       -0.24431322209209
H           -3.52705448128076        5.15478724952374       -0.61804948642187
H           -1.34578913706019        4.04346047626617       -0.73740946266919
H           -1.14738049477981        1.60214996263418       -0.51991114782881
H           -1.61629868364693       -0.29211780252439       -2.03366711497074
H            0.20431795133955       -1.95442083208833       -2.07599342236187
H            3.59791280608650       -4.79058538440221       -0.73759341522149
H            5.72002015374690       -3.50886206325826       -0.69255249102873

          :  Hamiltonian                  GFN2-xTB          :
         :: gradient norm              0.000041659017 Eh/a0 ::
         :: HOMO-LUMO gap              0.898268289326 eV    ::
         :: SCC energy               -94.163900497271 Eh    ::
         :: -> dispersion             -0.075677771752 Eh    ::
         :: -> Gsolv                  -0.043207206100 Eh    ::
         :: repulsion energy           1.592859700211 Eh    ::

    * Orbital Energies and Occupations

         #    Occupation            Energy/Eh            Energy/eV
      -------------------------------------------------------------
         1        2.0000           -0.7332862             -19.9537
       ...           ...                  ...                  ...
        73        2.0000           -0.4323358             -11.7645
        74        2.0000           -0.4309577             -11.7270
        75        2.0000           -0.4275086             -11.6331
        76        2.0000           -0.4252257             -11.5710
        77        2.0000           -0.4231380             -11.5142
        78        2.0000           -0.4199613             -11.4277
        79        2.0000           -0.4193495             -11.4111
        80        2.0000           -0.4182213             -11.3804
        81        2.0000           -0.4071990             -11.0804
        82        2.0000           -0.3997413             -10.8775
        83        2.0000           -0.3831157             -10.4251
        84        2.0000           -0.3806295             -10.3575
        85        2.0000           -0.3659440              -9.9578 (HOMO)
        86                         -0.3329332              -9.0596 (LUMO)
        87                         -0.2856382              -7.7726
        88                         -0.2597718              -7.0688
        89                         -0.2538231              -6.9069
        90                         -0.2494434              -6.7877
        91                         -0.2457334              -6.6867
        92                         -0.2452827              -6.6745
        93                         -0.2239423              -6.0938
        94                         -0.2064733              -5.6184
        95                         -0.1987604              -5.4085
        96                         -0.1960890              -5.3359
       ...                                ...                  ...
       168                          0.7420261              20.1916
      -------------------------------------------------------------
                  HL-Gap            0.0330107 Eh            0.8983 eV

     #   Z          covCN         q      C6AA      α(0)
     1   8 O        0.858    -0.412    21.912     6.276
     2   6 C        2.830     0.224    23.299     7.910
     3   6 C        2.974    -0.012    28.314     8.728
     4   6 C        2.923    -0.013    28.336     8.729
     5   6 C        2.917    -0.016    28.401     8.739
     6   6 C        2.917    -0.017    28.429     8.743
     7   6 C        2.923    -0.012    28.325     8.728
     8   6 C        2.974    -0.014    28.353     8.734
     9   6 C        2.831     0.227    23.231     7.898
    10   8 O        0.858    -0.403    21.743     6.252
    11   6 C        2.975    -0.013    28.341     8.732
    12   6 C        2.953    -0.026    28.653     8.780
    13   6 C        2.964     0.059    26.668     8.470
    14  16 S        2.112    -0.110   145.637    20.311
    15   6 C        2.968     0.044    27.008     8.524
    16   6 C        2.957    -0.030    28.758     8.796
    17   6 C        2.923    -0.040    28.992     8.830
    18   6 C        2.912     0.069    26.451     8.433
    19   7 N        2.802    -0.042    22.052     6.974
    20   6 C        3.071     0.046    26.890     8.502
    21   6 C        2.910    -0.052    29.282     8.873
    22   6 C        2.924    -0.034    28.849     8.808
    23   6 C        2.920    -0.041    29.028     8.835
    24   6 C        2.912    -0.034    28.846     8.807
    25   6 C        3.066    -0.017    28.360     8.732
    26   6 C        3.066    -0.017    28.366     8.733
    27   6 C        2.912    -0.034    28.852     8.808
    28   6 C        2.920    -0.041    29.028     8.835
    29   6 C        2.924    -0.034    28.837     8.806
    30   6 C        2.909    -0.050    29.252     8.869
    31   6 C        3.071     0.047    26.882     8.501
    32   6 C        2.923    -0.039    28.980     8.828
    33   6 C        2.952    -0.029    28.716     8.789
    34   6 C        2.974    -0.030    28.751     8.795
    35   6 C        2.923    -0.013    28.335     8.729
    36   6 C        2.973    -0.021    28.529     8.761
    37   1 H        0.926     0.066     2.133     2.284
    38   1 H        0.926     0.063     2.165     2.301
    39   1 H        0.926     0.063     2.167     2.302
    40   1 H        0.926     0.066     2.135     2.285
    41   1 H        0.926     0.064     2.157     2.297
    42   1 H        0.926     0.059     2.212     2.326
    43   1 H        0.926     0.057     2.234     2.338
    44   1 H        0.926     0.032     2.560     2.502
    45   1 H        0.926     0.032     2.552     2.498
    46   1 H        0.926     0.030     2.587     2.515
    47   1 H        0.926     0.032     2.553     2.499
    48   1 H        0.926     0.033     2.548     2.496
    49   1 H        0.926     0.030     2.589     2.516
    50   1 H        0.926     0.031     2.574     2.509
    51   1 H        0.926     0.031     2.574     2.509
    52   1 H        0.926     0.055     2.260     2.351
    53   1 H        0.926     0.052     2.294     2.368
    54   1 H        0.926     0.066     2.128     2.281
    55   1 H        0.926     0.070     2.090     2.261

molecular dipole:
                 x           y           z       tot (Debye)
 q only:       -0.532       0.186       0.092
   full:       -0.438       0.395       0.101       1.520

 projected vibrational frequencies (cm⁻¹)
eigval :       -0.00    -0.00     0.00     0.00     0.00     0.00
eigval :        6.46    11.02    14.95    29.12    42.60    47.49
eigval :       71.02    80.69   101.21   102.67   106.18   130.00
eigval :      142.81   154.80   172.37   185.99   203.71   248.03
eigval :      249.98   268.68   272.25   279.58   290.06   328.28
eigval :      363.89   365.09   373.14   380.93   388.71   398.48
eigval :      399.06   402.48   404.80   421.56   435.11   456.72
eigval :      478.39   484.41   505.66   517.58   518.54   533.75
eigval :      541.29   579.44   591.98   606.22   612.19   614.17
eigval :      631.92   655.34   669.72   672.78   677.53   680.18
eigval :      683.00   687.60   707.35   737.86   757.77   769.48
eigval :      770.54   780.77   786.47   803.31   820.70   834.36
eigval :      867.99   874.49   880.83   885.06   895.75   897.39
eigval :      903.33   903.74   905.90   920.47   921.52   924.98
eigval :      925.86   927.88   928.00   933.63   935.47   976.50
eigval :     1004.91  1010.97  1070.01  1073.56  1080.65  1085.59
eigval :     1097.39  1106.11  1117.96  1124.41  1131.15  1151.92
eigval :     1171.46  1172.77  1176.73  1180.02  1181.65  1200.03
eigval :     1207.12  1225.59  1234.69  1236.14  1243.28  1251.70
eigval :     1258.98  1275.55  1298.06  1299.31  1313.81  1334.14
eigval :     1347.04  1354.59  1358.51  1360.66  1394.53  1400.66
eigval :     1416.69  1423.13  1426.77  1442.69  1454.61  1470.19
eigval :     1473.27  1485.85  1539.92  1550.88  1559.80  1568.45
eigval :     1572.04  1573.95  1576.36  1587.42  1597.14  1611.74
eigval :     1633.93  1650.12  3072.73  3073.45  3078.60  3079.53
eigval :     3085.00  3086.22  3087.49  3087.79  3089.12  3091.40
eigval :     3092.69  3093.16  3094.38  3094.83  3094.87  3100.60
eigval :     3101.35  3101.59  3104.97

   temp. (K)  partition function   enthalpy   heat capacity  entropy
                                   cal/mol     cal/K/mol   cal/K/mol   J/K/mol
 298.15  VIB  0.457E+13            16013.551    102.469     99.449
         ROT  0.427E+08              888.752      2.981     37.896
         INT  0.195E+21            16902.304    105.450    137.346
         TR   0.102E+29             1481.254      4.968     44.383
         TOT                       18383.5577   110.4182   181.7290   760.3543

       T/K    H(0)-H(T)+PV         H(T)/Eh          T*S/Eh         G(T)/Eh
   ------------------------------------------------------------------------
    298.15    0.292961E-01    0.433227E+00    0.863453E-01    0.346882E+00
   ------------------------------------------------------------------------

         :::::::::::::::::::::::::::::::::::::::::::::::::::::
         ::                  THERMODYNAMIC                  ::
         :::::::::::::::::::::::::::::::::::::::::::::::::::::
         :: total free energy         -92.224158680835 Eh   ::
         ::.................................................::
         :: total energy              -92.571040799563 Eh   ::
         :: zero point energy           0.403931384085 Eh   ::
         :: G(RRHO) w/o ZPVE           -0.057049265357 Eh   ::
         :: G(RRHO) contrib.            0.346882118727 Eh   ::
         :::::::::::::::::::::::::::::::::::::::::::::::::::::

           -------------------------------------------------
          | TOTAL ENERGY              -92.571040799563 Eh   |
          | TOTAL ENTHALPY            -92.137813351432 Eh   |
          | TOTAL FREE ENERGY         -92.224158680835 Eh   |
          | GRADIENT NORM               0.000041658747 Eh/α |
          | HOMO-LUMO GAP               0.898268025734 eV   |
           -------------------------------------------------

 * finished run on 2025/07/19 at 19:21:50.528
