   * xtb version 6.7.1 (edcfbbe) compiled by 'albert@albert-system' on 2024-07-22

   ID    Z sym.   atoms
    1    8 O      1, 10
    2    6 C      2-9, 11-13, 15-18, 20-36
    3   16 S      14
    4    7 N      19
    5    1 H      37-55

          program call               : xtb data2507/toluene/AQ-S-CZ/AQ-S-CZ_toluene_S0_crest.xyz --gfn 2 --gbsa toluene --ohess vtight --parallel 40 --molden --ceasefiles --namespace data2507/toluene/AQ-S-CZ/AQ-S-CZ_toluene_S0_finalOpt
      * Solvation model:               GBSA
        Solvent                        toluene
        Solvent mass                       9.2140E+01 g/mol
          :  Hamiltonian                  GFN2-xTB          :
 * total energy  :   -92.5708349 Eh     change       -0.9691234E-09 Eh
 * total energy  :   -92.5709204 Eh     change       -0.8549010E-04 Eh
 * total energy  :   -92.5709594 Eh     change       -0.3909122E-04 Eh
 * total energy  :   -92.5709786 Eh     change       -0.1911032E-04 Eh
 * total energy  :   -92.5709920 Eh     change       -0.1348350E-04 Eh
 * total energy  :   -92.5710116 Eh     change       -0.1952951E-04 Eh
 * total energy  :   -92.5710238 Eh     change       -0.1218655E-04 Eh
 * total energy  :   -92.5710279 Eh     change       -0.4191470E-05 Eh
 * total energy  :   -92.5710324 Eh     change       -0.4420803E-05 Eh
 * total energy  :   -92.5710353 Eh     change       -0.2940516E-05 Eh
 * total energy  :   -92.5710865 Eh     change       -0.6169697E-06 Eh
 * total energy  :   -92.5710872 Eh     change       -0.7318519E-06 Eh
 * total energy  :   -92.5710879 Eh     change       -0.6888416E-06 Eh
 * total energy  :   -92.5710884 Eh     change       -0.5257299E-06 Eh
 * total energy  :   -92.5710889 Eh     change       -0.4520504E-06 Eh
 * total energy  :   -92.5710893 Eh     change       -0.4526540E-06 Eh
 * total energy  :   -92.5710897 Eh     change       -0.4387881E-06 Eh
 * total energy  :   -92.5710901 Eh     change       -0.3375021E-06 Eh
 * total energy  :   -92.5710902 Eh     change       -0.6666475E-07 Eh
   *** GEOMETRY OPTIMIZATION CONVERGED AFTER 44 ITERATIONS ***

 final structure:
================
55
 xtb: 6.7.1 (edcfbbe)
O            6.87271902780688       -0.81977410733996       -0.52759202162568
C            5.79079217711284       -0.32008942164839       -0.24617999259189
C            5.65728953174971        1.12058413054386        0.06016845987670
C            6.79681747411434        1.92086596650192        0.03583483895603
C            6.71833516432586        3.27366964078524        0.31645905790154
C            5.49373851359547        3.84668732880070        0.62687973267681
C            4.35361287377741        3.06391784207968        0.65422301955037
C            4.41900453830587        1.70034434276822        0.37368310667833
C            3.17713496814386        0.90582297058418        0.41176303363636
O            2.09059606374601        1.40956072866527        0.65566542594986
C            3.31733874098165       -0.53862228719594        0.12768269422874
C            2.17685028739822       -1.32847103962092        0.17659895086181
C            2.24459932199523       -2.68779252684566       -0.10140002883653
S            0.83992501647140       -3.74467644600365       -0.04040421259279
C           -0.52324082419077       -2.59068326024957       -0.04633887307985
C           -1.43672561525437       -2.61294355308635        0.99694417264703
C           -2.50541294905740       -1.73716498612759        0.99064997257707
C           -2.66794241490108       -0.83716028433977       -0.06113110516084
N           -3.74156563988989        0.05838229289514       -0.06545144374711
C           -5.07119071215109       -0.26740576121100        0.13236833707963
C           -5.65746333275886       -1.50865906571314        0.33483103189504
C           -7.03174620095605       -1.55847868068729        0.47556027772895
C           -7.81234362466738       -0.40639288795040        0.40857321983952
C           -7.23693650736389        0.82832629770497        0.18168933296066
C           -5.85744839256662        0.90359902207894        0.03720328796134
C           -4.94949984980616        1.98665931209121       -0.22354881082174
C           -5.11936098092090        3.35479708292990       -0.39370582482195
C           -4.00295828740053        4.13861168593500       -0.60871601649722
C           -2.72833203727030        3.57664511176350       -0.63702115464019
C           -2.53408565186235        2.21817131684062       -0.47082998508738
C           -3.65497582417612        1.42199529997618       -0.28278936857714
C           -1.75316748241635       -0.83620633970094       -1.11411182426204
C           -0.68813182988216       -1.71371215777503       -1.11036968550839
C            3.47831602863241       -3.26657902317495       -0.40929841893031
C            4.61269701247359       -2.48730927082763       -0.44919736231334
C            4.55654336663069       -1.11557758282359       -0.18872264213217
H            7.74040916896591        1.45465530855016       -0.20797466039631
H            7.61115618795794        3.87999447801154        0.29362349258417
H            5.42784793809866        4.90152935916241        0.84634940041285
H            3.38951775393354        3.48889060294278        0.89298572507729
H            1.24319815623372       -0.85325146372362        0.43907532759750
H           -1.30074736668077       -3.30443415277635        1.81413574573034
H           -3.20531519136851       -1.73108596961992        1.81204436724364
H           -5.06547159931409       -2.41063309884339        0.36987894915970
H           -7.51126695794200       -2.51287161966758        0.63736172244653
H           -8.88308460628172       -0.48616939972575        0.52629373398381
H           -7.84353235479470        1.71889383521812        0.11283961052756
H           -6.10524891868199        3.79319461704666       -0.35281980186907
H           -4.11354249189343        5.20429122169528       -0.74614634846567
H           -1.87071035432098        4.21605829705491       -0.78766687491430
H           -1.53879271503497        1.79987356983814       -0.47308120589908
H           -1.89169605147315       -0.15738905864279       -1.94156728648167
H            0.01529171933637       -1.71884292387444       -1.92952671233386
H            3.52943987927393       -4.32465028599303       -0.61568532659622
H            5.57227179313191       -2.92087420918640       -0.68938291878767

          :  Hamiltonian                  GFN2-xTB          :
         :: gradient norm              0.000067796270 Eh/a0 ::
         :: HOMO-LUMO gap              0.892034269645 eV    ::
         :: SCC energy               -94.163948873379 Eh    ::
         :: -> dispersion             -0.075704652089 Eh    ::
         :: -> Gsolv                  -0.043228277272 Eh    ::
         :: repulsion energy           1.592858719119 Eh    ::

    * Orbital Energies and Occupations

         #    Occupation            Energy/Eh            Energy/eV
      -------------------------------------------------------------
         1        2.0000           -0.7333270             -19.9548
       ...           ...                  ...                  ...
        73        2.0000           -0.4324151             -11.7666
        74        2.0000           -0.4310182             -11.7286
        75        2.0000           -0.4273831             -11.6297
        76        2.0000           -0.4252884             -11.5727
        77        2.0000           -0.4232008             -11.5159
        78        2.0000           -0.4199655             -11.4278
        79        2.0000           -0.4193319             -11.4106
        80        2.0000           -0.4183394             -11.3836
        81        2.0000           -0.4071815             -11.0800
        82        2.0000           -0.3998395             -10.8802
        83        2.0000           -0.3831112             -10.4250
        84        2.0000           -0.3806149             -10.3571
        85        2.0000           -0.3658174              -9.9544 (HOMO)
        86                         -0.3330358              -9.0624 (LUMO)
        87                         -0.2858233              -7.7776
        88                         -0.2596601              -7.0657
        89                         -0.2538571              -6.9078
        90                         -0.2495830              -6.7915
        91                         -0.2455892              -6.6828
        92                         -0.2451912              -6.6720
        93                         -0.2239242              -6.0933
        94                         -0.2068837              -5.6296
        95                         -0.1987240              -5.4076
        96                         -0.1961668              -5.3380
       ...                                ...                  ...
       168                          0.7420846              20.1931
      -------------------------------------------------------------
                  HL-Gap            0.0327816 Eh            0.8920 eV

     #   Z          covCN         q      C6AA      α(0)
     1   8 O        0.858    -0.411    21.908     6.275
     2   6 C        2.830     0.224    23.299     7.910
     3   6 C        2.974    -0.012    28.314     8.728
     4   6 C        2.923    -0.013    28.335     8.729
     5   6 C        2.917    -0.016    28.401     8.739
     6   6 C        2.917    -0.017    28.428     8.743
     7   6 C        2.923    -0.012    28.325     8.728
     8   6 C        2.974    -0.014    28.353     8.734
     9   6 C        2.831     0.227    23.231     7.898
    10   8 O        0.858    -0.403    21.743     6.252
    11   6 C        2.975    -0.013    28.341     8.732
    12   6 C        2.954    -0.026    28.646     8.779
    13   6 C        2.964     0.059    26.669     8.471
    14  16 S        2.111    -0.109   145.623    20.310
    15   6 C        2.968     0.044    27.007     8.524
    16   6 C        2.957    -0.031    28.763     8.797
    17   6 C        2.923    -0.040    28.992     8.830
    18   6 C        2.912     0.069    26.456     8.434
    19   7 N        2.802    -0.042    22.052     6.975
    20   6 C        3.071     0.046    26.889     8.502
    21   6 C        2.910    -0.052    29.282     8.873
    22   6 C        2.924    -0.034    28.849     8.808
    23   6 C        2.920    -0.041    29.029     8.835
    24   6 C        2.912    -0.034    28.846     8.807
    25   6 C        3.066    -0.017    28.360     8.732
    26   6 C        3.066    -0.017    28.366     8.733
    27   6 C        2.912    -0.034    28.852     8.808
    28   6 C        2.920    -0.041    29.028     8.835
    29   6 C        2.924    -0.034    28.838     8.806
    30   6 C        2.909    -0.050    29.251     8.868
    31   6 C        3.071     0.047    26.882     8.501
    32   6 C        2.923    -0.039    28.980     8.828
    33   6 C        2.952    -0.029    28.720     8.790
    34   6 C        2.973    -0.030    28.749     8.795
    35   6 C        2.923    -0.013    28.334     8.729
    36   6 C        2.973    -0.021    28.525     8.761
    37   1 H        0.926     0.066     2.133     2.284
    38   1 H        0.926     0.063     2.165     2.301
    39   1 H        0.926     0.063     2.166     2.302
    40   1 H        0.926     0.066     2.134     2.285
    41   1 H        0.926     0.064     2.155     2.295
    42   1 H        0.926     0.059     2.213     2.326
    43   1 H        0.926     0.057     2.234     2.337
    44   1 H        0.926     0.032     2.559     2.502
    45   1 H        0.926     0.032     2.552     2.498
    46   1 H        0.926     0.030     2.587     2.515
    47   1 H        0.926     0.032     2.553     2.499
    48   1 H        0.926     0.033     2.548     2.496
    49   1 H        0.926     0.030     2.590     2.516
    50   1 H        0.926     0.031     2.574     2.509
    51   1 H        0.926     0.031     2.576     2.510
    52   1 H        0.926     0.055     2.264     2.353
    53   1 H        0.926     0.051     2.302     2.373
    54   1 H        0.926     0.066     2.126     2.280
    55   1 H        0.926     0.070     2.089     2.260

molecular dipole:
                 x           y           z       tot (Debye)
 q only:       -0.523       0.160       0.078
   full:       -0.439       0.374       0.074       1.479

 projected vibrational frequencies (cm⁻¹)
eigval :       -0.00    -0.00     0.00     0.00     0.00     0.00
eigval :        7.14    14.41    22.37    32.71    41.68    47.35
eigval :       76.07    83.17   102.69   105.19   106.76   133.69
eigval :      141.41   156.31   174.30   184.50   203.49   247.86
eigval :      252.82   267.49   270.26   280.13   291.41   328.67
eigval :      364.40   366.74   373.32   382.80   387.43   398.99
eigval :      399.19   403.10   405.34   420.43   434.85   456.89
eigval :      479.21   486.22   505.50   517.49   518.39   533.78
eigval :      540.35   579.18   591.45   606.13   611.98   615.64
eigval :      631.54   655.30   671.31   672.45   677.69   681.30
eigval :      682.61   687.45   706.90   737.71   757.18   768.83
eigval :      771.53   779.57   789.31   803.37   819.60   836.20
eigval :      867.16   874.13   879.89   887.16   897.09   898.36
eigval :      901.78   902.88   906.07   919.87   921.22   924.80
eigval :      927.54   928.15   932.74   934.85   935.16   976.47
eigval :     1004.91  1010.89  1069.58  1072.09  1079.87  1085.27
eigval :     1096.60  1105.66  1116.79  1121.83  1131.59  1151.31
eigval :     1167.44  1169.92  1172.93  1178.36  1180.49  1199.80
eigval :     1206.89  1225.31  1233.73  1235.77  1242.70  1250.54
eigval :     1259.54  1275.21  1297.10  1298.35  1313.82  1334.01
eigval :     1346.84  1354.35  1358.43  1360.24  1394.29  1400.95
eigval :     1416.02  1422.93  1426.21  1442.65  1454.31  1470.21
eigval :     1473.02  1485.59  1540.07  1550.76  1559.66  1568.18
eigval :     1571.85  1573.76  1576.68  1587.36  1596.96  1611.42
eigval :     1633.86  1650.09  3072.40  3072.84  3077.78  3078.94
eigval :     3084.27  3085.62  3086.49  3086.76  3088.91  3089.29
eigval :     3092.56  3092.88  3094.26  3094.58  3094.83  3100.83
eigval :     3101.50  3101.86  3105.04

   temp. (K)  partition function   enthalpy   heat capacity  entropy
                                   cal/mol     cal/K/mol   cal/K/mol   J/K/mol
 298.15  VIB  0.173E+13            15969.977    102.577     98.416
         ROT  0.426E+08              888.752      2.981     37.894
         INT  0.736E+20            16858.729    105.558    136.310
         TR   0.102E+29             1481.254      4.968     44.383
         TOT                       18339.9833   110.5257   180.6930   756.0196

       T/K    H(0)-H(T)+PV         H(T)/Eh          T*S/Eh         G(T)/Eh
   ------------------------------------------------------------------------
    298.15    0.292266E-01    0.433174E+00    0.858531E-01    0.347321E+00
   ------------------------------------------------------------------------

         :::::::::::::::::::::::::::::::::::::::::::::::::::::
         ::                  THERMODYNAMIC                  ::
         :::::::::::::::::::::::::::::::::::::::::::::::::::::
         :: total free energy         -92.223768953471 Eh   ::
         ::.................................................::
         :: total energy              -92.571090154072 Eh   ::
         :: zero point energy           0.403947661402 Eh   ::
         :: G(RRHO) w/o ZPVE           -0.056626460800 Eh   ::
         :: G(RRHO) contrib.            0.347321200601 Eh   ::
         :::::::::::::::::::::::::::::::::::::::::::::::::::::

           -------------------------------------------------
          | TOTAL ENERGY              -92.571090154072 Eh   |
          | TOTAL ENTHALPY            -92.137915868896 Eh   |
          | TOTAL FREE ENERGY         -92.223768953471 Eh   |
          | GRADIENT NORM               0.000067850563 Eh/α |
          | HOMO-LUMO GAP               0.892032868237 eV   |
           -------------------------------------------------

 * finished run on 2025/07/19 at 19:24:39.694
