   * xtb version 6.7.1 (edcfbbe) compiled by 'albert@albert-system' on 2024-07-22

   ID    Z sym.   atoms
    1    6 C      1, 2, 4-36, 40-45, 49-53
    2    7 N      3
    3   16 S      37, 46
    4    8 O      38, 39, 47, 48
    5    1 H      54-86

          program call               : xtb data2507/gas/ECDPTT/ECDPTT_gas_S0_crest.xyz --gfn 2 --ohess vtight --parallel 40 --molden --ceasefiles --namespace data2507/gas/ECDPTT/ECDPTT_gas_S0_finalOpt
          :  Hamiltonian                  GFN2-xTB          :
 * total energy  :  -140.9811224 Eh     change       -0.4805173E-08 Eh
 * total energy  :  -140.9811238 Eh     change       -0.1455671E-05 Eh
 * total energy  :  -140.9811256 Eh     change       -0.1774857E-05 Eh
 * total energy  :  -140.9811297 Eh     change       -0.4110565E-05 Eh
 * total energy  :  -140.9811339 Eh     change       -0.4139863E-05 Eh
 * total energy  :  -140.9811371 Eh     change       -0.3262249E-05 Eh
 * total energy  :  -140.9811402 Eh     change       -0.3067982E-05 Eh
 * total energy  :  -140.9811431 Eh     change       -0.2864102E-05 Eh
 * total energy  :  -140.9811452 Eh     change       -0.2130059E-05 Eh
 * total energy  :  -140.9811467 Eh     change       -0.1552209E-05 Eh
 * total energy  :  -140.9811734 Eh     change       -0.6809863E-06 Eh
 * total energy  :  -140.9811740 Eh     change       -0.6262480E-06 Eh
 * total energy  :  -140.9811746 Eh     change       -0.5511847E-06 Eh
 * total energy  :  -140.9811750 Eh     change       -0.4817049E-06 Eh
 * total energy  :  -140.9811755 Eh     change       -0.4358794E-06 Eh
 * total energy  :  -140.9811759 Eh     change       -0.4026911E-06 Eh
 * total energy  :  -140.9811763 Eh     change       -0.3968142E-06 Eh
 * total energy  :  -140.9811767 Eh     change       -0.3894229E-06 Eh
 * total energy  :  -140.9811767 Eh     change       -0.6428991E-08 Eh
   *** GEOMETRY OPTIMIZATION CONVERGED AFTER 44 ITERATIONS ***

 final structure:
================
86
 xtb: 6.7.1 (edcfbbe)
C           -3.97587027230908       -5.94511671007860       -0.29634931670349
C           -4.88441722275356       -5.09409904994668       -1.18317574568873
N           -5.24320133002130       -3.85692109305449       -0.54403185865622
C           -6.31255124931435       -3.67097551725776        0.30152340849211
C           -7.31481053247641       -4.55637399352569        0.67331938631134
C           -8.29388208514880       -4.09989085930217        1.53470051146670
C           -8.28582551604087       -2.79430934837770        2.02105509276641
C           -7.29027800614846       -1.90879302792028        1.66001200187023
C           -6.29305895218512       -2.34609143399693        0.79907587786407
C           -5.13449676080116       -1.71853587470702        0.23054748244606
C           -4.58832649850507       -0.45181839748274        0.34774777438419
C           -3.42845267715031       -0.14823618386310       -0.35483273599522
C           -2.80957508556709        1.18290972975619       -0.25172882719938
C           -3.53250543066448        2.32624650085795       -0.28699907540492
C           -2.94697711106261        3.64028795591308        0.02135865794031
C           -2.11256896301362        3.81684059210014        1.12396484367413
C           -1.58486035579454        5.06082534002681        1.41187492783723
C           -1.88216513472808        6.14878066980503        0.60734148766308
C           -2.72165641523516        5.98724647036590       -0.48244911014711
C           -3.25595572159573        4.74557597876484       -0.76989567819965
C           -4.96569307647249        2.34136846795608       -0.62476330217883
C           -5.45143923669789        1.63908800082526       -1.72628565312907
C           -6.79620698931797        1.67125938003659       -2.03980496403235
C           -7.67730275806324        2.40490596138101       -1.26186660870766
C           -7.20216367419371        3.11926897446918       -0.17498364014590
C           -5.85587213214595        3.09475727981253        0.13767975038136
C           -1.34679257493547        1.18161091109104       -0.10879029527740
C           -0.54243850082107        2.03928481233238       -0.85898993099977
C            0.83075777944360        1.99944729821944       -0.74234621969047
C            1.44789060075755        1.09185709658523        0.11889409116037
C            2.90855474431641        1.03323544399050        0.23176752901304
C            3.68391119741580        2.19534592278411        0.20201577722062
C            5.06211429271416        2.13310279380093        0.30328034656295
C            5.68567337919885        0.90559113878172        0.44835031942973
C            4.93072796451672       -0.24965329006748        0.47827994912709
C            3.55741108043973       -0.19704032772258        0.36487531655079
S            5.73372995759525       -1.84501352561517        0.65232379410873
O            6.17597582320343       -2.02260679038259        2.00116981688959
O            4.85037225422765       -2.84433599409751        0.10934789033201
C            7.15757822447806       -1.72629523829373       -0.43768281050712
C            7.48989643188759       -2.79867415592530       -1.24602137184468
C            8.59495811075579       -2.70830874276195       -2.07859995814234
C            9.35154475088716       -1.54598346227763       -2.10790844087287
C            9.00582682797966       -0.46972677390863       -1.30488554370322
C            7.90954953098392       -0.57002883123730       -0.46701664965109
S            7.46967866714463        0.81745527311270        0.58864820450316
O            7.83950540228116        0.52231648521808        1.93878416238767
O            8.01925644354375        2.00849791755576       -0.00457103882745
C            0.64481137757630        0.22664530271956        0.86192119062215
C           -0.72835472986013        0.27080420489069        0.74822255613825
C           -2.81828557671455       -1.13185346065881       -1.14747528195373
C           -3.34406806849590       -2.40014346222986       -1.27456881808340
C           -4.51292882603454       -2.69552337654219       -0.58528572395117
H           -3.72071927119089       -6.87352460738534       -0.80023807066996
H           -3.05934252972257       -5.40545249302392       -0.06960919760947
H           -4.47756231835829       -6.17989805105495        0.63956970745468
H           -4.37923846946365       -4.86363499604907       -2.12527754974094
H           -5.80130685182506       -5.64229856200541       -1.41619808272358
H           -7.33676581481595       -5.57233831677813        0.30819488276700
H           -9.08371266843804       -4.77112084048889        1.83874027746472
H           -9.07095348153650       -2.47662124148927        2.69087834920285
H           -7.28203478659204       -0.89625661878305        2.03468394434432
H           -5.05063255940009        0.28461994255824        0.98674011520173
H           -1.89143123716784        2.97477580641818        1.76337860539249
H           -0.94237128327116        5.18400458676322        2.27165088362462
H           -1.46739221673922        7.12001770223976        0.83323516599988
H           -2.96291199500527        6.83349400894669       -1.10927632668141
H           -3.91015918446773        4.62044927447725       -1.62130268309719
H           -4.76527660015892        1.07358044126285       -2.33953613668831
H           -7.16011825729676        1.12279190233847       -2.89643324954351
H           -8.72929691349354        2.42364068580587       -1.50537242236745
H           -7.88342441857867        3.69863492603940        0.43128868514735
H           -5.48627783763668        3.64996461590604        0.98852142688918
H           -1.00289302510009        2.73031886471429       -1.54914324456525
H            1.43622226022871        2.65429630773008       -1.35136757813963
H            3.19764676842420        3.15517804204232        0.11507726618472
H            5.67572765870051        3.01970155859775        0.27184730948180
H            3.01018051256354       -1.12671949865400        0.35738314958183
H            6.87103428619410       -3.68135273444641       -1.20862507097232
H            8.86393985272371       -3.54441484296511       -2.70589147778662
H           10.21024906961733       -1.47630771886808       -2.75801954428407
H            9.56319057801762        0.45373581464773       -1.31312694066091
H            1.10363148239478       -0.46816751949916        1.54918567623775
H           -1.33966998767819       -0.39960958004183        1.33486721436620
H           -1.91348594438142       -0.87943043455339       -1.68208745250606
H           -2.85018070701188       -3.13435308159621       -1.89325531455294

          :  Hamiltonian                  GFN2-xTB          :
         :: gradient norm              0.000044481714 Eh/a0 ::
         :: HOMO-LUMO gap              1.737126923306 eV    ::
         :: SCC energy              -143.359870323845 Eh    ::
         :: -> dispersion             -0.129261558008 Eh    ::
         :: repulsion energy           2.378693655571 Eh    ::

    * Orbital Energies and Occupations

         #    Occupation            Energy/Eh            Energy/eV
      -------------------------------------------------------------
         1        2.0000           -0.7865331             -21.4027
       ...           ...                  ...                  ...
       117        2.0000           -0.4203926             -11.4395
       118        2.0000           -0.4195086             -11.4154
       119        2.0000           -0.4181226             -11.3777
       120        2.0000           -0.4109743             -11.1832
       121        2.0000           -0.4102724             -11.1641
       122        2.0000           -0.4088668             -11.1258
       123        2.0000           -0.4084026             -11.1132
       124        2.0000           -0.4039068             -10.9909
       125        2.0000           -0.4018959             -10.9361
       126        2.0000           -0.4010132             -10.9121
       127        2.0000           -0.3799372             -10.3386
       128        2.0000           -0.3737244             -10.1696
       129        2.0000           -0.3560910              -9.6897 (HOMO)
       130                         -0.2922527              -7.9526 (LUMO)
       131                         -0.2793894              -7.6026
       132                         -0.2729172              -7.4265
       133                         -0.2670259              -7.2661
       134                         -0.2609895              -7.1019
       135                         -0.2446541              -6.6574
       136                         -0.2345725              -6.3830
       137                         -0.2293120              -6.2399
       138                         -0.2245180              -6.1094
       139                         -0.2243241              -6.1042
       140                         -0.2211930              -6.0190
       ...                                ...                  ...
       255                          1.2492420              33.9936
      -------------------------------------------------------------
                  HL-Gap            0.0638382 Eh            1.7371 eV

     #   Z          covCN         q      C6AA      α(0)
     1   6 C        3.752    -0.110    22.670     6.790
     2   6 C        3.739     0.005    20.577     6.473
     3   7 N        2.797    -0.049    22.176     6.994
     4   6 C        3.083     0.045    26.903     8.503
     5   6 C        2.910    -0.053    29.308     8.877
     6   6 C        2.924    -0.034    28.840     8.807
     7   6 C        2.920    -0.042    29.035     8.836
     8   6 C        2.912    -0.032    28.799     8.800
     9   6 C        3.070    -0.019    28.397     8.738
    10   6 C        3.069    -0.019    28.404     8.739
    11   6 C        2.916    -0.036    28.885     8.813
    12   6 C        2.979     0.000    28.013     8.682
    13   6 C        2.968    -0.006    28.161     8.704
    14   6 C        2.967    -0.006    28.175     8.707
    15   6 C        2.978     0.014    27.685     8.631
    16   6 C        2.924    -0.033    28.829     8.805
    17   6 C        2.918    -0.030    28.754     8.793
    18   6 C        2.920    -0.032    28.786     8.798
    19   6 C        2.918    -0.030    28.749     8.793
    20   6 C        2.925    -0.033    28.817     8.803
    21   6 C        2.979     0.016    27.647     8.625
    22   6 C        2.924    -0.031    28.783     8.798
    23   6 C        2.919    -0.029    28.722     8.788
    24   6 C        2.920    -0.031    28.762     8.795
    25   6 C        2.918    -0.030    28.738     8.791
    26   6 C        2.925    -0.032    28.807     8.802
    27   6 C        2.978     0.021    27.531     8.607
    28   6 C        2.922    -0.031    28.781     8.798
    29   6 C        2.922    -0.033    28.822     8.804
    30   6 C        2.977     0.006    27.891     8.663
    31   6 C        2.976     0.028    27.383     8.584
    32   6 C        2.925    -0.027    28.673     8.781
    33   6 C        2.953    -0.020    28.506     8.757
    34   6 C        3.003    -0.086    30.150     9.007
    35   6 C        3.002    -0.082    30.044     8.991
    36   6 C        2.965    -0.027    28.671     8.783
    37  16 S        3.846     0.977   107.321    17.436
    38   8 O        0.860    -0.521    24.262     6.604
    39   8 O        0.860    -0.537    24.621     6.653
    40   6 C        3.002    -0.080    29.988     8.983
    41   6 C        2.956    -0.018    28.459     8.750
    42   6 C        2.920    -0.018    28.467     8.749
    43   6 C        2.920    -0.018    28.464     8.749
    44   6 C        2.956    -0.018    28.457     8.750
    45   6 C        3.003    -0.080    29.986     8.983
    46  16 S        3.841     0.976   107.349    17.438
    47   8 O        0.860    -0.522    24.270     6.605
    48   8 O        0.860    -0.536    24.592     6.649
    49   6 C        2.922    -0.032    28.806     8.801
    50   6 C        2.923    -0.030    28.756     8.794
    51   6 C        2.928    -0.038    28.950     8.824
    52   6 C        2.908    -0.054    29.337     8.881
    53   6 C        3.083     0.044    26.914     8.505
    54   1 H        0.925     0.045     2.382     2.414
    55   1 H        0.925     0.047     2.358     2.401
    56   1 H        0.925     0.047     2.359     2.402
    57   1 H        0.924     0.048     2.349     2.397
    58   1 H        0.924     0.048     2.341     2.393
    59   1 H        0.926     0.024     2.669     2.555
    60   1 H        0.926     0.028     2.610     2.526
    61   1 H        0.926     0.027     2.623     2.533
    62   1 H        0.926     0.030     2.590     2.517
    63   1 H        0.926     0.031     2.567     2.506
    64   1 H        0.926     0.028     2.615     2.529
    65   1 H        0.926     0.029     2.595     2.519
    66   1 H        0.926     0.030     2.586     2.515
    67   1 H        0.926     0.030     2.588     2.516
    68   1 H        0.926     0.029     2.603     2.523
    69   1 H        0.926     0.029     2.603     2.523
    70   1 H        0.926     0.029     2.600     2.521
    71   1 H        0.926     0.030     2.589     2.516
    72   1 H        0.926     0.030     2.591     2.517
    73   1 H        0.926     0.028     2.614     2.528
    74   1 H        0.926     0.038     2.479     2.462
    75   1 H        0.926     0.035     2.517     2.481
    76   1 H        0.926     0.068     2.111     2.272
    77   1 H        0.926     0.078     2.004     2.214
    78   1 H        0.926     0.078     1.997     2.210
    79   1 H        0.926     0.080     1.977     2.199
    80   1 H        0.926     0.069     2.101     2.267
    81   1 H        0.926     0.069     2.099     2.265
    82   1 H        0.926     0.081     1.972     2.196
    83   1 H        0.926     0.040     2.452     2.449
    84   1 H        0.926     0.040     2.446     2.446
    85   1 H        0.926     0.025     2.652     2.547
    86   1 H        0.926     0.025     2.652     2.547

molecular dipole:
                 x           y           z       tot (Debye)
 q only:       -1.705      -0.388      -2.771
   full:       -1.527      -0.484      -2.737       8.062

 projected vibrational frequencies (cm⁻¹)
eigval :       -0.00    -0.00    -0.00     0.00     0.00     0.00
eigval :        9.43    11.12    12.59    20.32    21.28    22.69
eigval :       34.69    42.81    48.07    49.58    54.06    60.66
eigval :       68.88    74.48    77.69    80.01    93.95    97.78
eigval :      101.92   109.43   113.28   120.88   127.97   147.81
eigval :      161.74   171.49   179.33   189.83   202.73   215.64
eigval :      226.83   231.38   232.82   241.33   250.32   265.25
eigval :      268.41   276.69   281.14   295.54   298.09   315.25
eigval :      320.35   331.33   344.16   371.21   373.19   375.60
eigval :      380.51   390.80   392.92   405.00   415.05   423.86
eigval :      426.27   430.86   440.01   458.01   459.93   466.97
eigval :      480.36   494.57   506.07   517.01   521.02   531.20
eigval :      537.58   547.87   554.43   561.71   571.73   580.58
eigval :      585.91   588.14   594.01   597.53   604.73   610.94
eigval :      627.95   645.18   650.47   668.41   673.76   675.43
eigval :      679.79   681.06   684.73   688.10   704.40   709.71
eigval :      710.29   731.69   751.77   760.15   771.09   772.61
eigval :      780.26   799.44   806.28   815.91   819.61   843.02
eigval :      858.11   863.58   871.70   877.36   877.63   879.13
eigval :      880.40   893.76   894.56   900.51   901.29   902.31
eigval :      905.82   909.81   920.24   920.33   921.85   923.84
eigval :      929.80   930.22   930.69   931.10   931.58   932.23
eigval :      960.84   976.66   982.68   988.31  1004.12  1012.23
eigval :     1015.28  1038.39  1067.55  1069.96  1073.25  1074.97
eigval :     1084.02  1085.71  1087.59  1108.52  1118.49  1122.03
eigval :     1123.18  1136.13  1136.91  1143.53  1144.96  1149.50
eigval :     1151.35  1160.69  1162.84  1173.80  1175.59  1181.96
eigval :     1182.13  1185.70  1198.98  1199.22  1203.14  1208.89
eigval :     1214.06  1217.33  1234.17  1240.72  1247.22  1251.31
eigval :     1264.32  1271.12  1272.87  1281.65  1284.01  1289.38
eigval :     1300.59  1306.23  1314.40  1316.23  1317.41  1318.69
eigval :     1321.24  1325.76  1328.09  1349.77  1368.64  1374.16
eigval :     1379.08  1405.05  1405.82  1407.92  1423.40  1429.30
eigval :     1430.37  1431.29  1441.24  1444.93  1469.47  1470.14
eigval :     1475.02  1480.78  1488.09  1488.90  1492.58  1499.03
eigval :     1545.84  1556.42  1564.18  1566.86  1568.85  1577.69
eigval :     1579.18  1582.48  1585.05  1586.56  1594.31  1595.61
eigval :     1600.29  1609.51  1620.07  2959.34  2970.22  3041.71
eigval :     3045.82  3047.89  3069.54  3070.79  3073.00  3073.20
eigval :     3073.38  3074.10  3079.58  3079.67  3079.82  3080.53
eigval :     3080.93  3085.59  3086.25  3086.40  3086.55  3090.49
eigval :     3092.51  3092.64  3093.08  3093.52  3094.60  3094.67
eigval :     3096.81  3099.00  3105.56  3107.38  3108.18  3109.35

   temp. (K)  partition function   enthalpy   heat capacity  entropy
                                   cal/mol     cal/K/mol   cal/K/mol   J/K/mol
 298.15  VIB  0.399E+22            26669.583    162.699    168.625
         ROT  0.160E+09              888.752      2.981     40.522
         INT  0.638E+30            27558.335    165.680    209.147
         TR   0.190E+29             1481.254      4.968     45.614
         TOT                       29039.5888   170.6482   254.7610  1065.9200

       T/K    H(0)-H(T)+PV         H(T)/Eh          T*S/Eh         G(T)/Eh
   ------------------------------------------------------------------------
    298.15    0.462775E-01    0.694306E+00    0.121045E+00    0.573260E+00
   ------------------------------------------------------------------------

         :::::::::::::::::::::::::::::::::::::::::::::::::::::
         ::                  THERMODYNAMIC                  ::
         :::::::::::::::::::::::::::::::::::::::::::::::::::::
         :: total free energy        -140.407916308765 Eh   ::
         ::.................................................::
         :: total energy             -140.981176668273 Eh   ::
         :: zero point energy           0.648027998167 Eh   ::
         :: G(RRHO) w/o ZPVE           -0.074767638659 Eh   ::
         :: G(RRHO) contrib.            0.573260359508 Eh   ::
         :::::::::::::::::::::::::::::::::::::::::::::::::::::

           -------------------------------------------------
          | TOTAL ENERGY             -140.981176668273 Eh   |
          | TOTAL ENTHALPY           -140.286871139625 Eh   |
          | TOTAL FREE ENERGY        -140.407916308765 Eh   |
          | GRADIENT NORM               0.000044490468 Eh/α |
          | HOMO-LUMO GAP               1.737127027942 eV   |
           -------------------------------------------------

 * finished run on 2025/09/13 at 13:17:54.398
