   * xtb version 6.7.1 (edcfbbe) compiled by 'albert@albert-system' on 2024-07-22

   ID    Z sym.   atoms
    1    6 C      1, 2, 4-36, 40-45, 49-53
    2    7 N      3
    3   16 S      37, 46
    4    8 O      38, 39, 47, 48
    5    1 H      54-86

          program call               : xtb data2507/gas/ECDPTT/ECDPTT_gas_T1_crest.xyz --gfn 2 --spinpol --tblite --uhf 2 --ohess vtight --parallel 40 --molden --ceasefiles --namespace data2507/gas/ECDPTT/ECDPTT_gas_T1_finalOpt
 * total energy  :  -140.9219884 Eh     change        0.1063445E-06 Eh
 * total energy  :  -140.9220205 Eh     change       -0.3217946E-04 Eh
 * total energy  :  -140.9220315 Eh     change       -0.1091355E-04 Eh
 * total energy  :  -140.9220356 Eh     change       -0.4168615E-05 Eh
 * total energy  :  -140.9220415 Eh     change       -0.5854956E-05 Eh
 * total energy  :  -140.9220477 Eh     change       -0.6250838E-05 Eh
 * total energy  :  -140.9220528 Eh     change       -0.5090453E-05 Eh
 * total energy  :  -140.9220569 Eh     change       -0.4105460E-05 Eh
 * total energy  :  -140.9220623 Eh     change       -0.5414960E-05 Eh
 * total energy  :  -140.9220694 Eh     change       -0.7075665E-05 Eh
 * total energy  :  -140.9221525 Eh     change       -0.2980038E-06 Eh
 * total energy  :  -140.9221527 Eh     change       -0.1673044E-06 Eh
 * total energy  :  -140.9221529 Eh     change       -0.1599463E-06 Eh
 * total energy  :  -140.9221531 Eh     change       -0.2238867E-06 Eh
 * total energy  :  -140.9221532 Eh     change       -0.1327876E-06 Eh
 * total energy  :  -140.9221534 Eh     change       -0.1924624E-06 Eh
 * total energy  :  -140.9221536 Eh     change       -0.1681204E-06 Eh
 * total energy  :  -140.9221538 Eh     change       -0.2295244E-06 Eh
 * total energy  :  -140.9221538 Eh     change       -0.1458142E-07 Eh
   *** GEOMETRY OPTIMIZATION CONVERGED AFTER 68 ITERATIONS ***

 final structure:
================
86
 xtb: 6.7.1 (edcfbbe)
C           -7.34715821008984       -3.89356569742353       -2.80503664383382
C           -7.50396890949741       -3.52582625789701       -1.32990279647505
N           -6.23028754584134       -3.29098953303123       -0.70483246648974
C           -5.43348254299975       -4.25529512953043       -0.12563092319445
C           -5.66487138611722       -5.61283305505309        0.04184968335473
C           -4.68906650526630       -6.36085777467904        0.67410443929445
C           -3.50746895776629       -5.78094939236923        1.12845821865351
C           -3.26842166697801       -4.43044542801651        0.96151004263494
C           -4.23488687036641       -3.65948204431423        0.33221496137742
C           -4.31790783504256       -2.26662951651471       -0.01616510920543
C           -3.46486186917894       -1.19838564376007        0.16497210959042
C           -3.84234181427534        0.07377067338084       -0.29922097724083
C           -3.01526208537854        1.22351864242955       -0.09248409504583
C           -3.66713955504357        2.54112831855711       -0.00444734135254
C           -4.72945472049535        2.70606496012788        0.94058363438567
C           -5.76615127245797        3.63853129889180        0.74109518014416
C           -6.80370270883918        3.74516813394989        1.64031504319474
C           -6.84762342828944        2.93552951089823        2.76709094931499
C           -5.84321700188534        1.99957021547162        2.97465957655926
C           -4.80667955811738        1.87780964443044        2.07748065221491
C           -3.20864916340492        3.58775073384938       -0.86646783685797
C           -2.56543994241532        3.28037010584306       -2.08150796119671
C           -2.09430958798949        4.27594292715717       -2.90645385536877
C           -2.22907176260783        5.61051209078873       -2.54703668761367
C           -2.83680695742148        5.93466810509168       -1.34191298820925
C           -3.32083253972424        4.94666113037296       -0.51343234529394
C           -1.60112714089324        1.15903374928876        0.03719387546103
C           -0.88824338544345        2.19140214266477        0.68821035571347
C            0.47725319239843        2.16328493443961        0.79023660671024
C            1.22734172467672        1.11106072348746        0.24331458542139
C            2.67792572111409        1.07505800496188        0.36002605260862
C            3.43869494117903        2.25339436976762        0.38843347903183
C            4.81410740609473        2.21393456021305        0.50060885575852
C            5.46533197967130        0.99402188301977        0.59823839438485
C            4.72998747517263       -0.17625448851094        0.56685952922710
C            3.35937050930578       -0.14710776175161        0.44323547687198
S            5.56298604183146       -1.76021883613465        0.66980053925765
O            6.00653985356427       -2.00362235169624        2.00840866795546
O            4.70381985285367       -2.74986972549911        0.07049912651684
C            6.98887489084433       -1.55919088649803       -0.40694704977530
C            7.34496415342603       -2.58193118840986       -1.26778878635634
C            8.45002281860999       -2.42736450508525       -2.09076707522899
C            9.18338391027743       -1.25027440930815       -2.05803306400248
C            8.81418756700551       -0.22387113531957       -1.20222197508812
C            7.71799107068460       -0.38838642627928       -0.37441999337009
S            7.24447045641172        0.93408172746418        0.74843627805808
O            7.61816226347436        0.57396298698225        2.08259032331967
O            7.77864831760114        2.16401166020861        0.22227221285647
C            0.53042400186369        0.09532416343014       -0.42810538540594
C           -0.83567466669424        0.11644942438955       -0.53300000644483
C           -5.10390232324500        0.21928110833596       -0.92752113052223
C           -5.95753097064020       -0.83720938874982       -1.12229871133496
C           -5.56841876521386       -2.09464567113658       -0.66472626350995
H           -8.32133050537663       -4.06855967401435       -3.25347541796719
H           -6.85269962564087       -3.08803419041728       -3.34303079356327
H           -6.74704606352607       -4.79480484865357       -2.90668200420764
H           -8.11079672285961       -2.62177757901264       -1.23093217036031
H           -8.00899584607316       -4.33362013270709       -0.79351533487919
H           -6.57205070443317       -6.08084682942678       -0.30969400027224
H           -4.84605767374344       -7.41982888573404        0.81615501685081
H           -2.76939703278916       -6.39979191204704        1.61584108417934
H           -2.35107635351669       -3.98158096590725        1.31081268560290
H           -2.54187825337463       -1.32764010159738        0.70845954636475
H           -5.76923471748045        4.24131002013402       -0.15514247911972
H           -7.59415366580632        4.46006466816368        1.46131953420033
H           -7.66092665494064        3.02698964757819        3.47112515346639
H           -5.87384039397665        1.36264172587249        3.84684843825075
H           -4.02134012462970        1.15798598334514        2.25526523833918
H           -2.46791695336629        2.24519374550089       -2.37454914457865
H           -1.61639028700140        4.01642657940687       -3.84009558967495
H           -1.85495964547983        6.38921937659705       -3.19436913198436
H           -2.92372689885780        6.97021291712966       -1.04553504878629
H           -3.74872639307415        5.21038010872355        0.44250957830849
H           -1.44241096986832        2.99822487124920        1.14466766817561
H            0.98170644337438        2.94699967548991        1.33532725890353
H            2.94280912400070        3.20723788846634        0.29452903326627
H            5.40997366144687        3.11310717182372        0.50496418176824
H            2.83340704901533       -1.08851591951967        0.43159679546008
H            6.74378950775616       -3.47749539544704       -1.27772036149897
H            8.73726815723035       -3.22477410633601       -2.75911332387654
H           10.04211648333940       -1.13045925687042       -2.70089869590852
H            9.35278909674447        0.70981361084417       -1.16090138583863
H            1.08430555181146       -0.69867105581052       -0.90645882804857
H           -1.33596846227503       -0.64750937692321       -1.10938857943516
H           -5.38456958161190        1.19734854615172       -1.28890264439989
H           -6.90338302286585       -0.68780265528720       -1.62104998790577

 projected vibrational frequencies (cm⁻¹)
eigval :       -0.00    -0.00     0.00     0.00     0.00     0.00
eigval :        7.67    11.19    12.36    15.26    18.90    23.39
eigval :       32.97    43.15    45.36    48.57    50.48    64.41
eigval :       72.87    78.83    80.24    88.49    93.58    97.73
eigval :      100.27   116.20   122.50   124.55   129.02   157.64
eigval :      164.59   166.93   179.67   190.39   197.92   211.53
eigval :      213.33   237.36   240.33   251.18   257.20   269.73
eigval :      274.09   277.72   287.13   292.43   306.21   310.64
eigval :      317.90   326.39   341.82   362.67   367.22   379.49
eigval :      384.71   387.09   397.23   400.13   412.22   418.66
eigval :      423.14   427.77   434.69   452.34   456.27   464.76
eigval :      473.58   476.74   503.83   513.29   516.79   523.41
eigval :      531.45   534.22   551.23   564.49   566.32   575.29
eigval :      579.09   583.47   585.64   591.69   599.13   605.37
eigval :      628.39   631.72   646.37   656.77   662.00   668.02
eigval :      671.84   678.59   680.48   685.10   693.62   708.56
eigval :      709.43   730.80   744.82   748.55   764.02   771.70
eigval :      779.74   801.52   805.47   808.48   814.27   834.68
eigval :      849.78   857.28   859.24   864.97   869.00   880.37
eigval :      882.34   885.53   888.30   893.81   899.42   902.20
eigval :      902.51   910.52   915.85   920.95   921.29   921.43
eigval :      923.60   924.43   925.02   930.22   938.23   942.55
eigval :      949.28   973.93   976.17   983.45   992.97   999.71
eigval :     1010.82  1016.81  1066.36  1067.14  1069.98  1073.47
eigval :     1080.55  1080.84  1086.76  1105.94  1109.52  1117.03
eigval :     1121.97  1132.27  1135.22  1136.52  1143.67  1147.87
eigval :     1152.59  1154.24  1165.06  1173.22  1173.98  1179.77
eigval :     1180.19  1183.81  1192.30  1198.80  1204.92  1211.21
eigval :     1215.92  1218.03  1232.72  1240.57  1244.12  1250.84
eigval :     1261.14  1270.96  1274.94  1277.08  1283.30  1292.69
eigval :     1307.83  1312.85  1314.08  1314.90  1321.74  1323.74
eigval :     1326.69  1328.09  1329.33  1341.25  1349.79  1370.25
eigval :     1373.31  1383.07  1404.23  1408.64  1420.03  1423.71
eigval :     1426.77  1429.01  1430.84  1431.45  1438.84  1440.44
eigval :     1454.53  1460.75  1467.47  1478.35  1485.79  1486.74
eigval :     1496.73  1498.89  1529.22  1541.86  1542.78  1544.64
eigval :     1550.62  1563.96  1568.58  1578.43  1578.81  1582.42
eigval :     1584.19  1591.89  1609.87  2962.43  2972.46  3041.28
eigval :     3045.63  3049.61  3070.96  3072.04  3073.11  3074.14
eigval :     3077.99  3078.58  3078.70  3080.10  3083.66  3084.47
eigval :     3085.20  3087.01  3088.41  3089.27  3090.39  3090.71
eigval :     3091.38  3093.04  3093.90  3095.25  3095.96  3097.27
eigval :     3098.07  3099.80  3107.14  3107.80  3108.28  3108.77

   temp. (K)  partition function   enthalpy   heat capacity  entropy
                                   cal/mol     cal/K/mol   cal/K/mol   J/K/mol
 298.15  VIB  0.604E+22            26748.667    163.595    168.957
         ROT  0.161E+09              888.752      2.981     40.539
         INT  0.975E+30            27637.419    166.576    209.496
         TR   0.190E+29             1481.254      4.968     45.614
         TOT                       29118.6731   171.5437   255.1104  1067.3819

       T/K    H(0)-H(T)+PV         H(T)/Eh          T*S/Eh         G(T)/Eh
   ------------------------------------------------------------------------
    298.15    0.464036E-01    0.692169E+00    0.121211E+00    0.570958E+00
   ------------------------------------------------------------------------

         :::::::::::::::::::::::::::::::::::::::::::::::::::::
         ::                  THERMODYNAMIC                  ::
         :::::::::::::::::::::::::::::::::::::::::::::::::::::
         :: total free energy        -140.351196147478 Eh   ::
         ::.................................................::
         :: total energy             -140.922153830149 Eh   ::
         :: zero point energy           0.645765299896 Eh   ::
         :: G(RRHO) w/o ZPVE           -0.074807617225 Eh   ::
         :: G(RRHO) contrib.            0.570957682671 Eh   ::
         :::::::::::::::::::::::::::::::::::::::::::::::::::::

           -------------------------------------------------
          | TOTAL ENERGY             -140.922153830149 Eh   |
          | TOTAL ENTHALPY           -140.229984971016 Eh   |
          | TOTAL FREE ENERGY        -140.351196147478 Eh   |
          | GRADIENT NORM               0.000042608892 Eh/α |
           -------------------------------------------------

 * finished run on 2025/09/13 at 13:30:01.140
