   * xtb version 6.7.1 (edcfbbe) compiled by 'albert@albert-system' on 2024-07-22

   ID    Z sym.   atoms
    1    6 C      1, 2, 4-36, 40-45, 49-53
    2    7 N      3
    3   16 S      37, 46
    4    8 O      38, 39, 47, 48
    5    1 H      54-86

          program call               : xtb data2507/gas/ECDPTT/ECDPTT.xyz --gfn 2 --ohess vtight --parallel 40 --molden --ceasefiles --namespace data2507/gas/ECDPTT/ECDPTT_gas_S0_preOpt
          :  Hamiltonian                  GFN2-xTB          :
 * total energy  :  -140.9520150 Eh     change       -0.4562480E-08 Eh
 * total energy  :  -140.9662506 Eh     change       -0.1423565E-01 Eh
 * total energy  :  -140.9706778 Eh     change       -0.4427187E-02 Eh
 * total energy  :  -140.9720182 Eh     change       -0.1340356E-02 Eh
 * total energy  :  -140.9730133 Eh     change       -0.9951306E-03 Eh
 * total energy  :  -140.9736160 Eh     change       -0.6027495E-03 Eh
 * total energy  :  -140.9742179 Eh     change       -0.6018260E-03 Eh
 * total energy  :  -140.9749162 Eh     change       -0.6983260E-03 Eh
 * total energy  :  -140.9757090 Eh     change       -0.7927943E-03 Eh
 * total energy  :  -140.9765554 Eh     change       -0.8464532E-03 Eh
 * total energy  :  -140.9810070 Eh     change       -0.3074841E-06 Eh
 * total energy  :  -140.9810072 Eh     change       -0.2329000E-06 Eh
 * total energy  :  -140.9810075 Eh     change       -0.2186189E-06 Eh
 * total energy  :  -140.9810077 Eh     change       -0.2217077E-06 Eh
 * total energy  :  -140.9810079 Eh     change       -0.2359791E-06 Eh
 * total energy  :  -140.9810082 Eh     change       -0.2663909E-06 Eh
 * total energy  :  -140.9810085 Eh     change       -0.3240880E-06 Eh
 * total energy  :  -140.9810089 Eh     change       -0.3725455E-06 Eh
 * total energy  :  -140.9810089 Eh     change       -0.9661335E-08 Eh
   *** GEOMETRY OPTIMIZATION CONVERGED AFTER 94 ITERATIONS ***

 final structure:
================
86
 xtb: 6.7.1 (edcfbbe)
C           -8.14752329157015       -2.05028498854458       -0.28419050619883
C           -7.07863641299844       -2.60847369192024       -1.22330000305963
N           -5.77644406084083       -2.59298192534778       -0.61378525395287
C           -5.24055664584220       -3.59394099802936        0.16260136992717
C           -5.75535315974774       -4.84341487930913        0.47990098272401
C           -4.99275999719370       -5.67363298863406        1.27855158508697
C           -3.74539335108933       -5.27914815847640        1.75769702791153
C           -3.22795433008577       -4.03683399454184        1.45057022572105
C           -3.97640536139737       -3.18401359548957        0.65044471677106
C           -3.76305904490594       -1.85524746897740        0.15168903187666
C           -2.73304591881684       -0.93924385423251        0.29252117010395
C           -2.84576895503971        0.30578550616563       -0.31432834504842
C           -1.76106383467880        1.29042388414526       -0.17450656006659
C           -1.99444507148384        2.60119287976626        0.06935171940589
C           -0.93216420006800        3.61740747681989       -0.00365174619360
C           -0.03452412052957        3.64426224699089       -1.06980132842354
C            0.95082739026555        4.61060110098041       -1.13273823016796
C            1.05440644184693        5.56758939121974       -0.13634963550059
C            0.15696717884360        5.56010437091812        0.91855336072560
C           -0.83301996593653        4.59776404935715        0.98208193581195
C           -3.32915017565603        3.11328261357755        0.41931279953007
C           -3.80468281405336        4.28553977059780       -0.16555219968794
C           -5.04974405649272        4.78327967395690        0.16968200647879
C           -5.83284873327045        4.12735961870160        1.10480204070359
C           -5.36049832982635        2.97230240937152        1.70682702760789
C           -4.11972524240570        2.46786204965089        1.36875247141941
C           -0.40068847640538        0.75532961758314       -0.32536081808716
C           -0.11586089849891       -0.16578242449296       -1.33323350623160
C            1.15649330638151       -0.67553835033803       -1.48601919664473
C            2.18740425887333       -0.28239640496763       -0.63322159978091
C            3.54797419508072       -0.79932632076614       -0.81211607760690
C            3.77474857992135       -2.12951985769090       -1.17517936383627
C            5.06033770700710       -2.60957272303861       -1.34879669082023
C            6.13983596848882       -1.76064094661629       -1.17414481110848
C            5.92888183923995       -0.44531590916991       -0.81213834743702
C            4.65077923632512        0.03730921588775       -0.62326715438756
S            7.32413452228560        0.65957195549920       -0.58086836962476
O            7.86550299454374        1.03372239690285       -1.85109776239859
O            6.90426761413441        1.71975643924552        0.29833508704352
C            8.52149256200458       -0.34259683260633        0.30974105396134
C            9.23106952053187        0.21486834460012        1.35845165725779
C           10.16443822079119       -0.55475701838918        2.03594072664322
C           10.37364183894358       -1.87670589001471        1.67126110972246
C            9.65034044318270       -2.43370947248287        0.62762997112725
C            8.72951448443079       -1.65729162271474       -0.05295530284599
S            7.80610110444295       -2.37109600138147       -1.42017547378766
O            8.32826739221946       -1.87326927390855       -2.65579637053122
O            7.78646263235530       -3.79882180213456       -1.23620604016983
C            1.89773423374333        0.61943348503135        0.39127444779439
C            0.62412065786399        1.12231279349502        0.54756454246749
C           -3.97950801032908        0.60446239910226       -1.08436961766507
C           -5.01163959205349       -0.29476913708742       -1.24278793943617
C           -4.90783083406658       -1.52987796256563       -0.61554312517147
H           -7.91066028244301       -1.02353298897504       -0.01464799896430
H           -9.12076078870667       -2.07104929808742       -0.76725472820414
H           -8.19455174569196       -2.64348396834674        0.62617291950403
H           -7.32074233778413       -3.63877730798224       -1.49750734780794
H           -7.03924017978637       -2.01442208567424       -2.14066488836956
H           -6.72165433135356       -5.16499589925288        0.12105288261974
H           -5.37306437731727       -6.65045566451764        1.53916214041356
H           -3.18068884406784       -5.95798322743707        2.37927792748063
H           -2.26213082504037       -3.72930972893989        1.82281153283851
H           -1.86095338161714       -1.18113819874221        0.88255422631156
H           -0.12168756126881        2.90889289521971       -1.85637901039995
H            1.63988357866483        4.61983830042355       -1.96449670763088
H            1.82780774388326        6.31947697038769       -0.18540071676485
H            0.22832309165678        6.30826988678912        1.69466218521124
H           -1.53091568732529        4.59080225433437        1.80766784257566
H           -3.19498208452753        4.79761002715532       -0.89670698204631
H           -5.41008915427570        5.68777688903224       -0.29863978512141
H           -6.80475971082070        4.51804261988791        1.36818453082340
H           -5.96158919757072        2.46423918980882        2.44707898815560
H           -3.74995185818073        1.57376395028470        1.84863640557579
H           -0.90158259448354       -0.46627750103379       -2.01132553356972
H            1.36370819092598       -1.36062861681027       -2.29469422988622
H            2.93491485833736       -2.79573904774049       -1.30209721909012
H            5.25343612531635       -3.63764994413332       -1.61219063334184
H            4.53075076857334        1.07246918645257       -0.34410879887019
H            9.03273174013932        1.24117683677743        1.62465810431273
H           10.72683726530815       -0.12298278238970        2.84969098150726
H           11.09907303221744       -2.47522230774752        2.20079341298595
H            9.77745746195313       -3.46174782334015        0.32680701234014
H            2.67465760736923        0.90645246173939        1.08390847856708
H            0.41249099981492        1.80368922111244        1.35776042668618
H           -4.03599900938655        1.56437401820442       -1.57525099289194
H           -5.87151795096394       -0.03479651223855       -1.84157011682897

          :  Hamiltonian                  GFN2-xTB          :
         :: gradient norm              0.000048269291 Eh/a0 ::
         :: HOMO-LUMO gap              1.797569111957 eV    ::
         :: SCC energy              -143.359349932508 Eh    ::
         :: -> dispersion             -0.129029329152 Eh    ::
         :: repulsion energy           2.378341037504 Eh    ::

    * Orbital Energies and Occupations

         #    Occupation            Energy/Eh            Energy/eV
      -------------------------------------------------------------
         1        2.0000           -0.7855660             -21.3763
       ...           ...                  ...                  ...
       117        2.0000           -0.4215912             -11.4721
       118        2.0000           -0.4190391             -11.4026
       119        2.0000           -0.4177936             -11.3687
       120        2.0000           -0.4112107             -11.1896
       121        2.0000           -0.4092023             -11.1350
       122        2.0000           -0.4080408             -11.1034
       123        2.0000           -0.4076297             -11.0922
       124        2.0000           -0.4044336             -11.0052
       125        2.0000           -0.4027738             -10.9600
       126        2.0000           -0.4003178             -10.8932
       127        2.0000           -0.3815268             -10.3819
       128        2.0000           -0.3737406             -10.1700
       129        2.0000           -0.3571118              -9.7175 (HOMO)
       130                         -0.2910524              -7.9199 (LUMO)
       131                         -0.2789940              -7.5918
       132                         -0.2719716              -7.4007
       133                         -0.2661532              -7.2424
       134                         -0.2605926              -7.0911
       135                         -0.2461189              -6.6972
       136                         -0.2337395              -6.3604
       137                         -0.2287107              -6.2235
       138                         -0.2248250              -6.1178
       139                         -0.2235244              -6.0824
       140                         -0.2206987              -6.0055
       ...                                ...                  ...
       255                          1.2498103              34.0091
      -------------------------------------------------------------
                  HL-Gap            0.0660595 Eh            1.7976 eV

     #   Z          covCN         q      C6AA      α(0)
     1   6 C        3.752    -0.110    22.663     6.789
     2   6 C        3.739     0.005    20.578     6.473
     3   7 N        2.797    -0.049    22.177     6.994
     4   6 C        3.083     0.045    26.908     8.504
     5   6 C        2.910    -0.053    29.307     8.877
     6   6 C        2.924    -0.034    28.842     8.807
     7   6 C        2.920    -0.042    29.045     8.838
     8   6 C        2.912    -0.033    28.819     8.803
     9   6 C        3.070    -0.019    28.409     8.740
    10   6 C        3.068    -0.020    28.428     8.743
    11   6 C        2.917    -0.037    28.928     8.820
    12   6 C        2.978     0.001    27.997     8.679
    13   6 C        2.968    -0.006    28.169     8.706
    14   6 C        2.968    -0.006    28.169     8.706
    15   6 C        2.978     0.014    27.702     8.634
    16   6 C        2.924    -0.033    28.827     8.805
    17   6 C        2.918    -0.030    28.737     8.791
    18   6 C        2.920    -0.030    28.760     8.794
    19   6 C        2.918    -0.030    28.742     8.791
    20   6 C        2.925    -0.033    28.820     8.804
    21   6 C        2.978     0.016    27.642     8.624
    22   6 C        2.925    -0.032    28.805     8.802
    23   6 C        2.918    -0.030    28.747     8.792
    24   6 C        2.920    -0.031    28.784     8.798
    25   6 C        2.919    -0.030    28.746     8.792
    26   6 C        2.924    -0.032    28.793     8.800
    27   6 C        2.978     0.021    27.535     8.607
    28   6 C        2.923    -0.031    28.775     8.797
    29   6 C        2.922    -0.033    28.812     8.802
    30   6 C        2.977     0.006    27.885     8.662
    31   6 C        2.977     0.028    27.381     8.583
    32   6 C        2.925    -0.027    28.676     8.782
    33   6 C        2.954    -0.020    28.509     8.758
    34   6 C        3.003    -0.086    30.148     9.007
    35   6 C        3.001    -0.082    30.040     8.991
    36   6 C        2.965    -0.026    28.659     8.781
    37  16 S        3.844     0.977   107.312    17.435
    38   8 O        0.860    -0.522    24.269     6.605
    39   8 O        0.860    -0.537    24.616     6.652
    40   6 C        3.002    -0.080    29.986     8.983
    41   6 C        2.956    -0.018    28.458     8.750
    42   6 C        2.920    -0.018    28.466     8.749
    43   6 C        2.920    -0.018    28.464     8.749
    44   6 C        2.956    -0.018    28.457     8.750
    45   6 C        3.002    -0.080    29.983     8.982
    46  16 S        3.841     0.975   107.356    17.439
    47   8 O        0.860    -0.522    24.283     6.607
    48   8 O        0.860    -0.536    24.592     6.649
    49   6 C        2.922    -0.033    28.812     8.802
    50   6 C        2.922    -0.030    28.756     8.794
    51   6 C        2.927    -0.037    28.914     8.818
    52   6 C        2.908    -0.053    29.318     8.879
    53   6 C        3.083     0.044    26.921     8.506
    54   1 H        0.925     0.047     2.363     2.404
    55   1 H        0.925     0.045     2.386     2.416
    56   1 H        0.925     0.046     2.364     2.404
    57   1 H        0.924     0.049     2.338     2.391
    58   1 H        0.924     0.048     2.348     2.396
    59   1 H        0.926     0.024     2.672     2.556
    60   1 H        0.926     0.028     2.611     2.527
    61   1 H        0.926     0.027     2.631     2.536
    62   1 H        0.926     0.029     2.608     2.525
    63   1 H        0.926     0.027     2.624     2.533
    64   1 H        0.926     0.027     2.629     2.536
    65   1 H        0.926     0.032     2.563     2.504
    66   1 H        0.926     0.032     2.552     2.498
    67   1 H        0.926     0.030     2.580     2.512
    68   1 H        0.926     0.028     2.612     2.528
    69   1 H        0.926     0.029     2.602     2.523
    70   1 H        0.926     0.030     2.592     2.518
    71   1 H        0.926     0.029     2.600     2.522
    72   1 H        0.926     0.028     2.608     2.525
    73   1 H        0.926     0.030     2.586     2.515
    74   1 H        0.926     0.039     2.467     2.456
    75   1 H        0.926     0.037     2.490     2.467
    76   1 H        0.926     0.068     2.113     2.273
    77   1 H        0.926     0.078     2.005     2.214
    78   1 H        0.926     0.079     1.994     2.208
    79   1 H        0.926     0.080     1.975     2.198
    80   1 H        0.926     0.069     2.100     2.266
    81   1 H        0.926     0.069     2.099     2.266
    82   1 H        0.926     0.081     1.973     2.197
    83   1 H        0.926     0.038     2.471     2.458
    84   1 H        0.926     0.039     2.460     2.453
    85   1 H        0.926     0.029     2.595     2.519
    86   1 H        0.926     0.026     2.650     2.546

molecular dipole:
                 x           y           z       tot (Debye)
 q only:       -2.724      -0.605       2.056
   full:       -2.650      -0.596       1.912       8.443

 projected vibrational frequencies (cm⁻¹)
eigval :       -0.00    -0.00     0.00     0.00     0.00     0.00
eigval :        8.41    11.57    14.30    17.24    21.37    23.90
eigval :       34.60    43.92    45.99    50.79    54.58    58.84
eigval :       66.47    75.35    79.79    80.42    93.43    94.63
eigval :      101.02   112.25   118.30   121.93   135.54   155.91
eigval :      160.30   167.83   177.98   193.01   200.82   206.23
eigval :      218.74   226.91   237.02   244.37   252.71   263.18
eigval :      272.32   280.14   280.28   296.91   301.21   317.34
eigval :      321.44   325.20   341.97   368.15   373.63   376.09
eigval :      378.63   390.84   399.00   402.02   418.21   422.80
eigval :      425.53   429.05   439.28   452.58   458.79   474.93
eigval :      477.64   493.72   506.17   517.16   522.50   532.95
eigval :      537.59   545.65   554.44   564.72   567.73   580.46
eigval :      586.05   588.10   592.62   599.06   604.62   611.27
eigval :      629.53   646.05   650.01   668.13   673.73   675.51
eigval :      679.63   682.36   684.24   686.44   705.73   709.53
eigval :      710.33   731.82   750.73   760.00   770.23   771.79
eigval :      780.28   803.91   805.66   814.62   818.24   841.67
eigval :      862.92   864.72   871.46   874.44   877.58   877.84
eigval :      880.44   893.64   894.33   900.60   901.67   902.81
eigval :      908.67   911.69   919.40   920.39   921.90   924.31
eigval :      930.06   930.34   930.71   930.99   932.13   932.42
eigval :      957.91   976.92   982.88   988.23  1004.11  1012.74
eigval :     1015.88  1034.42  1066.96  1069.98  1073.47  1074.87
eigval :     1084.04  1085.75  1087.83  1108.33  1118.40  1122.30
eigval :     1123.20  1136.52  1136.96  1143.57  1145.13  1150.88
eigval :     1151.85  1160.93  1162.20  1173.78  1175.11  1181.76
eigval :     1182.13  1185.25  1199.18  1199.32  1203.23  1208.81
eigval :     1214.03  1218.58  1234.03  1240.29  1247.24  1250.80
eigval :     1264.06  1269.19  1272.30  1281.63  1284.02  1289.76
eigval :     1299.97  1309.26  1314.50  1316.85  1317.66  1319.05
eigval :     1321.04  1325.79  1327.90  1350.19  1370.10  1374.19
eigval :     1379.86  1404.44  1405.68  1407.72  1423.99  1429.52
eigval :     1430.18  1431.25  1441.45  1445.77  1467.66  1469.85
eigval :     1474.63  1478.68  1487.86  1488.80  1492.77  1499.25
eigval :     1546.21  1556.05  1564.22  1566.21  1568.78  1577.61
eigval :     1578.70  1582.31  1585.21  1585.56  1594.29  1595.70
eigval :     1600.17  1608.73  1619.32  2959.35  2970.82  3040.67
eigval :     3044.68  3047.59  3069.91  3070.71  3072.41  3074.32
eigval :     3075.00  3077.62  3078.40  3079.34  3080.05  3080.80
eigval :     3080.98  3084.26  3086.10  3086.28  3087.33  3089.35
eigval :     3090.47  3092.46  3093.90  3094.57  3094.69  3095.26
eigval :     3096.77  3098.97  3105.46  3107.32  3108.17  3109.36

   temp. (K)  partition function   enthalpy   heat capacity  entropy
                                   cal/mol     cal/K/mol   cal/K/mol   J/K/mol
 298.15  VIB  0.405E+22            26664.065    162.684    168.551
         ROT  0.158E+09              888.752      2.981     40.495
         INT  0.639E+30            27552.818    165.665    209.046
         TR   0.190E+29             1481.254      4.968     45.614
         TOT                       29034.0716   170.6331   254.6599  1065.4972

       T/K    H(0)-H(T)+PV         H(T)/Eh          T*S/Eh         G(T)/Eh
   ------------------------------------------------------------------------
    298.15    0.462687E-01    0.694301E+00    0.120997E+00    0.573303E+00
   ------------------------------------------------------------------------

         :::::::::::::::::::::::::::::::::::::::::::::::::::::
         ::                  THERMODYNAMIC                  ::
         :::::::::::::::::::::::::::::::::::::::::::::::::::::
         :: total free energy        -140.407705531464 Eh   ::
         ::.................................................::
         :: total energy             -140.981008895004 Eh   ::
         :: zero point energy           0.648031776638 Eh   ::
         :: G(RRHO) w/o ZPVE           -0.074728413099 Eh   ::
         :: G(RRHO) contrib.            0.573303363540 Eh   ::
         :::::::::::::::::::::::::::::::::::::::::::::::::::::

           -------------------------------------------------
          | TOTAL ENERGY             -140.981008895004 Eh   |
          | TOTAL ENTHALPY           -140.286708380069 Eh   |
          | TOTAL FREE ENERGY        -140.407705531464 Eh   |
          | GRADIENT NORM               0.000048235460 Eh/α |
          | HOMO-LUMO GAP               1.797569261695 eV   |
           -------------------------------------------------

 * finished run on 2025/09/13 at 13:06:29.009
