   * xtb version 6.7.1 (edcfbbe) compiled by 'albert@albert-system' on 2024-07-22

   ID    Z sym.   atoms
    1    6 C      1, 2, 4-36, 40-45, 49-53
    2    7 N      3
    3   16 S      37, 46
    4    8 O      38, 39, 47, 48
    5    1 H      54-86

          program call               : xtb data2507/gas/ECDPTT/ECDPTT_gas_S0_finalOpt.xtbopt.xyz --gfn 2 --spinpol --tblite --uhf 2 --ohess vtight --parallel 40 --molden --ceasefiles --namespace data2507/gas/ECDPTT/ECDPTT_gas_T1_preOpt
 * total energy  :  -140.8985343 Eh     change       -0.1963517E-07 Eh
 * total energy  :  -140.9071628 Eh     change       -0.8628432E-02 Eh
 * total energy  :  -140.9106919 Eh     change       -0.3529173E-02 Eh
 * total energy  :  -140.9118819 Eh     change       -0.1189975E-02 Eh
 * total energy  :  -140.9132251 Eh     change       -0.1343157E-02 Eh
 * total energy  :  -140.9142372 Eh     change       -0.1012137E-02 Eh
 * total energy  :  -140.9149963 Eh     change       -0.7590948E-03 Eh
 * total energy  :  -140.9154490 Eh     change       -0.4526900E-03 Eh
 * total energy  :  -140.9157559 Eh     change       -0.3069621E-03 Eh
 * total energy  :  -140.9160316 Eh     change       -0.2756148E-03 Eh
 * total energy  :  -140.9219763 Eh     change       -0.2975148E-06 Eh
 * total energy  :  -140.9219766 Eh     change       -0.3280354E-06 Eh
 * total energy  :  -140.9219769 Eh     change       -0.3075083E-06 Eh
 * total energy  :  -140.9219772 Eh     change       -0.3041745E-06 Eh
 * total energy  :  -140.9219777 Eh     change       -0.4591983E-06 Eh
 * total energy  :  -140.9219780 Eh     change       -0.2959540E-06 Eh
 * total energy  :  -140.9219783 Eh     change       -0.3478518E-06 Eh
 * total energy  :  -140.9219787 Eh     change       -0.4049138E-06 Eh
 * total energy  :  -140.9219788 Eh     change       -0.3470416E-07 Eh
   *** GEOMETRY OPTIMIZATION CONVERGED AFTER 122 ITERATIONS ***

 final structure:
================
86
 xtb: 6.7.1 (edcfbbe)
C           -5.02191388294779       -5.99471146613492        0.88335557586558
C           -5.58075655925605       -5.23625060205935       -0.31997128662574
N           -5.81173143573360       -3.85060351000451       -0.01130785117755
C           -6.96602962955712       -3.33449747410495        0.53770956957795
C           -8.15864637364144       -3.96929780731427        0.85248508922754
C           -9.17663707244214       -3.20212256781569        1.38796746658335
C           -9.01997671827402       -1.83628126226523        1.60855679964338
C           -7.83348702142947       -1.19825363209137        1.30136099458635
C           -6.79735127083621       -1.94848832409844        0.76562934832629
C           -5.45956488380098       -1.62959834373436        0.34568265329914
C           -4.72894663838540       -0.46159963994788        0.32987214968853
C           -3.40141899647746       -0.47860470350413       -0.13373369731281
C           -2.64438003882464        0.73491060858605       -0.18922321965208
C           -3.37865638966666        2.00527609821726       -0.29782226206873
C           -3.06193961547413        3.06034504927418        0.61708267364991
C           -2.50060763541608        2.77250583798537        1.87652791688526
C           -2.16264343081449        3.78112119120845        2.74964090525231
C           -2.35456515421579        5.11067169740106        2.39772998706077
C           -2.88610216261065        5.41733193792218        1.15260540762212
C           -3.23702910951328        4.41551969814256        0.27515687504370
C           -4.38336467409322        2.12359191792345       -1.31047095481757
C           -4.32539778369856        1.32932495727789       -2.47254766093009
C           -5.31102924737689        1.40067606452071       -3.43041490643511
C           -6.39601201716500        2.25052538664387       -3.26240716579512
C           -6.48330870276426        3.02704927490090       -2.11492135092447
C           -5.49793188161369        2.97108113740827       -1.15484631430580
C           -1.22388817684291        0.77528181405457       -0.13933074746837
C           -0.51175374083199        1.87856437173236       -0.66213826673753
C            0.85316961059140        1.95333341074569       -0.57825523605207
C            1.60191650501263        0.93937765658571        0.03846719062550
C            3.05244774870895        1.01324790495925        0.12839742043910
C            3.71744179708322        2.24333765426109        0.24195808434765
C            5.09371523877632        2.30637021047181        0.32897547878667
C            5.84175505807800        1.13911683884338        0.31778677531336
C            5.20119953743932       -0.08073781703183        0.20194249978397
C            3.83048240468379       -0.15273532068737        0.10072715368678
S            6.16047785820907       -1.59410119413065        0.15861115304893
O            6.64806484074872       -1.90623182476492        1.46758672084421
O            5.37150059561841       -2.60069628449749       -0.50555938141067
C            7.54334564273494       -1.19187491510777       -0.91703273316832
C            7.96185584686937       -2.10829498020380       -1.86507791180482
C            9.03308564063212       -1.79703786474205       -2.68838546538988
C            9.66957839644049       -0.57017750888115       -2.56900733681166
C            9.23722751006509        0.34931486687197       -1.62574198717459
C            8.17608012744899        0.02836309140479       -0.79812299058678
S            7.62245940804906        1.21150387066913        0.43785060348574
O            8.05216694806976        0.77462962960622        1.73172669586505
O            8.04584574831165        2.51956779661562        0.00815860924438
C            0.90195445096379       -0.14952391039046        0.57958957545027
C           -0.46326625734417       -0.23108811424508        0.49862097846139
C           -2.86487704816818       -1.70232659347013       -0.60584322467197
C           -3.58621707191151       -2.87051834325112       -0.60574702341665
C           -4.89062811763012       -2.84512064096924       -0.11709157404530
H           -4.85792928636948       -7.03755536561585        0.62606307583917
H           -4.07670254404541       -5.55812722358271        1.19739531822067
H           -5.71854216884151       -5.94419684371685        1.71696102089762
H           -4.87996457499718       -5.29311736916664       -1.15721404695819
H           -6.52672545833622       -5.68205664853491       -0.63867405698855
H           -8.29761187761199       -5.02766147086398        0.69096862525448
H          -10.11432203912579       -3.67378802815402        1.64209720866160
H           -9.83963413821773       -1.27238871536673        2.02780514545989
H           -7.70993353305342       -0.13968769313877        1.47264399745492
H           -5.15925840872373        0.45631465035052        0.69960123470025
H           -2.36130436358814        1.74091062405801        2.16468576800721
H           -1.74529270968615        3.53563231071050        3.71540358202544
H           -2.08402416946275        5.89972987883264        3.08292432005702
H           -3.01797128643595        6.45039139139704        0.86420084622180
H           -3.60618374972978        4.66822535979272       -0.70800122001197
H           -3.47664421405361        0.67770120147075       -2.61966292809252
H           -5.23855820537962        0.79122049505483       -4.31969368003823
H           -7.16981485286219        2.30109810077646       -4.01344427521366
H           -7.33578889712497        3.67479551773391       -1.96832961778468
H           -5.60130618094070        3.54510809639438       -0.24572868165044
H           -1.06015520609850        2.65906209742192       -1.16855248217490
H            1.36430228379896        2.79176618677282       -1.02752830256938
H            3.14191052250083        3.15515764004115        0.28506702378703
H            5.61562254281522        3.24696363773806        0.40930115921411
H            3.38354442787882       -1.12570173429886       -0.02913389097679
H            7.43455267689920       -3.04626052568131       -1.94059858637193
H            9.36945075138167       -2.51110721369987       -3.42460216983658
H           10.50182705290583       -0.32825704847706       -3.21234390872856
H            9.69935618843566        1.31770188687639       -1.51514949655280
H            1.44718775872462       -0.91685923295363        1.10846599560080
H           -0.97657638825275       -1.04923424940047        0.98158634125290
H           -1.87127612109179       -1.70093315863971       -1.02763510430119
H           -3.14659523825072       -3.77967066538352       -0.98807798506909

 projected vibrational frequencies (cm⁻¹)
eigval :       -0.00    -0.00    -0.00    -0.00     0.00     0.00
eigval :        8.17     9.94    12.78    13.86    20.30    21.14
eigval :       33.48    43.18    45.58    46.26    50.68    67.43
eigval :       75.05    80.13    82.70    87.97    93.22    96.05
eigval :      102.37   107.74   115.54   120.85   143.81   155.01
eigval :      161.38   174.72   184.44   189.63   203.96   208.61
eigval :      214.23   231.79   242.58   246.58   258.49   268.46
eigval :      271.02   281.63   288.16   300.72   303.34   314.16
eigval :      321.17   330.58   337.09   357.49   367.59   382.73
eigval :      384.63   386.98   394.18   395.33   410.32   417.40
eigval :      422.41   430.52   441.88   454.08   455.63   459.88
eigval :      464.08   478.96   502.10   507.41   516.10   526.85
eigval :      532.35   542.38   549.73   561.97   569.67   574.87
eigval :      581.15   583.77   586.16   591.46   599.30   604.66
eigval :      626.76   632.57   645.95   656.95   661.97   667.08
eigval :      673.01   678.94   679.79   686.22   692.19   708.25
eigval :      709.41   728.79   746.62   748.07   771.18   772.22
eigval :      779.52   799.73   806.09   808.11   819.46   835.20
eigval :      849.71   854.87   857.63   859.46   864.49   868.85
eigval :      881.31   885.86   886.76   893.57   899.14   901.47
eigval :      908.31   910.40   915.86   920.57   920.69   921.17
eigval :      923.53   924.33   925.11   929.94   941.72   943.47
eigval :      953.73   973.19   976.29   983.69   992.98   999.98
eigval :     1011.06  1018.89  1066.70  1068.00  1069.71  1073.34
eigval :     1080.45  1080.66  1087.25  1102.48  1107.04  1117.00
eigval :     1121.94  1131.39  1135.52  1136.04  1143.42  1147.07
eigval :     1151.08  1155.54  1164.19  1173.09  1173.57  1179.59
eigval :     1179.95  1184.00  1192.32  1197.58  1207.21  1210.79
eigval :     1215.38  1215.66  1232.28  1241.14  1243.66  1251.52
eigval :     1260.81  1271.70  1273.84  1275.32  1286.87  1292.10
eigval :     1305.75  1314.00  1315.10  1318.21  1322.08  1323.68
eigval :     1325.86  1328.02  1328.50  1343.94  1347.13  1370.18
eigval :     1376.38  1383.18  1404.71  1408.12  1419.97  1422.91
eigval :     1427.11  1429.17  1429.83  1431.36  1437.59  1439.17
eigval :     1454.22  1457.56  1468.15  1477.35  1485.00  1486.75
eigval :     1497.34  1497.84  1527.53  1541.53  1542.26  1544.12
eigval :     1550.05  1564.19  1568.24  1578.27  1579.26  1582.67
eigval :     1584.39  1593.09  1610.80  2962.87  2973.21  3042.10
eigval :     3046.14  3050.39  3071.07  3071.99  3072.83  3074.74
eigval :     3077.69  3077.79  3078.31  3080.25  3083.21  3083.53
eigval :     3085.42  3086.68  3087.89  3089.00  3089.89  3090.10
eigval :     3091.78  3094.07  3095.11  3095.65  3095.70  3095.85
eigval :     3097.84  3098.40  3106.58  3107.10  3107.66  3108.70

   temp. (K)  partition function   enthalpy   heat capacity  entropy
                                   cal/mol     cal/K/mol   cal/K/mol   J/K/mol
 298.15  VIB  0.660E+22            26743.695    163.618    168.977
         ROT  0.161E+09              888.752      2.981     40.531
         INT  0.106E+31            27632.447    166.599    209.508
         TR   0.190E+29             1481.254      4.968     45.614
         TOT                       29113.7011   171.5670   255.1222  1067.4311

       T/K    H(0)-H(T)+PV         H(T)/Eh          T*S/Eh         G(T)/Eh
   ------------------------------------------------------------------------
    298.15    0.463956E-01    0.692123E+00    0.121217E+00    0.570906E+00
   ------------------------------------------------------------------------

         :::::::::::::::::::::::::::::::::::::::::::::::::::::
         ::                  THERMODYNAMIC                  ::
         :::::::::::::::::::::::::::::::::::::::::::::::::::::
         :: total free energy        -140.351072700299 Eh   ::
         ::.................................................::
         :: total energy             -140.921978753281 Eh   ::
         :: zero point energy           0.645727185565 Eh   ::
         :: G(RRHO) w/o ZPVE           -0.074821132582 Eh   ::
         :: G(RRHO) contrib.            0.570906052983 Eh   ::
         :::::::::::::::::::::::::::::::::::::::::::::::::::::

           -------------------------------------------------
          | TOTAL ENERGY             -140.921978753281 Eh   |
          | TOTAL ENTHALPY           -140.229855931817 Eh   |
          | TOTAL FREE ENERGY        -140.351072700299 Eh   |
          | GRADIENT NORM               0.000144072520 Eh/α |
           -------------------------------------------------

 * finished run on 2025/09/13 at 13:18:14.752
