   * xtb version 6.7.1 (edcfbbe) compiled by 'albert@albert-system' on 2024-07-22

   ID    Z sym.   atoms
    1    6 C      1-5, 7, 9-13, 15-17, 19, 21-25, 27-29, 31, 34-36
    2    7 N      6, 8, 18, 20, 30, 32, 33
    3    9 F      14, 26, 37
    4    1 H      38-55

          program call               : xtb data2507/gas/HAP-3MF/HAP-3MF_gas_T1_crest.xyz --gfn 2 --spinpol --tblite --uhf 2 --ohess vtight --parallel 40 --molden --ceasefiles --namespace data2507/gas/HAP-3MF/HAP-3MF_gas_T1_finalOpt
 * total energy  :  -101.7044412 Eh     change       -0.2926483E-07 Eh
 * total energy  :  -101.7044442 Eh     change       -0.2995033E-05 Eh
 * total energy  :  -101.7044452 Eh     change       -0.9898354E-06 Eh
 * total energy  :  -101.7044456 Eh     change       -0.3632045E-06 Eh
 * total energy  :  -101.7044462 Eh     change       -0.6732396E-06 Eh
 * total energy  :  -101.7044471 Eh     change       -0.8105768E-06 Eh
 * total energy  :  -101.7044476 Eh     change       -0.5376704E-06 Eh
 * total energy  :  -101.7044479 Eh     change       -0.3219120E-06 Eh
 * total energy  :  -101.7044482 Eh     change       -0.3390811E-06 Eh
 * total energy  :  -101.7044487 Eh     change       -0.4279900E-06 Eh
 * total energy  :  -101.7044491 Eh     change       -0.3890600E-06 Eh
 * total energy  :  -101.7044493 Eh     change       -0.2713398E-06 Eh
 * total energy  :  -101.7044495 Eh     change       -0.1448939E-06 Eh
 * total energy  :  -101.7044496 Eh     change       -0.7963925E-07 Eh
   *** GEOMETRY OPTIMIZATION CONVERGED AFTER 14 ITERATIONS ***

 final structure:
================
55
 xtb: 6.7.1 (edcfbbe)
C            5.13458996119732        5.32438108707479        0.00354257288051
C            3.65043930876144        5.13645989237586        0.00109334847590
C            3.06056680940210        3.88673446060717       -0.00053932551155
C            1.66898313958784        3.73933522961542       -0.00131599212369
C            1.08172883961411        2.42032589930964       -0.00204140264166
N            1.89697728908023        1.35696368663703       -0.00310983973457
C            1.40709195029173        0.14608057672666       -0.00209324212347
N            2.13616582187948       -0.93775811708556       -0.00290485421955
C            1.55782645279160       -2.14629060104060       -0.00134486456823
C            2.40519162796642       -3.31536230264129        0.00009991214968
C            3.79679687211980       -3.17778653445521       -0.00113217041848
C            4.59680440356779       -4.30041942534002        0.00126981995560
C            4.00258536156419       -5.55081125017921        0.00514990177513
F            4.79679374899234       -6.64264051716468        0.00770120453697
C            2.61952561240840       -5.73044417137323        0.00618109814003
C            2.03704753508490       -7.10838268210328        0.01168082012267
C            1.83457121805052       -4.59312141988330        0.00346784795548
N            0.22929015294209       -2.32055183116302       -0.00066005115521
C           -0.57425029856027       -1.29075904765136       -0.00016570550711
N           -1.87737346991844       -1.38054063712678       -0.00004320338996
C           -2.63490852199399       -0.27544675591179        0.00034423974135
C           -4.07094694714162       -0.42555689940545        0.00103690318286
C           -4.64638749394483       -1.70007260637744        0.00054744384860
C           -6.01846878029934       -1.83296795901735        0.00102175493606
C           -6.80529689422669       -0.69389824367940        0.00209119901432
F           -8.14781495494558       -0.83703945127203        0.00256529533330
C           -6.27056295816638        0.59419287694685        0.00278923706833
C           -7.17395463695648        1.78661931576211        0.00425695123838
C           -4.89323602260188        0.70672355297430        0.00218714165758
N           -2.12161191495268        0.96217391149371       -0.00011930813007
C           -0.82800947343019        1.14333765948903       -0.00041218665459
N           -0.25409571550158        2.31661282582550       -0.00135258429610
N            0.00162195689674       -0.00048902986778        0.00074056271353
C            0.85181567815967        4.87418181365872       -0.00082870419057
C            1.42141391482764        6.12947484760215        0.00056151038821
C            2.80116886024870        6.24274708076974        0.00169092329560
F            3.34720949842641        7.47753534447685        0.00322035961512
H            5.44231031612106        5.87253665506354        0.89325872631965
H            5.44121510890517        5.90988928487673       -0.86225792179492
H            5.64386554202442        4.36552691696404       -0.01654321915057
H            3.67042379267529        2.99654329859097       -0.00110339803335
H            4.22422175464979       -2.18815589856420       -0.00394776618443
H            5.67289644426019       -4.22617828168614        0.00035248752726
H            2.39203114653867       -7.67061672053504       -0.85104089591643
H            2.35390809009654       -7.64651190957853        0.90432057961462
H            0.95216420470935       -7.06749181154099       -0.01166917469188
H            0.75854804002773       -4.67395540592021        0.00403580223361
H           -4.00215938584977       -2.56438254657292       -0.00026543385081
H           -6.49124867518421       -2.80248582329650        0.00056948861963
H           -6.59684105895510        2.70645800764271        0.00294698528579
H           -7.81678052912336        1.77018557095947        0.88352349222342
H           -7.82031300195889        1.76978429645353       -0.87239007566074
H           -4.42617953785000        1.67947377812233        0.00259722231917
H           -0.21868620179152        4.74731071859561       -0.00158739030679
H            0.81723322198311        7.02303295891887        0.00087635758649

 projected vibrational frequencies (cm⁻¹)
eigval :       -0.00    -0.00    -0.00    -0.00    -0.00     0.00
eigval :       19.35    23.78    23.81    29.56    37.28    37.33
eigval :       44.19    44.37    44.92    52.41    52.43    58.16
eigval :       89.03   111.64   111.74   121.33   175.33   175.36
eigval :      182.48   185.37   186.23   189.91   231.14   231.20
eigval :      251.44   251.77   256.98   261.43   282.05   282.40
eigval :      314.46   344.37   344.41   347.28   410.18   410.48
eigval :      410.49   414.36   415.03   454.15   454.37   462.56
eigval :      495.77   513.21   513.23   524.97   525.16   531.20
eigval :      553.05   553.10   575.42   596.85   604.77   605.25
eigval :      605.27   638.00   638.03   645.54   645.56   668.45
eigval :      678.59   678.61   697.10   705.95   775.26   775.90
eigval :      780.70   786.81   788.39   815.19   835.00   835.01
eigval :      835.48   880.18   880.39   880.43   911.53   911.58
eigval :      911.59   939.21   940.00   993.09  1004.66  1004.80
eigval :     1014.35  1014.65  1022.65  1033.03  1033.12  1033.32
eigval :     1091.89  1092.71  1105.74  1112.55  1113.09  1136.64
eigval :     1156.06  1156.26  1173.68  1176.19  1176.31  1213.58
eigval :     1214.34  1223.56  1227.31  1227.37  1229.51  1285.70
eigval :     1285.83  1292.22  1320.67  1336.85  1338.16  1338.21
eigval :     1386.13  1386.19  1401.93  1402.21  1402.22  1414.72
eigval :     1414.79  1416.76  1463.71  1463.87  1466.55  1466.64
eigval :     1466.85  1468.34  1475.54  1475.76  1476.63  1488.85
eigval :     1498.41  1515.18  1515.33  1564.38  1565.35  1565.39
eigval :     1585.27  1587.12  1587.13  3011.42  3011.50  3011.66
eigval :     3026.27  3026.37  3026.97  3059.21  3059.24  3059.33
eigval :     3102.02  3102.15  3102.33  3105.23  3105.41  3105.53
eigval :     3115.63  3115.77  3116.02

   temp. (K)  partition function   enthalpy   heat capacity  entropy
                                   cal/mol     cal/K/mol   cal/K/mol   J/K/mol
 298.15  VIB  0.186E+16            18758.461    108.771    118.634
         ROT  0.218E+08              888.752      2.981     36.563
         INT  0.405E+23            19647.214    111.751    155.197
         TR   0.107E+29             1481.254      4.968     44.480
         TOT                       21128.4677   116.7196   199.6771   835.4491

       T/K    H(0)-H(T)+PV         H(T)/Eh          T*S/Eh         G(T)/Eh
   ------------------------------------------------------------------------
    298.15    0.336704E-01    0.420648E+00    0.948730E-01    0.325775E+00
   ------------------------------------------------------------------------

         :::::::::::::::::::::::::::::::::::::::::::::::::::::
         ::                  THERMODYNAMIC                  ::
         :::::::::::::::::::::::::::::::::::::::::::::::::::::
         :: total free energy        -101.378674292656 Eh   ::
         ::.................................................::
         :: total energy             -101.704449566409 Eh   ::
         :: zero point energy           0.386977960215 Eh   ::
         :: G(RRHO) w/o ZPVE           -0.061202686463 Eh   ::
         :: G(RRHO) contrib.            0.325775273753 Eh   ::
         :::::::::::::::::::::::::::::::::::::::::::::::::::::

           -------------------------------------------------
          | TOTAL ENERGY             -101.704449566409 Eh   |
          | TOTAL ENTHALPY           -101.283801249681 Eh   |
          | TOTAL FREE ENERGY        -101.378674292656 Eh   |
          | GRADIENT NORM               0.000105446226 Eh/α |
           -------------------------------------------------

 * finished run on 2025/09/03 at 18:09:15.097
