   * xtb version 6.7.1 (edcfbbe) compiled by 'albert@albert-system' on 2024-07-22

   ID    Z sym.   atoms
    1    6 C      1-5, 7, 9-13, 15-17, 19, 21-25, 27-29, 31, 34-36
    2    7 N      6, 8, 18, 20, 30, 32, 33
    3    9 F      14, 26, 37
    4    1 H      38-55

          program call               : xtb data2507/gas/HAP-3MF/HAP-3MF_gas_S0_finalOpt.xtbopt.xyz --gfn 2 --spinpol --tblite --uhf 2 --ohess vtight --parallel 40 --molden --ceasefiles --namespace data2507/gas/HAP-3MF/HAP-3MF_gas_T1_preOpt
 * total energy  :  -101.7000613 Eh     change       -0.4248349E-08 Eh
 * total energy  :  -101.7029922 Eh     change       -0.2930882E-02 Eh
 * total energy  :  -101.7044003 Eh     change       -0.1408158E-02 Eh
 * total energy  :  -101.7044360 Eh     change       -0.3563378E-04 Eh
 * total energy  :  -101.7044479 Eh     change       -0.1195517E-04 Eh
 * total energy  :  -101.7044492 Eh     change       -0.1235872E-05 Eh
 * total energy  :  -101.7044497 Eh     change       -0.5139871E-06 Eh
 * total energy  :  -101.7044499 Eh     change       -0.2055986E-06 Eh
 * total energy  :  -101.7044501 Eh     change       -0.1878629E-06 Eh
 * total energy  :  -101.7044501 Eh     change       -0.7085360E-07 Eh
   *** GEOMETRY OPTIMIZATION CONVERGED AFTER 10 ITERATIONS ***

 final structure:
================
55
 xtb: 6.7.1 (edcfbbe)
C            2.67339820203697        6.89419575127491       -0.00181199726314
C            1.37692752099524        6.14775435103976       -0.00236749163359
C            1.31560092530986        4.76720590320941       -0.00375936884938
C            0.08901412457637        4.09362617093920       -0.00374541203653
C            0.05780048067832        2.65011646567682       -0.00465157527773
N            1.22137281325081        1.98572608170624       -0.00397515502637
C            1.23891487541240        0.67962965929973       -0.00374384920054
N            2.33111508787861       -0.03676492173886       -0.00231896160780
C            2.26652509892817       -1.37502554913852       -0.00151932561061
C            3.50121564797808       -2.12352432015813        0.00065426576550
C            4.73003660572319       -1.45604892392442        0.00239900856980
C            5.90341295629619       -2.17956923297966        0.00488850493290
C            5.84165020034791       -3.56258382396859        0.00560231098673
F            6.99763670321791       -4.26011675796828        0.00810730387944
C            4.63704647121228       -4.26547809872701        0.00378454164447
C            4.63593351048556       -5.76147419219627        0.00486399440524
C            3.47180223210077       -3.52257679156639        0.00131333788824
N            1.10937829070992       -2.05054996136895       -0.00218081317501
C           -0.03053607742247       -1.41270503654639       -0.00361073281887
N           -1.19706452609960       -2.00038907072575       -0.00383235401884
C           -2.32368827905764       -1.27522034941701       -0.00512961214171
C           -3.58942587727943       -1.96992813142964       -0.00496708541308
C           -3.62638494157170       -3.36783144300583       -0.00167872502744
C           -4.83996298056334       -4.02170306546780       -0.00110048923365
C           -6.00649535117978       -3.27622053180497       -0.00389050868091
F           -7.18885010435789       -3.92806964510732       -0.00329323277194
C           -6.01231871918076       -1.88155786624084       -0.00746133484916
C           -7.30696801702125       -1.13196554559230       -0.01006430809586
C           -4.78604380259542       -1.24443536699923       -0.00787543484005
N           -2.33012517146978        0.06466905693079       -0.00610794379000
C           -1.20778709812984        0.73290503983724       -0.00561909438484
N           -1.13348143559052        2.03699268430460       -0.00557549512393
N            0.00020110594470       -0.00005837416329       -0.00484420496558
C           -1.10315549037446        4.82453560575437       -0.00245940739999
C           -1.06268311032671        6.20246045755756       -0.00099437188378
C            0.16617459545063        6.84000077947053       -0.00087213460758
F            0.19279133857382        8.18987249305049        0.00061889195131
H            2.74260480301948        7.52657746328854        0.88248023331569
H            2.73321172438383        7.54488214608611       -0.87332966841934
H            3.51340823738039        6.20612982491966       -0.01315742643688
H            2.22196063627475        4.18165510977763       -0.00488875689446
H            4.73926001928718       -0.37810168734073        0.00183050949159
H            6.86607931600381       -1.69299296835809        0.00633718792061
H            5.15336663091154       -6.13712920488154        0.88678092348032
H            3.62018944092905       -6.14539606365818       -0.00172725820122
H            5.16558415403036       -6.13858074697794       -0.86910085928982
H            2.51172392734187       -4.01512571526237       -0.00013306347865
H           -2.69771314492178       -3.91520641383574        0.00045934491538
H           -4.90038943368337       -5.09865640620358        0.00151111095223
H           -7.13104583418059       -0.06049108568734       -0.02324485269942
H           -7.89039936994392       -1.38649020911669        0.87395886584112
H           -7.89924827169521       -1.40718468069318       -0.88182669001560
H           -4.73208985225409       -0.16673517446878       -0.01052172275475
H           -2.04151279812437        4.29392953721300       -0.00253435885046
H           -1.96516198111176        6.79323708489734        0.00011860509166

 projected vibrational frequencies (cm⁻¹)
eigval :       -0.00    -0.00    -0.00     0.00     0.00     0.00
eigval :       20.13    24.18    24.19    29.78    37.38    37.42
eigval :       45.34    45.41    45.80    53.07    53.08    57.66
eigval :       89.03   112.12   112.16   121.76   175.45   175.46
eigval :      182.57   185.56   185.78   189.87   231.20   231.22
eigval :      251.75   251.80   257.01   261.55   282.00   282.10
eigval :      314.51   344.47   344.48   347.30   410.13   410.43
eigval :      410.43   414.74   415.07   454.35   454.64   462.59
eigval :      495.75   513.29   513.30   524.88   525.19   531.31
eigval :      553.00   553.14   575.48   596.88   604.74   605.27
eigval :      605.27   638.01   638.09   645.62   645.62   668.43
eigval :      678.68   678.68   697.10   705.95   776.37   776.62
eigval :      780.74   786.21   786.77   815.25   834.93   834.93
eigval :      835.39   880.08   880.30   880.31   911.43   911.48
eigval :      911.48   939.16   939.53   993.07  1004.49  1005.02
eigval :     1014.73  1015.03  1022.94  1033.31  1033.34  1033.38
eigval :     1092.68  1092.94  1105.80  1112.77  1112.94  1136.83
eigval :     1156.19  1156.25  1173.81  1176.33  1176.37  1213.66
eigval :     1213.85  1223.61  1227.48  1227.56  1229.90  1286.15
eigval :     1286.22  1292.20  1320.66  1336.90  1338.22  1338.25
eigval :     1386.26  1386.30  1402.57  1402.61  1402.66  1415.06
eigval :     1415.21  1417.07  1463.97  1464.00  1466.97  1467.00
eigval :     1467.01  1468.57  1476.38  1476.40  1477.40  1488.74
eigval :     1498.55  1515.39  1515.49  1564.44  1565.42  1565.44
eigval :     1585.36  1587.21  1587.25  3011.74  3011.75  3011.77
eigval :     3027.15  3027.17  3027.25  3059.24  3059.33  3059.40
eigval :     3102.49  3102.55  3102.71  3105.48  3105.55  3105.66
eigval :     3116.07  3116.17  3116.26

   temp. (K)  partition function   enthalpy   heat capacity  entropy
                                   cal/mol     cal/K/mol   cal/K/mol   J/K/mol
 298.15  VIB  0.157E+16            18747.899    108.860    118.541
         ROT  0.218E+08              888.752      2.981     36.563
         INT  0.343E+23            19636.652    111.840    155.104
         TR   0.107E+29             1481.254      4.968     44.480
         TOT                       21117.9054   116.8086   199.5838   835.0587

       T/K    H(0)-H(T)+PV         H(T)/Eh          T*S/Eh         G(T)/Eh
   ------------------------------------------------------------------------
    298.15    0.336535E-01    0.420689E+00    0.948287E-01    0.325860E+00
   ------------------------------------------------------------------------

         :::::::::::::::::::::::::::::::::::::::::::::::::::::
         ::                  THERMODYNAMIC                  ::
         :::::::::::::::::::::::::::::::::::::::::::::::::::::
         :: total free energy        -101.378589918387 Eh   ::
         ::.................................................::
         :: total energy             -101.704450148037 Eh   ::
         :: zero point energy           0.387035412485 Eh   ::
         :: G(RRHO) w/o ZPVE           -0.061175182835 Eh   ::
         :: G(RRHO) contrib.            0.325860229650 Eh   ::
         :::::::::::::::::::::::::::::::::::::::::::::::::::::

           -------------------------------------------------
          | TOTAL ENERGY             -101.704450148037 Eh   |
          | TOTAL ENTHALPY           -101.283761211120 Eh   |
          | TOTAL FREE ENERGY        -101.378589918387 Eh   |
          | GRADIENT NORM               0.000065500192 Eh/α |
           -------------------------------------------------

 * finished run on 2025/09/03 at 18:06:10.760
