   * xtb version 6.7.1 (edcfbbe) compiled by 'albert@albert-system' on 2024-07-22

   ID    Z sym.   atoms
    1    6 C      1-5, 7, 9-13, 15-17, 19, 21-25, 27-29, 31, 34-36
    2    7 N      6, 8, 18, 20, 30, 32, 33
    3    9 F      14, 26, 37
    4    1 H      38-55

          program call               : xtb data2507/gas/HAP-3MF/HAP-3MF_gas_S0_crest.xyz --gfn 2 --ohess vtight --parallel 40 --molden --ceasefiles --namespace data2507/gas/HAP-3MF/HAP-3MF_gas_S0_finalOpt
          :  Hamiltonian                  GFN2-xTB          :
 * total energy  :  -101.7686878 Eh     change       -0.9073631E-09 Eh
 * total energy  :  -101.7686885 Eh     change       -0.7701434E-06 Eh
 * total energy  :  -101.7686885 Eh     change        0.5272395E-07 Eh
 * total energy  :  -101.7686893 Eh     change       -0.7824182E-06 Eh
 * total energy  :  -101.7686905 Eh     change       -0.1258956E-05 Eh
 * total energy  :  -101.7686917 Eh     change       -0.1186423E-05 Eh
 * total energy  :  -101.7686930 Eh     change       -0.1259136E-05 Eh
 * total energy  :  -101.7686939 Eh     change       -0.9237190E-06 Eh
 * total energy  :  -101.7686944 Eh     change       -0.5215811E-06 Eh
 * total energy  :  -101.7686948 Eh     change       -0.4014855E-06 Eh
 * total energy  :  -101.7686959 Eh     change       -0.2723706E-06 Eh
 * total energy  :  -101.7686961 Eh     change       -0.2394805E-06 Eh
 * total energy  :  -101.7686962 Eh     change       -0.1359893E-06 Eh
 * total energy  :  -101.7686964 Eh     change       -0.1276315E-06 Eh
 * total energy  :  -101.7686965 Eh     change       -0.1297581E-06 Eh
 * total energy  :  -101.7686967 Eh     change       -0.1477784E-06 Eh
 * total energy  :  -101.7686968 Eh     change       -0.1413020E-06 Eh
 * total energy  :  -101.7686969 Eh     change       -0.1014759E-06 Eh
 * total energy  :  -101.7686969 Eh     change       -0.2396519E-08 Eh
   *** GEOMETRY OPTIMIZATION CONVERGED AFTER 22 ITERATIONS ***

 final structure:
================
55
 xtb: 6.7.1 (edcfbbe)
C            2.67136941933302        6.87301357255586       -0.00194753573512
C            1.37485143060852        6.12711893080950       -0.00228770475200
C            1.31267827129231        4.74502062080837       -0.00463113042516
C            0.08705880371904        4.07701055791608       -0.00430615470786
C            0.05597567769470        2.61990550638823       -0.00590992420548
N            1.22706546702998        1.98562605264820       -0.00529407563571
C            1.21657999768061        0.66769111293943       -0.00490020415113
N            2.33440990323104       -0.03041945323384       -0.00310197398538
C            2.24116770766513       -1.35896088140859       -0.00204284356768
C            3.48790253190638       -2.11381675884057        0.00070894722195
C            4.71110331238379       -1.44306334950258        0.00302478937912
C            5.88660621540923       -2.16578260376436        0.00582015507612
C            5.82427377486904       -3.54837297369049        0.00624193214208
F            6.97955911074410       -4.24442306263721        0.00886457029715
C            4.62138300888352       -4.25306712297470        0.00400915441619
C            4.62066112169931       -5.74883575310986        0.00491085119078
C            3.45481798262224       -3.50926351257796        0.00126271412612
N            1.10636383593780       -2.05610261342605       -0.00296726171395
C           -0.02981867032517       -1.38807335790291       -0.00467080352617
N           -1.19338265019197       -2.00705286806166       -0.00487780752266
C           -2.29725655767864       -1.26192970787891       -0.00639761845450
C           -3.57473930036280       -1.96349669858789       -0.00561419991448
C           -3.60677647788832       -3.35814229791297       -0.00100148493989
C           -4.82110906462281       -4.01356097752985        0.00049844498988
C           -5.98660167176705       -3.26718888259690       -0.00269735491877
F           -7.16766424936110       -3.91853991430732       -0.00118961654372
C           -5.99409475939134       -1.87311246148184       -0.00756465050246
C           -7.28827378924001       -1.12317358330084       -0.01037712182600
C           -4.76602212916009       -1.23600740414294       -0.00891260201903
N           -2.33349092473724        0.06940812937840       -0.00800477549224
C           -1.18688452782375        0.71929447520288       -0.00727420016578
N           -1.14121891942247        2.03645096306368       -0.00725616473752
N           -0.00004724189040       -0.00038298600083       -0.00582239022496
C           -1.10479010678404        4.80196977829718       -0.00172280970026
C           -1.06535604190574        6.18132511011818        0.00073100908241
C            0.16373321442984        6.81756798949514        0.00049047430228
F            0.19007273788447        8.16607575635993        0.00292951301463
H            2.74184450383914        7.50439948618124        0.88297263488675
H            2.73107140324827        7.52471556528361       -0.87272750779872
H            3.51047205259434        6.18403775638490       -0.01471616329336
H            2.21645668228638        4.15614967252762       -0.00669537012382
H            4.71524311846141       -0.36543134956277        0.00262807987054
H            6.84918573296152       -1.67904964502699        0.00767185986871
H            5.13753129242267       -6.12477527520190        0.88705613521904
H            3.60481684914841       -6.13216450305703       -0.00233993350254
H            5.15083177816126       -6.12600645411739       -0.86872773533276
H            2.49340049585457       -3.99841743939824       -0.00047920350821
H           -2.67614390452013       -3.90148556846747        0.00149666139651
H           -4.88196526780135       -5.09047593330980        0.00421695972026
H           -7.11108127056149       -0.05204110884940       -0.02502794665991
H           -7.87144915376297       -1.37604998258715        0.87430491915097
H           -7.88142720286446       -1.39901818371511       -0.88136102811851
H           -4.70785908330623       -0.15888587069779       -0.01254665481792
H           -2.04060649114408        4.26759547212147       -0.00154901231835
H           -1.96762165868849        6.77240864118216        0.00289712119030

          :  Hamiltonian                  GFN2-xTB          :
         :: gradient norm              0.000024971943 Eh/a0 ::
         :: HOMO-LUMO gap              1.758334659888 eV    ::
         :: SCC energy              -103.240657078295 Eh    ::
         :: -> dispersion             -0.067472137115 Eh    ::
         :: repulsion energy           1.471960180305 Eh    ::

    * Orbital Energies and Occupations

         #    Occupation            Energy/Eh            Energy/eV
      -------------------------------------------------------------
         1        2.0000           -0.8249203             -22.4472
       ...           ...                  ...                  ...
        79        2.0000           -0.4409720             -11.9995
        80        2.0000           -0.4329185             -11.7803
        81        2.0000           -0.4329165             -11.7803
        82        2.0000           -0.4258339             -11.5875
        83        2.0000           -0.4242457             -11.5443
        84        2.0000           -0.4242423             -11.5442
        85        2.0000           -0.4160949             -11.3225
        86        2.0000           -0.4131467             -11.2423
        87        2.0000           -0.4131436             -11.2422
        88        2.0000           -0.4103468             -11.1661
        89        2.0000           -0.3976256             -10.8199
        90        2.0000           -0.3893156             -10.5938
        91        2.0000           -0.3893143             -10.5938 (HOMO)
        92                         -0.3246967              -8.8354 (LUMO)
        93                         -0.2992700              -8.1436
        94                         -0.2992695              -8.1435
        95                         -0.2451605              -6.6712
        96                         -0.2451596              -6.6711
        97                         -0.2447002              -6.6586
        98                         -0.2419204              -6.5830
        99                         -0.2419121              -6.5828
       100                         -0.2293399              -6.2407
       101                         -0.1790434              -4.8720
       102                         -0.1790416              -4.8720
       ...                                ...                  ...
       166                          0.6649838              18.0951
      -------------------------------------------------------------
                  HL-Gap            0.0646176 Eh            1.7583 eV

     #   Z          covCN         q      C6AA      α(0)
     1   6 C        3.757    -0.109    22.632     6.783
     2   6 C        2.961     0.009    27.804     8.649
     3   6 C        2.933    -0.034    28.854     8.809
     4   6 C        2.985    -0.000    28.027     8.684
     5   6 C        2.959     0.204    23.671     7.980
     6   7 N        1.850    -0.292    28.428     7.902
     7   6 C        2.909     0.265    22.543     7.785
     8   7 N        1.850    -0.292    28.432     7.903
     9   6 C        2.959     0.204    23.671     7.980
    10   6 C        2.985    -0.000    28.027     8.684
    11   6 C        2.927    -0.026    28.657     8.779
    12   6 C        2.915    -0.047    29.173     8.857
    13   6 C        2.793     0.167    24.389     8.090
    14   9 F        0.787    -0.216    11.400     3.988
    15   6 C        2.961     0.009    27.804     8.649
    16   6 C        3.758    -0.109    22.632     6.783
    17   6 C        2.933    -0.034    28.854     8.809
    18   7 N        1.850    -0.292    28.427     7.902
    19   6 C        2.909     0.265    22.543     7.785
    20   7 N        1.850    -0.292    28.431     7.903
    21   6 C        2.959     0.204    23.671     7.980
    22   6 C        2.985    -0.000    28.027     8.684
    23   6 C        2.927    -0.026    28.657     8.779
    24   6 C        2.915    -0.047    29.174     8.857
    25   6 C        2.793     0.167    24.389     8.090
    26   9 F        0.787    -0.216    11.400     3.988
    27   6 C        2.961     0.009    27.804     8.649
    28   6 C        3.758    -0.109    22.632     6.783
    29   6 C        2.933    -0.034    28.854     8.809
    30   7 N        1.850    -0.292    28.427     7.902
    31   6 C        2.909     0.265    22.543     7.785
    32   7 N        1.850    -0.292    28.432     7.903
    33   7 N        2.768    -0.093    23.061     7.132
    34   6 C        2.927    -0.026    28.657     8.779
    35   6 C        2.915    -0.047    29.173     8.857
    36   6 C        2.793     0.167    24.389     8.090
    37   9 F        0.787    -0.216    11.400     3.988
    38   1 H        0.925     0.063     2.161     2.299
    39   1 H        0.925     0.063     2.160     2.299
    40   1 H        0.925     0.053     2.286     2.364
    41   1 H        0.926     0.078     1.996     2.210
    42   1 H        0.926     0.078     2.001     2.212
    43   1 H        0.926     0.067     2.119     2.276
    44   1 H        0.925     0.063     2.161     2.299
    45   1 H        0.925     0.053     2.286     2.364
    46   1 H        0.925     0.063     2.161     2.299
    47   1 H        0.926     0.078     1.997     2.210
    48   1 H        0.926     0.078     2.001     2.212
    49   1 H        0.926     0.067     2.119     2.276
    50   1 H        0.925     0.053     2.286     2.364
    51   1 H        0.925     0.063     2.161     2.299
    52   1 H        0.925     0.063     2.160     2.299
    53   1 H        0.926     0.078     1.996     2.209
    54   1 H        0.926     0.078     2.001     2.212
    55   1 H        0.926     0.067     2.119     2.276

molecular dipole:
                 x           y           z       tot (Debye)
 q only:        0.000      -0.000       0.000
   full:        0.000      -0.000       0.001       0.002

 projected vibrational frequencies (cm⁻¹)
eigval :       -0.00    -0.00    -0.00     0.00     0.00     0.00
eigval :       19.41    20.56    20.59    25.35    39.54    39.57
eigval :       44.44    44.71    45.28    49.18    49.26    93.42
eigval :      100.81   100.90   111.36   169.62   169.65   182.51
eigval :      183.39   193.86   196.13   196.17   220.88   220.91
eigval :      224.00   255.87   255.91   257.35   288.28   288.32
eigval :      317.18   338.51   338.53   349.68   411.33   411.39
eigval :      411.40   430.53   430.57   464.65   498.30   498.32
eigval :      508.82   520.38   520.38   532.80   544.18   544.21
eigval :      569.00   569.01   577.15   615.56   639.45   642.31
eigval :      642.31   656.09   656.13   681.55   681.56   697.85
eigval :      723.93   723.93   725.00   776.03   782.56   782.66
eigval :      782.95   825.69   843.87   843.89   844.40   853.95
eigval :      853.96   892.75   892.81   892.81   919.27   919.30
eigval :      919.33   976.48   976.52   998.05  1014.17  1014.33
eigval :     1024.63  1033.78  1033.82  1033.87  1104.35  1104.36
eigval :     1109.81  1114.36  1114.43  1148.30  1148.37  1153.94
eigval :     1163.07  1172.31  1172.35  1180.45  1205.57  1205.76
eigval :     1224.34  1225.30  1225.35  1244.97  1270.97  1271.06
eigval :     1328.24  1338.49  1339.29  1339.32  1365.32  1365.37
eigval :     1402.47  1402.57  1402.59  1416.51  1421.93  1421.98
eigval :     1462.73  1466.34  1466.35  1466.38  1473.37  1473.44
eigval :     1475.84  1478.52  1480.09  1480.15  1492.00  1509.10
eigval :     1509.21  1563.97  1564.06  1574.48  1583.98  1584.06
eigval :     1592.89  1602.41  1602.46  3012.06  3012.09  3012.12
eigval :     3027.17  3027.21  3027.28  3061.16  3061.30  3061.34
eigval :     3107.00  3107.02  3107.11  3110.14  3110.19  3110.27
eigval :     3122.33  3122.36  3122.41

   temp. (K)  partition function   enthalpy   heat capacity  entropy
                                   cal/mol     cal/K/mol   cal/K/mol   J/K/mol
 298.15  VIB  0.116E+16            18370.924    106.505    116.233
         ROT  0.216E+08              888.752      2.981     36.544
         INT  0.251E+23            19259.677    109.486    152.777
         TR   0.107E+29             1481.254      4.968     44.480
         TOT                       20740.9307   114.4542   197.2568   825.3223

       T/K    H(0)-H(T)+PV         H(T)/Eh          T*S/Eh         G(T)/Eh
   ------------------------------------------------------------------------
    298.15    0.330528E-01    0.424982E+00    0.937231E-01    0.331259E+00
   ------------------------------------------------------------------------

         :::::::::::::::::::::::::::::::::::::::::::::::::::::
         ::                  THERMODYNAMIC                  ::
         :::::::::::::::::::::::::::::::::::::::::::::::::::::
         :: total free energy        -101.437438079113 Eh   ::
         ::.................................................::
         :: total energy             -101.768696897990 Eh   ::
         :: zero point energy           0.391929096121 Eh   ::
         :: G(RRHO) w/o ZPVE           -0.060670277244 Eh   ::
         :: G(RRHO) contrib.            0.331258818877 Eh   ::
         :::::::::::::::::::::::::::::::::::::::::::::::::::::

           -------------------------------------------------
          | TOTAL ENERGY             -101.768696897990 Eh   |
          | TOTAL ENTHALPY           -101.343715024925 Eh   |
          | TOTAL FREE ENERGY        -101.437438079113 Eh   |
          | GRADIENT NORM               0.000024966517 Eh/α |
          | HOMO-LUMO GAP               1.758334563691 eV   |
           -------------------------------------------------

 * finished run on 2025/09/03 at 18:06:06.999
