   * xtb version 6.7.1 (edcfbbe) compiled by 'albert@albert-system' on 2024-07-22

   ID    Z sym.   atoms
    1    6 C      1-5, 7, 9-13, 15-17, 19, 21-25, 27-29, 31, 34-36
    2    7 N      6, 8, 18, 20, 30, 32, 33
    3    9 F      14, 26, 37
    4    1 H      38-55

          program call               : xtb data2507/gas/HAP-3MF/HAP-3MF.xyz --gfn 2 --ohess vtight --parallel 40 --molden --ceasefiles --namespace data2507/gas/HAP-3MF/HAP-3MF_gas_S0_preOpt
          :  Hamiltonian                  GFN2-xTB          :
 * total energy  :  -101.7477000 Eh     change       -0.9439276E-09 Eh
 * total energy  :  -101.7606387 Eh     change       -0.1293871E-01 Eh
 * total energy  :  -101.7669351 Eh     change       -0.6296438E-02 Eh
 * total energy  :  -101.7679776 Eh     change       -0.1042465E-02 Eh
 * total energy  :  -101.7683249 Eh     change       -0.3473459E-03 Eh
 * total energy  :  -101.7684311 Eh     change       -0.1061313E-03 Eh
 * total energy  :  -101.7684738 Eh     change       -0.4269745E-04 Eh
 * total energy  :  -101.7684984 Eh     change       -0.2465621E-04 Eh
 * total energy  :  -101.7685087 Eh     change       -0.1026173E-04 Eh
 * total energy  :  -101.7685243 Eh     change       -0.1558819E-04 Eh
 * total energy  :  -101.7686672 Eh     change       -0.2979015E-05 Eh
 * total energy  :  -101.7686687 Eh     change       -0.1481004E-05 Eh
 * total energy  :  -101.7686698 Eh     change       -0.1096556E-05 Eh
 * total energy  :  -101.7686708 Eh     change       -0.9931547E-06 Eh
 * total energy  :  -101.7686717 Eh     change       -0.9175618E-06 Eh
 * total energy  :  -101.7686729 Eh     change       -0.1166784E-05 Eh
 * total energy  :  -101.7686738 Eh     change       -0.9591169E-06 Eh
 * total energy  :  -101.7686741 Eh     change       -0.3149944E-06 Eh
 * total energy  :  -101.7686741 Eh     change       -0.1026879E-07 Eh
   *** GEOMETRY OPTIMIZATION CONVERGED AFTER 44 ITERATIONS ***

 final structure:
================
55
 xtb: 6.7.1 (edcfbbe)
C            3.96798077792911        5.83232516134255       -0.00676977319381
C            2.53372313651647        5.40770948200414       -0.00542706137929
C            2.15226494910105        4.07782682425225       -0.00501547732806
C            0.80505366056944        3.71273951685796       -0.00390613789540
C            0.43579799665203        2.30272745518164       -0.00316050300493
N            1.42694155902285        1.41299438741695       -0.00517827240390
C            1.10920947110604        0.13372563909650       -0.00364797009026
N            2.03357539306880       -0.80578385789339       -0.00449092719712
C            1.63290833063711       -2.07615693827005       -0.00170042307612
C            2.66785226631267       -3.10236511074987       -0.00093847632156
C            2.31374905451007       -4.45171879831334        0.00282224498480
C            3.29996728073123       -5.41688797919776        0.00438261683403
C            4.62615664944896       -5.02114278133678        0.00202726736496
F            5.58178246880179       -5.97294432643314        0.00389183081950
C            5.01809738713895       -3.68326689937382       -0.00182821712671
C            6.46915658325951       -3.32012218200453       -0.00474573989545
C            4.01363237787407       -2.73188823200890       -0.00327184799344
N            0.36701041567780       -2.48924226963635        0.00084983599172
C           -0.58210569794164       -1.57483565261779        0.00113078688121
N           -1.85784221738745       -1.90521493808777        0.00313418805193
C           -2.75765933750662       -0.92345975856046        0.00365273786174
C           -4.16332110780926       -1.30812056696713        0.00480253896264
C           -4.51906236194991       -2.65706332230720        0.00458063653880
C           -5.85259759380904       -3.01182534943010        0.00515588036333
C           -6.81232507977781       -2.01462279599420        0.00605085520266
F           -8.11258050058385       -2.37303167100471        0.00638527132908
C           -6.49513791138751       -0.65705681166550        0.00631396314710
C           -7.57931995678465        0.37342959703925        0.00780780306486
C           -5.15252617262258       -0.32325242229966        0.00567076289990
N           -2.48240242504719        0.37977841631052        0.00292836382141
C           -1.21596752002516        0.74423234130523        0.00070562213351
N           -0.86428140336067        2.01451738424405       -0.00033227023583
N           -0.22949049665178       -0.23217627424595       -0.00063965018409
C           -0.18574660751833        4.69475216486288       -0.00319884230989
C            0.17292453370384        6.02725124170201       -0.00368205446845
C            1.51614887580362        6.36061246009008       -0.00482158087962
F            1.85512719904545        7.66609867215323       -0.00509457590365
H            4.17913206941498        6.44802255208590        0.86666185374912
H            4.18117467736444        6.43457999069097       -0.88909131900094
H            4.62436315430843        4.96742494918036        0.00038144513103
H            2.89456898966611        3.29516246278717       -0.00545994250518
H            1.26927957565011       -4.71702443507642        0.00449402920491
H            3.06110576206298       -6.46872977120110        0.00744942036295
H            6.96542237059148       -3.74509811200963        0.86682568275235
H            6.95722061975332       -3.72855186645045       -0.88886790908674
H            6.59505479935588       -2.24169357432033        0.00444193834970
H            4.25509286850474       -1.68056335554121       -0.00613179972703
H           -3.74043586773512       -3.40208882356773        0.00397157513844
H           -6.16238986216435       -4.04501461434102        0.00487588424052
H           -7.15784601796806        1.37400190308280       -0.00461842078781
H           -8.20409765658958        0.26069587121143        0.89304559473663
H           -8.22158158656341        0.24554097185279       -0.86263249058112
H           -4.84527206422381        0.71076618290419        0.00575827689562
H           -1.22007626297443        4.39232668928774       -0.00236838911731
H           -0.56741154520059        6.81170017396349       -0.00317983512085

          :  Hamiltonian                  GFN2-xTB          :
         :: gradient norm              0.000042216382 Eh/a0 ::
         :: HOMO-LUMO gap              1.754130627907 eV    ::
         :: SCC energy              -103.240625113516 Eh    ::
         :: -> dispersion             -0.067472784674 Eh    ::
         :: repulsion energy           1.471950965488 Eh    ::

    * Orbital Energies and Occupations

         #    Occupation            Energy/Eh            Energy/eV
      -------------------------------------------------------------
         1        2.0000           -0.8251853             -22.4544
       ...           ...                  ...                  ...
        79        2.0000           -0.4409397             -11.9986
        80        2.0000           -0.4331862             -11.7876
        81        2.0000           -0.4326787             -11.7738
        82        2.0000           -0.4258521             -11.5880
        83        2.0000           -0.4243806             -11.5480
        84        2.0000           -0.4242154             -11.5435
        85        2.0000           -0.4160176             -11.3204
        86        2.0000           -0.4135144             -11.2523
        87        2.0000           -0.4129679             -11.2374
        88        2.0000           -0.4103093             -11.1651
        89        2.0000           -0.3976329             -10.8201
        90        2.0000           -0.3894749             -10.5982
        91        2.0000           -0.3891719             -10.5899 (HOMO)
        92                         -0.3247088              -8.8358 (LUMO)
        93                         -0.2993451              -8.1456
        94                         -0.2992189              -8.1422
        95                         -0.2454568              -6.6792
        96                         -0.2448762              -6.6634
        97                         -0.2447348              -6.6596
        98                         -0.2421007              -6.5879
        99                         -0.2417708              -6.5789
       100                         -0.2293566              -6.2411
       101                         -0.1791073              -4.8738
       102                         -0.1790065              -4.8710
       ...                                ...                  ...
       166                          0.6651233              18.0989
      -------------------------------------------------------------
                  HL-Gap            0.0644631 Eh            1.7541 eV

     #   Z          covCN         q      C6AA      α(0)
     1   6 C        3.758    -0.109    22.631     6.782
     2   6 C        2.961     0.009    27.807     8.649
     3   6 C        2.933    -0.034    28.856     8.810
     4   6 C        2.985    -0.000    28.027     8.684
     5   6 C        2.959     0.204    23.672     7.980
     6   7 N        1.850    -0.293    28.439     7.904
     7   6 C        2.909     0.265    22.544     7.786
     8   7 N        1.850    -0.293    28.438     7.904
     9   6 C        2.959     0.204    23.671     7.980
    10   6 C        2.985    -0.000    28.027     8.684
    11   6 C        2.927    -0.026    28.655     8.779
    12   6 C        2.915    -0.047    29.171     8.857
    13   6 C        2.793     0.167    24.389     8.090
    14   9 F        0.787    -0.216    11.400     3.988
    15   6 C        2.961     0.009    27.807     8.649
    16   6 C        3.757    -0.109    22.630     6.782
    17   6 C        2.933    -0.034    28.856     8.810
    18   7 N        1.850    -0.292    28.421     7.901
    19   6 C        2.909     0.265    22.542     7.785
    20   7 N        1.850    -0.292    28.419     7.901
    21   6 C        2.959     0.204    23.670     7.980
    22   6 C        2.985    -0.000    28.027     8.684
    23   6 C        2.927    -0.026    28.655     8.779
    24   6 C        2.915    -0.047    29.171     8.857
    25   6 C        2.793     0.167    24.388     8.090
    26   9 F        0.787    -0.216    11.400     3.988
    27   6 C        2.961     0.009    27.804     8.649
    28   6 C        3.757    -0.109    22.632     6.783
    29   6 C        2.933    -0.034    28.854     8.809
    30   7 N        1.850    -0.292    28.426     7.902
    31   6 C        2.909     0.265    22.543     7.785
    32   7 N        1.850    -0.293    28.433     7.903
    33   7 N        2.768    -0.093    23.061     7.132
    34   6 C        2.927    -0.026    28.657     8.779
    35   6 C        2.915    -0.047    29.173     8.857
    36   6 C        2.793     0.167    24.390     8.090
    37   9 F        0.787    -0.216    11.401     3.988
    38   1 H        0.925     0.063     2.161     2.299
    39   1 H        0.925     0.063     2.162     2.299
    40   1 H        0.925     0.052     2.289     2.366
    41   1 H        0.926     0.078     2.000     2.212
    42   1 H        0.926     0.078     1.996     2.210
    43   1 H        0.926     0.067     2.116     2.275
    44   1 H        0.925     0.063     2.161     2.299
    45   1 H        0.925     0.063     2.162     2.299
    46   1 H        0.925     0.052     2.290     2.366
    47   1 H        0.926     0.078     2.001     2.212
    48   1 H        0.926     0.078     1.998     2.210
    49   1 H        0.926     0.067     2.117     2.275
    50   1 H        0.925     0.053     2.286     2.365
    51   1 H        0.925     0.063     2.161     2.299
    52   1 H        0.925     0.063     2.160     2.299
    53   1 H        0.926     0.078     1.997     2.210
    54   1 H        0.926     0.078     2.000     2.212
    55   1 H        0.926     0.067     2.119     2.276

molecular dipole:
                 x           y           z       tot (Debye)
 q only:        0.367       0.372      -0.001
   full:        0.324       0.328      -0.001       1.172

 projected vibrational frequencies (cm⁻¹)
eigval :       -0.00    -0.00    -0.00     0.00     0.00     0.00
eigval :       18.34    20.16    22.69    24.44    38.63    40.50
eigval :       43.93    44.29    45.04    48.90    49.43    94.08
eigval :      100.21   101.43   111.40   167.85   170.86   175.42
eigval :      183.77   192.06   193.15   211.32   219.87   221.90
eigval :      224.05   247.34   256.82   261.27   287.70   288.94
eigval :      317.18   338.49   338.51   349.65   411.31   411.37
eigval :      411.39   428.99   433.44   460.15   496.66   508.82
eigval :      508.92   520.07   520.67   523.51   541.16   550.86
eigval :      567.15   569.49   578.86   615.04   639.44   642.16
eigval :      642.46   655.89   656.18   681.52   681.59   697.85
eigval :      723.91   723.95   725.03   776.03   782.44   782.79
eigval :      783.03   825.54   843.91   844.01   844.61   850.85
eigval :      857.29   892.23   892.72   892.94   919.34   919.40
eigval :      919.71   975.11   977.75   998.06  1013.57  1014.40
eigval :     1024.98  1033.73  1033.81  1033.88  1104.31  1104.40
eigval :     1109.92  1113.66  1114.86  1148.24  1148.31  1154.44
eigval :     1162.31  1172.22  1172.99  1180.33  1205.47  1205.87
eigval :     1224.06  1224.70  1225.93  1244.85  1269.23  1272.92
eigval :     1327.91  1337.78  1339.16  1340.54  1361.96  1368.58
eigval :     1402.40  1402.51  1402.62  1417.84  1418.41  1424.11
eigval :     1464.88  1466.35  1466.36  1466.56  1469.43  1473.47
eigval :     1477.04  1478.12  1480.08  1481.53  1491.76  1509.10
eigval :     1509.20  1563.50  1564.41  1574.73  1583.41  1584.36
eigval :     1592.96  1602.14  1602.78  3012.09  3012.13  3012.17
eigval :     3027.25  3027.27  3027.33  3061.06  3061.19  3061.28
eigval :     3107.05  3107.18  3107.30  3110.02  3110.16  3110.24
eigval :     3122.29  3122.43  3122.55

   temp. (K)  partition function   enthalpy   heat capacity  entropy
                                   cal/mol     cal/K/mol   cal/K/mol   J/K/mol
 298.15  VIB  0.121E+16            18373.128    106.479    116.250
         ROT  0.646E+08              888.752      2.981     38.719
         INT  0.781E+23            19261.881    109.460    154.969
         TR   0.107E+29             1481.254      4.968     44.480
         TOT                       20743.1345   114.4280   199.4494   834.4961

       T/K    H(0)-H(T)+PV         H(T)/Eh          T*S/Eh         G(T)/Eh
   ------------------------------------------------------------------------
    298.15    0.330563E-01    0.424982E+00    0.947648E-01    0.330217E+00
   ------------------------------------------------------------------------

         :::::::::::::::::::::::::::::::::::::::::::::::::::::
         ::                  THERMODYNAMIC                  ::
         :::::::::::::::::::::::::::::::::::::::::::::::::::::
         :: total free energy        -101.438456928210 Eh   ::
         ::.................................................::
         :: total energy             -101.768674148028 Eh   ::
         :: zero point energy           0.391925757698 Eh   ::
         :: G(RRHO) w/o ZPVE           -0.061708537880 Eh   ::
         :: G(RRHO) contrib.            0.330217219819 Eh   ::
         :::::::::::::::::::::::::::::::::::::::::::::::::::::

           -------------------------------------------------
          | TOTAL ENERGY             -101.768674148028 Eh   |
          | TOTAL ENTHALPY           -101.343692101391 Eh   |
          | TOTAL FREE ENERGY        -101.438456928210 Eh   |
          | GRADIENT NORM               0.000042223953 Eh/α |
          | HOMO-LUMO GAP               1.754130891234 eV   |
           -------------------------------------------------

 * finished run on 2025/09/03 at 18:04:08.603
