   * xtb version 6.7.1 (edcfbbe) compiled by 'albert@albert-system' on 2024-07-22

   ID    Z sym.   atoms
    1    8 O      1, 3, 15, 16
    2    7 N      2, 14, 19, 32
    3    6 C      4-13, 17, 18, 20-31, 33-46
    4    1 H      47-70

          program call               : xtb data2507/gas/DCBNPE/DCBNPE_gas_S0_finalOpt.xtbopt.xyz --gfn 2 --spinpol --tblite --uhf 2 --ohess vtight --parallel 40 --molden --ceasefiles --namespace data2507/gas/DCBNPE/DCBNPE_gas_T1_preOpt
 * total energy  :  -121.3861151 Eh     change       -0.1382475E-08 Eh
 * total energy  :  -121.3911414 Eh     change       -0.5026377E-02 Eh
 * total energy  :  -121.3930035 Eh     change       -0.1862064E-02 Eh
 * total energy  :  -121.3933332 Eh     change       -0.3296640E-03 Eh
 * total energy  :  -121.3936711 Eh     change       -0.3379374E-03 Eh
 * total energy  :  -121.3939640 Eh     change       -0.2929193E-03 Eh
 * total energy  :  -121.3942744 Eh     change       -0.3103427E-03 Eh
 * total energy  :  -121.3945493 Eh     change       -0.2749819E-03 Eh
 * total energy  :  -121.3947942 Eh     change       -0.2448284E-03 Eh
 * total energy  :  -121.3949748 Eh     change       -0.1806626E-03 Eh
 * total energy  :  -121.3971232 Eh     change       -0.5233934E-06 Eh
 * total energy  :  -121.3971237 Eh     change       -0.5268216E-06 Eh
 * total energy  :  -121.3971243 Eh     change       -0.5731272E-06 Eh
 * total energy  :  -121.3971248 Eh     change       -0.5532926E-06 Eh
 * total energy  :  -121.3971254 Eh     change       -0.6006215E-06 Eh
 * total energy  :  -121.3971261 Eh     change       -0.6360494E-06 Eh
 * total energy  :  -121.3971267 Eh     change       -0.6250301E-06 Eh
 * total energy  :  -121.3971274 Eh     change       -0.6779697E-06 Eh
 * total energy  :  -121.3971274 Eh     change       -0.5322772E-07 Eh
   *** GEOMETRY OPTIMIZATION CONVERGED AFTER 185 ITERATIONS ***

 final structure:
================
70
 xtb: 6.7.1 (edcfbbe)
O           -6.39085228356716       -0.45574661020898       -1.68060370906238
N           -5.81158455170514       -1.30722036719194       -1.02104557305540
O           -6.36451947488956       -2.26701681296900       -0.50284708053271
C           -4.41210365529311       -1.17003491822764       -0.84135018540148
C           -3.73270540293286       -0.10478188163524       -1.44093041200528
C           -2.38556635230637        0.04107907423074       -1.24821697666508
C           -1.66319200085982       -0.86966936644475       -0.44154015038239
C           -0.29015538302829       -0.65862645962383       -0.12602484262187
C            0.29265829960810        0.66205712538978       -0.12948240832220
C            1.66543903262575        0.87170480859743       -0.44699655926803
C            2.36885231724900        1.96904590328774        0.10836274304564
C            3.71511651058031        2.10974409117255       -0.08203395952846
C            4.41393018574015        1.17083100285997       -0.85056688705071
N            5.81323099279076        1.30758536359251       -1.03221096625908
O            6.39220066178815        0.45292338296400       -1.68785645496915
O            6.36624614373977        2.27025544840841       -0.51950382789542
C            3.73440146545321        0.10223422966828       -1.44399541435179
C            2.38745801585472       -0.04304949780094       -1.24944267165851
N           -0.51385950223556        1.72923507532909        0.19630843283050
C           -1.50138600144277        1.73023487217343        1.17421998779538
C           -1.78657946939706        0.77874192452864        2.14225491804495
C           -2.82659858892547        1.03925303441030        3.01668834012858
C           -3.55373937076018        2.22272690686352        2.94736668022740
C           -3.24646927572926        3.19292329504894        2.00912838399534
C           -2.21258006986142        2.94832365681143        1.12079595046885
C           -1.62862541477153        3.72043817727646        0.05245613925095
C           -1.92353804788960        4.96180770608096       -0.48748584652122
C           -1.17887717547844        5.40661471326915       -1.56593416264234
C           -0.16955173564138        4.61993144079195       -2.11123454302785
C            0.14149149921520        3.37780920163067       -1.58632204005539
C           -0.58326885991007        2.94089412126967       -0.48781701150177
N            0.51642431657346       -1.72425629294453        0.20454959110288
C            1.50452603198756       -1.72066746422794        1.18187890171806
C            1.79074766864014       -0.76433609923777        2.14483047416710
C            2.83110257694131       -1.02087291721224        3.02004188263890
C            3.55758898973554       -2.20506870977208        2.95645057802805
C            3.24932767838193       -3.17992342975234        2.02338084803725
C            2.21509389216556       -2.93937140222976        1.13434625335461
C            1.63016497598806       -3.71671080383957        0.07033729354576
C            1.92413922837675       -4.96101585748563       -0.46332566045226
C            1.17863395991560       -5.41102786288619       -1.53903020796329
C            0.16940508764556       -4.62665951390928       -2.08783748346227
C           -0.14070912063792       -3.38167864075363       -1.56919083642892
C            0.58488454423939       -2.93945448617006       -0.47336365013594
C           -2.36647852694185       -1.96392446944158        0.12002468264191
C           -3.71293560257321       -2.10518525581103       -0.06854025634289
H           -4.28935584054046        0.58405535379134       -2.05730489380657
H           -1.86256118120402        0.84135761528029       -1.74895111336709
H            1.83776675039973        2.67929121536714        0.72422773082673
H            4.26250716157671        2.92881669383338        0.35822558816984
H            4.29077220684941       -0.58964672866842       -2.05721211734934
H            1.86431524666006       -0.84610768299113       -1.74555983446842
H           -1.22192487757569       -0.13639417636866        2.22550419292334
H           -3.07373724026809        0.30843263071744        3.77116029112075
H           -4.36095724644282        2.38878772577773        3.64382409663415
H           -3.79648347127433        4.11999193406634        1.96901655367465
H           -2.72283413901323        5.56046507570347       -0.07958764814772
H           -1.38892538612302        6.37234615469188       -1.99913910320579
H            0.38420211504051        4.98271855911718       -2.96333338502807
H            0.92154819804844        2.77593344911608       -2.02517321746857
H            1.22662717061362        0.15151968228044        2.22365530745412
H            3.07902354621241       -0.28629377990545        3.77059688634430
H            4.36508035302517       -2.36796259395108        3.65333934047759
H            3.79883541631307       -4.10747661164856        1.98776017152836
H            2.72335590899959       -5.55796542905153       -0.05278052502383
H            1.38793692689307       -6.37910279713274       -1.96733505240031
H           -0.38501128054134       -4.99357448037494       -2.93773545298102
H           -0.92070746822500       -2.78168303643654       -2.01071724928628
H           -1.83511536910033       -2.67113090462126        0.73914060722757
H           -4.26023438311783       -2.92177549223921        0.37641129414104

 projected vibrational frequencies (cm⁻¹)
eigval :       -0.00    -0.00    -0.00    -0.00    -0.00     0.00
eigval :       12.83    17.08    22.34    24.89    32.70    34.41
eigval :       36.40    50.00    50.75    78.95    85.85    96.66
eigval :       98.77   105.97   110.88   132.23   132.89   147.31
eigval :      149.40   161.56   162.40   173.72   174.91   180.70
eigval :      227.98   247.97   258.91   262.84   274.32   278.11
eigval :      291.44   321.31   345.52   348.64   386.56   387.07
eigval :      392.23   392.70   410.87   418.76   420.24   424.97
eigval :      432.18   436.93   441.61   457.68   498.47   513.50
eigval :      515.52   521.30   536.08   536.86   542.27   544.93
eigval :      546.11   553.68   581.47   585.83   589.55   596.75
eigval :      600.58   611.05   631.22   637.61   640.40   656.93
eigval :      665.47   673.98   675.12   692.84   709.51   710.07
eigval :      713.43   715.12   751.50   754.27   768.53   771.06
eigval :      777.51   779.62   780.64   803.07   818.11   824.96
eigval :      825.71   853.08   854.26   868.19   870.93   871.47
eigval :      875.83   877.59   881.96   900.42   904.82   907.28
eigval :      907.44   909.09   913.07   918.74   918.76   922.50
eigval :      924.01   924.24   924.89   925.05   925.53   988.91
eigval :      995.90  1010.07  1013.86  1059.26  1069.93  1072.39
eigval :     1072.87  1076.90  1082.50  1127.34  1132.22  1132.91
eigval :     1136.33  1138.04  1144.57  1147.16  1164.51  1176.58
eigval :     1176.63  1178.64  1181.93  1205.30  1207.78  1213.44
eigval :     1221.17  1225.18  1230.71  1245.01  1264.97  1265.55
eigval :     1269.16  1273.20  1274.14  1287.40  1290.85  1302.04
eigval :     1303.61  1339.89  1340.09  1341.69  1342.66  1349.91
eigval :     1362.24  1363.42  1381.53  1384.72  1415.37  1416.65
eigval :     1418.71  1426.73  1433.98  1434.70  1437.97  1448.29
eigval :     1459.59  1459.74  1479.63  1479.75  1513.45  1513.56
eigval :     1566.74  1574.04  1574.20  1577.58  1582.35  1582.84
eigval :     1583.09  1583.32  1601.69  1602.79  1612.54  1612.83
eigval :     3086.94  3087.09  3090.96  3091.15  3091.60  3091.67
eigval :     3092.38  3092.99  3095.64  3095.87  3097.14  3097.20
eigval :     3102.17  3102.32  3103.89  3103.95  3106.48  3106.71
eigval :     3107.89  3107.95  3108.04  3108.18  3108.91  3109.43

   temp. (K)  partition function   enthalpy   heat capacity  entropy
                                   cal/mol     cal/K/mol   cal/K/mol   J/K/mol
 298.15  VIB  0.157E+17            21027.807    131.992    130.285
         ROT  0.255E+08              888.752      2.981     36.870
         INT  0.399E+24            21916.560    134.973    167.155
         TR   0.142E+29             1481.254      4.968     45.042
         TOT                       23397.8135   139.9407   212.1963   887.8292

       T/K    H(0)-H(T)+PV         H(T)/Eh          T*S/Eh         G(T)/Eh
   ------------------------------------------------------------------------
    298.15    0.372868E-01    0.551938E+00    0.100821E+00    0.451117E+00
   ------------------------------------------------------------------------

         :::::::::::::::::::::::::::::::::::::::::::::::::::::
         ::                  THERMODYNAMIC                  ::
         :::::::::::::::::::::::::::::::::::::::::::::::::::::
         :: total free energy        -120.946010261260 Eh   ::
         ::.................................................::
         :: total energy             -121.397127415810 Eh   ::
         :: zero point energy           0.514651661702 Eh   ::
         :: G(RRHO) w/o ZPVE           -0.063534507152 Eh   ::
         :: G(RRHO) contrib.            0.451117154550 Eh   ::
         :::::::::::::::::::::::::::::::::::::::::::::::::::::

           -------------------------------------------------
          | TOTAL ENERGY             -121.397127415810 Eh   |
          | TOTAL ENTHALPY           -120.845188964850 Eh   |
          | TOTAL FREE ENERGY        -120.946010261260 Eh   |
          | GRADIENT NORM               0.000073551948 Eh/α |
           -------------------------------------------------

 * finished run on 2025/09/04 at 20:17:26.955
