   * xtb version 6.7.1 (edcfbbe) compiled by 'albert@albert-system' on 2024-07-22

   ID    Z sym.   atoms
    1    8 O      1, 3, 15, 16
    2    7 N      2, 14, 19, 32
    3    6 C      4-13, 17, 18, 20-31, 33-46
    4    1 H      47-70

          program call               : xtb data2507/gas/DCBNPE/DCBNPE_gas_S0_crest.xyz --gfn 2 --ohess vtight --parallel 40 --molden --ceasefiles --namespace data2507/gas/DCBNPE/DCBNPE_gas_S0_finalOpt
          :  Hamiltonian                  GFN2-xTB          :
 * total energy  :  -121.4440929 Eh     change       -0.2246878E-08 Eh
 * total energy  :  -121.4440922 Eh     change        0.7701788E-06 Eh
 * total energy  :  -121.4440943 Eh     change       -0.2124313E-05 Eh
 * total energy  :  -121.4440950 Eh     change       -0.7173664E-06 Eh
 * total energy  :  -121.4440966 Eh     change       -0.1581259E-05 Eh
 * total energy  :  -121.4440984 Eh     change       -0.1788198E-05 Eh
 * total energy  :  -121.4440991 Eh     change       -0.7528720E-06 Eh
 * total energy  :  -121.4441004 Eh     change       -0.1277223E-05 Eh
 * total energy  :  -121.4441011 Eh     change       -0.6995223E-06 Eh
 * total energy  :  -121.4441018 Eh     change       -0.7416471E-06 Eh
 * total energy  :  -121.4441022 Eh     change       -0.3915710E-06 Eh
 * total energy  :  -121.4441024 Eh     change       -0.1673658E-06 Eh
 * total energy  :  -121.4441026 Eh     change       -0.2205352E-06 Eh
 * total energy  :  -121.4441030 Eh     change       -0.4049951E-06 Eh
 * total energy  :  -121.4441034 Eh     change       -0.3891817E-06 Eh
 * total energy  :  -121.4441036 Eh     change       -0.1604483E-06 Eh
 * total energy  :  -121.4441037 Eh     change       -0.8426453E-07 Eh
   *** GEOMETRY OPTIMIZATION CONVERGED AFTER 17 ITERATIONS ***

 final structure:
================
70
 xtb: 6.7.1 (edcfbbe)
O           -6.51968979881214       -0.97482732772628       -1.02408322467765
N           -5.83744328888665       -1.68248814244992       -0.31316433492209
O           -6.26215506377572       -2.59248450652727        0.36745890695330
C           -4.42249104582626       -1.42335053922664       -0.27364009986930
C           -3.89245944835598       -0.39517289928418       -1.04603914698377
C           -2.54075258780284       -0.13745948424548       -0.99413340120681
C           -1.70546905560482       -0.89715079106257       -0.16877367500628
C           -0.26615102558493       -0.62642342231789       -0.08214778552361
C            0.26175065657746        0.62936171460484       -0.08670429991526
C            1.70167110573209        0.89682071916693       -0.17747575484905
C            2.25378113614706        1.94549844476950        0.56479667483281
C            3.60614422393929        2.20212581883159        0.51754088188084
C            4.42021706356674        1.41334649545089       -0.28729756401681
N            5.83619134185614        1.66681411463376       -0.32861777687044
O            6.51452261498382        0.95705497354542       -1.04116041160191
O            6.26555458264574        2.57431088346868        0.35239293567066
C            3.88546615143693        0.38595896030694       -1.05747285805004
C            2.53293642427236        0.13313514400695       -1.00315497298618
N           -0.55836440974508        1.74782354461451        0.07540036158139
C           -1.55685096161617        1.90702191651065        1.02354677998336
C           -1.88813253072268        1.10130176356244        2.10184072942767
C           -2.92436191333329        1.51155443213751        2.91895515566420
C           -3.61112142290870        2.69912666452948        2.68039179786133
C           -3.26103731767269        3.52278194687655        1.62908496586552
C           -2.22218894987373        3.13105636140798        0.79556756630804
C           -1.59000774942429        3.73845858837218       -0.34451225687088
C           -1.80558393737785        4.92159059979790       -1.03780892067519
C           -1.00352223402967        5.20469896412024       -2.12603236912637
C           -0.00552986061932        4.32211281529282       -2.53084125406041
C            0.22583851720485        3.13663546469620       -1.85787966302286
C           -0.56509942061081        2.85824669586506       -0.75418278443644
N            0.55646170863259       -1.74264578019336        0.08497642964483
C            1.55579640759736       -1.89415522782023        1.03335179921652
C            1.88371261743162       -1.08291843086226        2.10853249650871
C            2.92235669903003       -1.48521996444642        2.92649906844877
C            3.61459397776596       -2.67039684456794        2.69181050663471
C            3.26788570474377       -3.49955838344824        1.64371649446392
C            2.22677527058582       -3.11581121699266        0.80928872817906
C            1.59728609428081       -3.72969953649402       -0.32880442812617
C            1.81841218512012       -4.91377587677346       -1.01874444831877
C            1.01794994358855       -5.20356452413512       -2.10638721833053
C            0.01590484619901       -4.32679321242490       -2.51385769622119
C           -0.22118232349084       -3.14059375785617       -1.84417531999390
C            0.56834731272052       -2.85544231669280       -0.74120081363604
C           -2.25302761070554       -1.94624933815494        0.57642715979229
C           -3.60451245000755       -2.20768495440424        0.53162540103353
H           -4.55008031763773        0.18438246554174       -1.67531675870180
H           -2.12494944923700        0.64472351471312       -1.61032401193352
H            1.61539534056519        2.54717419068519        1.19445660621958
H            4.04839092329437        2.99832548311000        1.09627810436091
H            4.54010931809669       -0.19702671417561       -1.68668331209777
H            2.11343857804601       -0.64870745291778       -1.61730410693912
H           -1.35349419018024        0.18685623503513        2.30922921678225
H           -3.20445411051342        0.89795247183497        3.76179856696882
H           -4.41988285574338        2.98143254455626        3.33688061025837
H           -3.77737503012490        4.45454424785865        1.45733718486277
H           -2.58610088335220        5.60055845790204       -0.73097628194505
H           -1.15265548514413        6.12034993302512       -2.67769199391614
H            0.59977012163327        4.56591556255675       -3.39077428509292
H            0.99640599213596        2.45503638062547       -2.18529172321752
H            1.34471457906539       -0.17030438844895        2.31276481307413
H            3.20008495285128       -0.86719175873595        3.76688709618139
H            4.42509223944965       -2.94642074961047        3.34882664976527
H            3.78865571310573       -4.42942082806883        1.47508599451922
H            2.60195101221099       -5.58831081360459       -0.70983949108776
H            1.17152356623142       -6.12000136611937       -2.65552200049407
H           -0.58796425134077       -4.57578752015274       -3.37331183563361
H           -0.99490121533939       -2.46343396019349       -2.17342725242631
H           -1.61166919432300       -2.54452580449939        1.20630445575602
H           -4.04312477262145       -3.00439639757966        1.11242666698339

          :  Hamiltonian                  GFN2-xTB          :
         :: gradient norm              0.000036428703 Eh/a0 ::
         :: HOMO-LUMO gap              1.106626422625 eV    ::
         :: SCC energy              -123.426662621078 Eh    ::
         :: -> dispersion             -0.110804897470 Eh    ::
         :: repulsion energy           1.982558966775 Eh    ::

    * Orbital Energies and Occupations

         #    Occupation            Energy/Eh            Energy/eV
      -------------------------------------------------------------
         1        2.0000           -0.7756792             -21.1073
       ...           ...                  ...                  ...
        98        2.0000           -0.4420745             -12.0295
        99        2.0000           -0.4416944             -12.0191
       100        2.0000           -0.4389494             -11.9444
       101        2.0000           -0.4377313             -11.9113
       102        2.0000           -0.4372007             -11.8968
       103        2.0000           -0.4366017             -11.8805
       104        2.0000           -0.4245131             -11.5516
       105        2.0000           -0.4237783             -11.5316
       106        2.0000           -0.4211193             -11.4592
       107        2.0000           -0.3982388             -10.8366
       108        2.0000           -0.3981608             -10.8345
       109        2.0000           -0.3956335             -10.7657
       110        2.0000           -0.3772710             -10.2661 (HOMO)
       111                         -0.3366032              -9.1594 (LUMO)
       112                         -0.3242243              -8.8226
       113                         -0.2871205              -7.8129
       114                         -0.2689564              -7.3187
       115                         -0.2687993              -7.3144
       116                         -0.2640429              -7.1850
       117                         -0.2634368              -7.1685
       118                         -0.2441685              -6.6442
       119                         -0.2409609              -6.5569
       120                         -0.2405259              -6.5450
       121                         -0.2280213              -6.2048
       ...                                ...                  ...
       208                          0.7272377              19.7891
      -------------------------------------------------------------
                  HL-Gap            0.0406678 Eh            1.1066 eV

     #   Z          covCN         q      C6AA      α(0)
     1   8 O        0.930    -0.386    21.376     6.201
     2   7 N        2.760     0.543    13.552     5.468
     3   8 O        0.930    -0.386    21.372     6.200
     4   6 C        2.918     0.004    27.936     8.667
     5   6 C        2.917    -0.021    28.520     8.757
     6   6 C        2.923    -0.027    28.668     8.780
     7   6 C        2.976     0.024    27.471     8.597
     8   6 C        2.900     0.040    27.110     8.537
     9   6 C        2.900     0.040    27.107     8.537
    10   6 C        2.976     0.024    27.470     8.597
    11   6 C        2.925    -0.023    28.590     8.769
    12   6 C        2.916    -0.020    28.508     8.756
    13   6 C        2.918     0.004    27.936     8.667
    14   7 N        2.760     0.543    13.552     5.467
    15   8 O        0.930    -0.386    21.375     6.200
    16   8 O        0.930    -0.386    21.371     6.200
    17   6 C        2.917    -0.021    28.520     8.757
    18   6 C        2.923    -0.027    28.667     8.780
    19   7 N        2.803    -0.043    22.070     6.977
    20   6 C        3.068     0.042    26.988     8.518
    21   6 C        2.910    -0.052    29.292     8.875
    22   6 C        2.925    -0.032    28.802     8.801
    23   6 C        2.920    -0.037    28.932     8.821
    24   6 C        2.913    -0.031    28.774     8.796
    25   6 C        3.067    -0.014    28.303     8.724
    26   6 C        3.066    -0.014    28.302     8.723
    27   6 C        2.913    -0.031    28.769     8.795
    28   6 C        2.920    -0.037    28.922     8.819
    29   6 C        2.925    -0.031    28.773     8.797
    30   6 C        2.910    -0.050    29.253     8.869
    31   6 C        3.070     0.044    26.942     8.511
    32   7 N        2.803    -0.043    22.075     6.978
    33   6 C        3.068     0.042    26.988     8.518
    34   6 C        2.910    -0.052    29.294     8.875
    35   6 C        2.925    -0.032    28.803     8.801
    36   6 C        2.920    -0.038    28.934     8.821
    37   6 C        2.913    -0.031    28.774     8.796
    38   6 C        3.067    -0.015    28.304     8.724
    39   6 C        3.066    -0.014    28.302     8.724
    40   6 C        2.913    -0.031    28.769     8.795
    41   6 C        2.920    -0.037    28.923     8.819
    42   6 C        2.925    -0.031    28.773     8.797
    43   6 C        2.910    -0.051    29.254     8.869
    44   6 C        3.070     0.044    26.941     8.511
    45   6 C        2.925    -0.023    28.591     8.769
    46   6 C        2.916    -0.020    28.508     8.756
    47   1 H        0.926     0.081     1.965     2.192
    48   1 H        0.926     0.053     2.283     2.363
    49   1 H        0.926     0.055     2.259     2.350
    50   1 H        0.926     0.082     1.959     2.189
    51   1 H        0.926     0.081     1.965     2.192
    52   1 H        0.926     0.053     2.282     2.362
    53   1 H        0.926     0.023     2.691     2.565
    54   1 H        0.926     0.036     2.507     2.476
    55   1 H        0.926     0.037     2.484     2.465
    56   1 H        0.926     0.039     2.458     2.452
    57   1 H        0.926     0.038     2.470     2.458
    58   1 H        0.926     0.036     2.497     2.471
    59   1 H        0.926     0.036     2.503     2.474
    60   1 H        0.926     0.024     2.680     2.560
    61   1 H        0.926     0.023     2.692     2.566
    62   1 H        0.926     0.036     2.508     2.476
    63   1 H        0.926     0.037     2.484     2.465
    64   1 H        0.926     0.039     2.459     2.452
    65   1 H        0.926     0.038     2.471     2.458
    66   1 H        0.926     0.036     2.497     2.471
    67   1 H        0.926     0.036     2.503     2.474
    68   1 H        0.926     0.023     2.681     2.561
    69   1 H        0.926     0.055     2.258     2.350
    70   1 H        0.926     0.082     1.960     2.189

molecular dipole:
                 x           y           z       tot (Debye)
 q only:        0.000       0.014       0.128
   full:        0.000       0.014       0.146       0.373

 projected vibrational frequencies (cm⁻¹)
eigval :       -0.00    -0.00    -0.00    -0.00     0.00     0.00
eigval :       12.67    14.16    21.62    23.95    28.75    30.36
eigval :       32.39    36.40    36.67    71.82    76.12    79.97
eigval :       99.60   105.33   107.10   109.56   130.40   146.07
eigval :      147.92   160.63   160.82   171.64   175.35   177.49
eigval :      224.62   256.81   260.02   263.27   273.57   274.42
eigval :      296.64   316.63   330.51   354.86   373.61   375.13
eigval :      395.36   396.02   406.05   420.94   424.83   434.39
eigval :      437.77   444.92   450.57   471.64   508.11   516.77
eigval :      518.96   525.72   537.35   537.60   540.87   541.01
eigval :      542.48   547.06   584.22   588.27   591.02   599.16
eigval :      611.05   614.52   640.63   647.75   656.96   668.49
eigval :      672.50   673.26   678.35   703.03   707.09   709.03
eigval :      734.59   738.66   752.55   755.40   768.81   769.53
eigval :      780.18   781.66   781.85   804.48   828.23   840.02
eigval :      840.76   869.57   870.19   871.54   872.26   872.83
eigval :      876.22   878.48   890.74   903.82   904.14   904.92
eigval :      906.17   907.62   909.26   923.26   923.60   923.85
eigval :      924.62   925.62   925.71   934.20   934.74   999.67
eigval :     1008.48  1011.97  1014.46  1070.54  1071.61  1072.29
eigval :     1072.45  1077.41  1079.62  1130.41  1131.39  1134.11
eigval :     1134.73  1148.46  1151.70  1153.40  1166.52  1180.13
eigval :     1180.38  1180.86  1182.89  1197.46  1201.30  1216.29
eigval :     1232.84  1234.59  1235.08  1255.74  1261.34  1265.42
eigval :     1267.16  1296.08  1296.83  1298.01  1299.63  1323.57
eigval :     1330.05  1338.65  1341.12  1355.37  1356.53  1358.85
eigval :     1359.79  1363.81  1366.73  1408.29  1408.70  1421.03
eigval :     1426.44  1426.50  1429.55  1453.54  1458.96  1473.02
eigval :     1473.76  1486.26  1486.29  1550.21  1570.31  1571.67
eigval :     1576.34  1576.35  1579.44  1589.29  1590.16  1596.54
eigval :     1599.17  1599.84  1611.77  1613.25  1657.84  1658.01
eigval :     3082.43  3082.81  3083.02  3083.25  3087.77  3087.84
eigval :     3088.81  3089.04  3091.45  3091.56  3094.44  3094.53
eigval :     3096.12  3096.27  3098.31  3098.70  3102.52  3102.55
eigval :     3103.85  3104.06  3107.41  3107.46  3109.40  3109.46

   temp. (K)  partition function   enthalpy   heat capacity  entropy
                                   cal/mol     cal/K/mol   cal/K/mol   J/K/mol
 298.15  VIB  0.835E+17            21088.641    130.314    131.452
         ROT  0.258E+08              888.752      2.981     36.899
         INT  0.216E+25            21977.393    133.295    168.351
         TR   0.142E+29             1481.254      4.968     45.042
         TOT                       23458.6470   138.2629   213.3924   892.8338

       T/K    H(0)-H(T)+PV         H(T)/Eh          T*S/Eh         G(T)/Eh
   ------------------------------------------------------------------------
    298.15    0.373837E-01    0.553895E+00    0.101390E+00    0.452505E+00
   ------------------------------------------------------------------------

         :::::::::::::::::::::::::::::::::::::::::::::::::::::
         ::                  THERMODYNAMIC                  ::
         :::::::::::::::::::::::::::::::::::::::::::::::::::::
         :: total free energy        -120.991598616745 Eh   ::
         ::.................................................::
         :: total energy             -121.444103654288 Eh   ::
         :: zero point energy           0.516510924486 Eh   ::
         :: G(RRHO) w/o ZPVE           -0.064005886943 Eh   ::
         :: G(RRHO) contrib.            0.452505037543 Eh   ::
         :::::::::::::::::::::::::::::::::::::::::::::::::::::

           -------------------------------------------------
          | TOTAL ENERGY             -121.444103654288 Eh   |
          | TOTAL ENTHALPY           -120.890208996238 Eh   |
          | TOTAL FREE ENERGY        -120.991598616745 Eh   |
          | GRADIENT NORM               0.000036373618 Eh/α |
          | HOMO-LUMO GAP               1.106626975453 eV   |
           -------------------------------------------------

 * finished run on 2025/09/04 at 20:17:10.060
