   * xtb version 6.7.1 (edcfbbe) compiled by 'albert@albert-system' on 2024-07-22

   ID    Z sym.   atoms
    1    8 O      1, 3, 15, 16
    2    7 N      2, 14, 19, 32
    3    6 C      4-13, 17, 18, 20-31, 33-46
    4    1 H      47-70

          program call               : xtb data2507/gas/DCBNPE/DCBNPE_gas_T1_crest.xyz --gfn 2 --spinpol --tblite --uhf 2 --ohess vtight --parallel 40 --molden --ceasefiles --namespace data2507/gas/DCBNPE/DCBNPE_gas_T1_finalOpt
 * total energy  :  -121.3970928 Eh     change       -0.3951115E-08 Eh
 * total energy  :  -121.3971036 Eh     change       -0.1080164E-04 Eh
 * total energy  :  -121.3971073 Eh     change       -0.3682355E-05 Eh
 * total energy  :  -121.3971097 Eh     change       -0.2352388E-05 Eh
 * total energy  :  -121.3971130 Eh     change       -0.3284830E-05 Eh
 * total energy  :  -121.3971150 Eh     change       -0.2053260E-05 Eh
 * total energy  :  -121.3971189 Eh     change       -0.3841441E-05 Eh
 * total energy  :  -121.3971221 Eh     change       -0.3267191E-05 Eh
 * total energy  :  -121.3971251 Eh     change       -0.3020938E-05 Eh
 * total energy  :  -121.3971270 Eh     change       -0.1856345E-05 Eh
 * total energy  :  -121.3971353 Eh     change       -0.1128014E-05 Eh
 * total energy  :  -121.3971366 Eh     change       -0.1335718E-05 Eh
 * total energy  :  -121.3971380 Eh     change       -0.1328220E-05 Eh
 * total energy  :  -121.3971386 Eh     change       -0.6348498E-06 Eh
 * total energy  :  -121.3971389 Eh     change       -0.3228071E-06 Eh
 * total energy  :  -121.3971392 Eh     change       -0.2754705E-06 Eh
 * total energy  :  -121.3971396 Eh     change       -0.4114209E-06 Eh
 * total energy  :  -121.3971401 Eh     change       -0.4505095E-06 Eh
 * total energy  :  -121.3971401 Eh     change       -0.4031881E-07 Eh
   *** GEOMETRY OPTIMIZATION CONVERGED AFTER 22 ITERATIONS ***

 final structure:
================
70
 xtb: 6.7.1 (edcfbbe)
O           -6.18514192087988       -2.71349848462980        0.48030811415209
N           -5.69849114867587       -1.71706665404159        0.99574972833058
O           -6.33237758289074       -0.90941654103685        1.66008124672921
C           -4.31346360647303       -1.48057580037140        0.80694783480959
C           -3.55431313893928       -2.36416808908348        0.03009346132655
C           -2.22232413631160       -2.12803585552752       -0.16631835262337
C           -1.59512494187408       -0.98646815877685        0.39112400167674
C           -0.24214385625121       -0.67848348983422        0.06957141948395
C            0.24428704101632        0.68116262823356        0.07235628063818
C            1.59737910726869        0.98777923626906        0.39466763502139
C            2.22426255875347        2.13210757931046       -0.15747850233399
C            3.55640294649521        2.36717771295429        0.03915295994964
C            4.31615446379844        1.47950649607691        0.81076284884019
N            5.70143180747359        1.71460409842170        0.99920201318616
O            6.33617610942306        0.90243913082900        1.65721483033360
O            6.18751187158707        2.71438030171858        0.48970147082832
C            3.71104967788546        0.36515013236382        1.40057709978372
C            2.37862044669304        0.12546048606767        1.19981062960493
N           -0.63608761738200        1.68616686594755       -0.25930292269509
C           -0.79434449223374        2.89319782391988        0.41824618174933
C           -0.10587389395234        3.38695643897159        1.51601404344461
C           -0.50680180442065        4.60629587227111        2.03336080046753
C           -1.56856443557056        5.31552371936120        1.48143730062134
C           -2.27655330520286        4.81247125795666        0.40391825441637
C           -1.89179468375979        3.59259084076543       -0.12839014519043
C           -2.41642347203419        2.77467539018370       -1.19337859275587
C           -3.46362315976355        2.93935056790564       -2.08454687070842
C           -3.69878018591982        1.94435722825162       -3.01762054854980
C           -2.88833626870153        0.81586749992945       -3.07910417580766
C           -1.83378137966830        0.63578031382965       -2.20181831324175
C           -1.61930426547762        1.61068659233807       -1.23881761959053
N            0.63790762602049       -1.68222506119069       -0.26671466303966
C            0.79616556184369       -2.89213847582115        0.40566530094101
C            0.10799000105167       -3.39040121478792        1.50157825950779
C            0.50884007017038       -4.61201963358366        2.01357797050786
C            1.57028688658253       -5.31908672630409        1.45828553773580
C            2.27794049994452       -4.81164743789780        0.38260465207421
C            1.89316512759791       -3.58949625877604       -0.14446215742917
C            2.41723172182136       -2.76740931807125       -1.20651481026012
C            3.46338648513466       -2.92896218523348       -2.09948195982719
C            3.69777502261217       -1.93046720012848       -3.02900401097006
C            2.88774863376567       -0.80139298874817       -3.08510249954147
C            1.83432484302288       -0.62429173430779       -2.20585459012345
C            1.62045694963209       -1.60298663731259       -1.24657335063064
C           -2.37583609366638       -0.12807112780216        1.20091313816172
C           -3.70804610625257       -0.36902801886614        1.40170841141626
H           -4.04494802717335       -3.21776787016620       -0.41148735801674
H           -1.64575065869114       -2.79626278131829       -0.78826124989891
H            1.64728477326615        2.80355324479824       -0.77556130142321
H            4.04673586354138        3.22305078957730       -0.39833549619464
H            4.31206692724367       -0.28629361833968        2.01594442233260
H            1.91118706653398       -0.71302601467417        1.69292859493445
H            0.71422971582839        2.84512008309271        1.96005370649658
H            0.01715114309506        5.01247559489702        2.88472016808266
H           -1.84857004305040        6.26600201146449        1.90875628615911
H           -3.11577942580721        5.34986019114761       -0.00907712258624
H           -4.07889494638543        3.82471113804874       -2.05050503512324
H           -4.51462239327761        2.04800762143002       -3.71610723192277
H           -3.08093651930273        0.06483353314784       -3.82960949430092
H           -1.20482165257123       -0.23688785635825       -2.27947044560954
H           -0.71182106866727       -2.85026420757051        1.94821794363101
H           -0.01491887298413       -5.02173318079397        2.86336412988805
H            1.85028876146391       -6.27140402807409        1.88149758426200
H            3.11690550070439       -5.34744708500399       -0.03297453467695
H            4.07840893796575       -3.81464372351718       -2.06955839478594
H            4.51267095044910       -2.03178201734246       -3.72893833951880
H            3.07972084120130       -0.04755364828733       -3.83295552821329
H            1.20566572475576        0.24896555118461       -2.27924924375761
H           -1.90813003266813        0.70818517636062        1.69756444883318
H           -4.30864346626455        0.27926193685278        2.02081590848881

 projected vibrational frequencies (cm⁻¹)
eigval :       -0.00    -0.00    -0.00    -0.00    -0.00     0.00
eigval :       12.90    17.23    22.52    24.83    32.73    34.50
eigval :       36.68    50.17    50.80    79.22    86.26    96.73
eigval :       98.86   105.84   110.98   132.64   132.97   147.48
eigval :      149.48   161.47   162.29   173.67   174.76   180.91
eigval :      228.06   247.83   258.93   263.01   274.42   278.15
eigval :      291.35   321.61   345.63   348.47   386.53   387.16
eigval :      392.45   392.82   411.16   418.92   420.06   424.76
eigval :      432.16   436.96   441.65   457.41   498.63   513.50
eigval :      515.61   521.37   536.14   536.97   542.24   544.92
eigval :      546.11   553.61   581.48   585.89   589.61   596.82
eigval :      600.56   611.11   631.21   637.76   640.40   656.81
eigval :      665.58   674.00   675.16   692.76   709.50   710.09
eigval :      713.57   715.23   751.41   754.22   768.70   771.31
eigval :      777.52   779.77   780.95   803.19   818.17   825.19
eigval :      825.91   853.32   854.49   868.42   871.07   871.71
eigval :      875.53   877.96   881.84   900.34   904.99   907.51
eigval :      907.59   909.40   913.10   919.02   919.04   922.71
eigval :      924.17   924.38   925.06   925.27   925.75   988.15
eigval :      995.69  1009.97  1013.75  1060.07  1069.93  1072.42
eigval :     1072.71  1077.04  1082.29  1127.53  1132.29  1132.95
eigval :     1136.57  1138.16  1144.80  1147.38  1164.85  1176.94
eigval :     1176.99  1179.08  1182.30  1205.69  1207.82  1213.70
eigval :     1221.26  1225.35  1230.85  1245.20  1265.25  1266.29
eigval :     1269.22  1273.43  1274.18  1287.79  1291.11  1302.69
eigval :     1302.83  1340.03  1340.11  1341.70  1342.73  1350.30
eigval :     1362.17  1363.27  1382.20  1385.08  1415.59  1416.91
eigval :     1419.05  1426.87  1433.97  1434.76  1439.29  1448.55
eigval :     1459.51  1459.65  1479.50  1479.61  1513.43  1513.51
eigval :     1565.60  1574.02  1574.11  1577.79  1582.31  1582.79
eigval :     1583.09  1583.29  1601.59  1602.74  1612.71  1613.10
eigval :     3087.45  3087.54  3091.19  3091.32  3091.69  3091.77
eigval :     3092.76  3093.11  3095.86  3096.05  3097.28  3097.34
eigval :     3102.49  3102.61  3104.17  3104.20  3106.69  3106.75
eigval :     3107.98  3108.13  3108.17  3108.33  3109.02  3109.50

   temp. (K)  partition function   enthalpy   heat capacity  entropy
                                   cal/mol     cal/K/mol   cal/K/mol   J/K/mol
 298.15  VIB  0.150E+17            21023.062    131.993    130.233
         ROT  0.255E+08              888.752      2.981     36.870
         INT  0.382E+24            21911.815    134.974    167.104
         TR   0.142E+29             1481.254      4.968     45.042
         TOT                       23393.0688   139.9417   212.1451   887.6152

       T/K    H(0)-H(T)+PV         H(T)/Eh          T*S/Eh         G(T)/Eh
   ------------------------------------------------------------------------
    298.15    0.372792E-01    0.551981E+00    0.100797E+00    0.451184E+00
   ------------------------------------------------------------------------

         :::::::::::::::::::::::::::::::::::::::::::::::::::::
         ::                  THERMODYNAMIC                  ::
         :::::::::::::::::::::::::::::::::::::::::::::::::::::
         :: total free energy        -120.945956181545 Eh   ::
         ::.................................................::
         :: total energy             -121.397140067450 Eh   ::
         :: zero point energy           0.514701655292 Eh   ::
         :: G(RRHO) w/o ZPVE           -0.063517769387 Eh   ::
         :: G(RRHO) contrib.            0.451183885905 Eh   ::
         :::::::::::::::::::::::::::::::::::::::::::::::::::::

           -------------------------------------------------
          | TOTAL ENERGY             -121.397140067450 Eh   |
          | TOTAL ENTHALPY           -120.845159184140 Eh   |
          | TOTAL FREE ENERGY        -120.945956181545 Eh   |
          | GRADIENT NORM               0.000088757749 Eh/α |
           -------------------------------------------------

 * finished run on 2025/09/04 at 20:21:19.655
